INSANE! Membrane UpperLeaflet>loPI:POPI:DPPI:PYPI:ERGO=30.0:5.0:3.0:2.0:10.0 LowerLeaflet>loPI:POPI:DPPI:PYPI:ERGO=30.0:5.0:3.0:2.0:10.0
48670
    1loPI    C1    1   6.024  13.570  10.495 -0.0528 -0.1792  0.0178
    1loPI    C2    2   5.816  13.862  10.672  0.2054 -0.0026  0.0350
    1loPI    C3    3   5.691  13.483  10.699 -0.1872  0.1147 -0.0702
    1loPI   PO4    4   6.080  13.600  10.136  0.2361  0.0061 -0.2394
    1loPI   GL1    5   6.010  13.821   9.727  0.0789  0.0970  0.3687
    1loPI   GL2    6   6.200  13.636   9.641  0.3183  0.3083  0.1148
    1loPI   C1A    7   5.862  14.100   9.444  0.2645  0.3021  0.0745
    1loPI   C2A    8   5.859  13.964   9.008 -0.4791 -0.0796 -0.0145
    1loPI   C3A    9   6.116  14.120   8.670 -0.3344 -0.1601 -0.0406
    1loPI   C4A   10   6.307  14.146   8.225 -0.0708 -0.3234  0.0231
    1loPI   C5A   11   6.255  14.140   7.815  0.0181 -0.2344 -0.0500
    1loPI   C6A   12   6.321  14.408   7.455 -0.2893 -0.0311 -0.0111
    1loPI   C1B   13   6.247  13.665   9.279 -0.0336  0.0209 -0.1064
    1loPI   C2B   14   6.271  13.580   8.868 -0.2091  0.2712 -0.0804
    1loPI   C3B   15   6.488  13.671   8.496  0.0411 -0.0503  0.3563
    1loPI   C4B   16   6.468  13.534   8.076 -0.0141 -0.1375  0.2419
    2loPI    C1   17  11.161  16.763  10.670 -0.2095  0.1254  0.1075
    2loPI    C2   18  11.043  16.504  10.951 -0.1082 -0.1338 -0.0847
    2loPI    C3   19  10.773  16.730  10.760 -0.1949 -0.0795  0.1006
    2loPI   PO4   20  11.276  16.586  10.502  0.0591  0.1373  0.0033
    2loPI   GL1   21  11.072  16.350  10.059  0.0235  0.1127 -0.0101
    2loPI   GL2   22  11.269  16.062  10.252  0.1648 -0.0804 -0.0276
    2loPI   C1A   23  11.093  16.276   9.574  0.1404 -0.0596 -0.1398
    2loPI   C2A   24  11.047  16.419   9.074  0.0343  0.0122 -0.1429
    2loPI   C3A   25  11.038  16.321   8.603 -0.1505 -0.1210 -0.0957
    2loPI   C4A   26  11.297  16.453   8.283 -0.0040  0.2398  0.1119
    2loPI   C5A   27  11.266  16.755   7.874 -0.1004  0.3577  0.1535
    2loPI   C6A   28  11.402  16.862   7.477 -0.1567 -0.1954  0.3509
    2loPI   C1B   29  11.446  15.908   9.864  0.1514 -0.2962 -0.0334
    2loPI   C2B   30  11.607  15.869   9.450  0.0967 -0.1501 -0.0489
    2loPI   C3B   31  11.376  16.016   9.096  0.1662  0.3033 -0.0083
    2loPI   C4B   32  11.379  16.001   8.573  0.3850 -0.1590  0.1680
    3loPI    C1   33  15.106   3.239  10.453  0.1278  0.3200 -0.2544
    3loPI    C2   34  14.808   3.161  10.198  0.0719 -0.0338 -0.0866
    3loPI    C3   35  14.729   3.327  10.553  0.1281  0.2809 -0.2183
    3loPI   PO4   36  15.185   2.945  10.509  0.2456  0.0166  0.1793
    3loPI   GL1   37  15.011   2.674  10.187  0.0759 -0.1588  0.0341
    3loPI   GL2   38  15.308   2.738  10.085  0.1969  0.2281  0.0659
    3loPI   C1A   39  14.962   2.524   9.770 -0.0991  0.0759  0.1974
    3loPI   C2A   40  14.922   2.527   9.303  0.0317  0.0283 -0.1872
    3loPI   C3A   41  14.962   2.405   8.964  0.1154 -0.0532  0.1056
    3loPI   C4A   42  14.914   2.300   8.588 -0.3395 -0.0191  0.3020
    3loPI   C5A   43  14.967   2.252   8.127 -0.0243  0.0421  0.1903
    3loPI   C6A   44  15.099   1.943   7.828  0.1062  0.0999 -0.1478
    3loPI   C1B   45  15.417   2.694   9.736 -0.1100 -0.1314  0.2833
    3loPI   C2B   46  15.368   2.556   9.371 -0.1265  0.1188 -0.0077
    3loPI   C3B   47  15.389   2.599   8.987  0.1438 -0.0826 -0.3430
    3loPI   C4B   48  15.399   2.469   8.494  0.0676  0.0234  0.0008
    4loPI    C1   49   4.958   0.829  10.515  0.1835 -0.0453 -0.0195
    4loPI    C2   50   4.856   0.847  10.902  0.1700 -0.0314 -0.0237
    4loPI    C3   51   5.242   0.853  10.796  0.1787 -0.1788 -0.0028
    4loPI   PO4   52   5.007   0.492  10.371  0.3112  0.1412 -0.1891
    4loPI   GL1   53   4.972   0.234   9.950  0.1270  0.0772  0.1148
    4loPI   GL2   54   5.318   0.204   9.953 -0.0332  0.0322 -0.1446
    4loPI   C1A   55   4.795   0.333   9.606  0.3035 -0.0200 -0.0766
    4loPI   C2A   56   4.654   0.499   9.192  0.1130  0.0538  0.0787
    4loPI   C3A   57   4.421   0.596   8.838  0.0957  0.0422  0.0939
    4loPI   C4A   58   4.315   0.581   8.399 -0.0658 -0.5163  0.0239
    4loPI   C5A   59   4.146   0.723   7.980 -0.0783 -0.3086  0.1269
    4loPI   C6A   60   4.378   0.688   7.576 -0.1016  0.0037 -0.0526
    4loPI   C1B   61   5.329   0.625   9.703  0.0914  0.0473  0.0841
    4loPI   C2B   62   5.077   0.883   9.372 -0.2937 -0.0394 -0.1455
    4loPI   C3B   63   5.060   0.987   8.884 -0.0989 -0.3440 -0.0762
    4loPI   C4B   64   5.294   0.619   8.545 -0.0567  0.0881 -0.1644
    5loPI    C1   65  14.798  11.361  11.083  0.0532 -0.1713  0.0401
    5loPI    C2   66  15.178  11.273  10.993  0.0212 -0.1792 -0.0878
    5loPI    C3   67  15.090  11.617  11.178  0.0919 -0.1822 -0.0487
    5loPI   PO4   68  14.660  11.483  10.779 -0.0351  0.0677 -0.2659
    5loPI   GL1   69  14.541  11.171  10.454 -0.4656  0.0018 -0.0205
    5loPI   GL2   70  14.847  11.259  10.285 -0.2079 -0.0295 -0.1596
    5loPI   C1A   71  14.404  11.168  10.045 -0.0284 -0.0255  0.1134
    5loPI   C2A   72  14.253  11.159   9.698 -0.0156 -0.1598  0.0189
    5loPI   C3A   73  14.150  11.227   9.218 -0.0423  0.1112 -0.0675
    5loPI   C4A   74  14.021  11.350   8.771  0.1529  0.0233  0.0568
    5loPI   C5A   75  13.654  11.359   8.521 -0.3408  0.1540 -0.0636
    5loPI   C6A   76  13.285  11.336   8.399  0.0580 -0.0429  0.0516
    5loPI   C1B   77  14.746  11.631   9.953 -0.3014  0.0704 -0.2135
    5loPI   C2B   78  14.757  11.782   9.517  0.3779 -0.0329 -0.4693
    5loPI   C3B   79  14.739  11.924   9.105 -0.1913  0.0325 -0.0650
    5loPI   C4B   80  14.591  11.964   8.684 -0.0565 -0.0744  0.2042
    6loPI    C1   81   5.862  12.712  10.411 -0.1028  0.0865  0.1636
    6loPI    C2   82   5.809  13.014  10.669  0.1694  0.1753  0.1187
    6loPI    C3   83   6.136  12.785  10.693 -0.0859 -0.1875  0.2204
    6loPI   PO4   84   5.928  12.784  10.169 -0.1381  0.1113 -0.0517
    6loPI   GL1   85   6.213  12.787   9.922  0.2028 -0.1627 -0.0294
    6loPI   GL2   86   6.063  13.168   9.782 -0.0197 -0.0629 -0.0037
    6loPI   C1A   87   5.968  12.687   9.487 -0.1135 -0.1453  0.0420
    6loPI   C2A   88   6.033  12.628   9.049 -0.1739 -0.4513  0.1929
    6loPI   C3A   89   5.971  12.671   8.642 -0.3535 -0.2473 -0.0731
    6loPI   C4A   90   5.755  12.635   8.215  0.0930 -0.2970  0.1180
    6loPI   C5A   91   5.939  12.707   7.850  0.2562 -0.2621  0.1402
    6loPI   C6A   92   6.087  12.630   7.396 -0.0260 -0.1530 -0.1058
    6loPI   C1B   93   5.880  13.186   9.389 -0.1600  0.0761 -0.0900
    6loPI   C2B   94   6.036  13.124   8.922  0.1792  0.2218 -0.1006
    6loPI   C3B   95   6.261  13.124   8.532  0.1834  0.1774 -0.2310
    6loPI   C4B   96   6.346  13.005   8.229  0.2428  0.2620  0.1736
    7loPI    C1   97  10.201   2.503  10.491 -0.0086  0.1035  0.0736
    7loPI    C2   98   9.819   2.553  10.601 -0.1061 -0.0691 -0.1773
    7loPI    C3   99  10.087   2.414  10.864 -0.2533 -0.1150 -0.0500
    7loPI   PO4  100  10.146   2.600  10.222 -0.4115  0.2415  0.0491
    7loPI   GL1  101  10.167   2.478   9.894  0.0950  0.0155  0.1476
    7loPI   GL2  102  10.053   2.226   9.799  0.1855  0.0255 -0.2729
    7loPI   C1A  103  10.130   2.618   9.500  0.1540  0.3765 -0.2887
    7loPI   C2A  104  10.193   2.698   9.089  0.2683  0.3436  0.2198
    7loPI   C3A  105   9.892   2.783   8.763 -0.0684 -0.0469 -0.1528
    7loPI   C4A  106   9.755   2.941   8.345 -0.1713  0.1098 -0.2788
    7loPI   C5A  107   9.751   3.096   7.940  0.1640  0.0298  0.0271
    7loPI   C6A  108   9.946   3.286   7.579 -0.0238  0.0458  0.3590
    7loPI   C1B  109  10.046   1.940   9.497 -0.1458  0.1174  0.1445
    7loPI   C2B  110   9.781   1.944   9.171 -0.1626 -0.0289 -0.0566
    7loPI   C3B  111   9.938   2.151   8.798 -0.0429  0.1671 -0.1941
    7loPI   C4B  112   9.873   1.993   8.377  0.2553  0.1391 -0.1952
    8loPI    C1  113  11.049   8.104  10.523  0.0378 -0.1229 -0.2337
    8loPI    C2  114  10.790   8.380  10.652 -0.0388 -0.2061 -0.2083
    8loPI    C3  115  11.177   8.408  10.750 -0.0648 -0.1675 -0.1153
    8loPI   PO4  116  10.905   8.010  10.240 -0.2615 -0.0864  0.2898
    8loPI   GL1  117  10.658   7.742  10.097 -0.2941 -0.0336 -0.2256
    8loPI   GL2  118  10.387   7.620   9.960  0.0344  0.1064  0.1187
    8loPI   C1A  119  10.827   7.675   9.669 -0.3693 -0.1769 -0.1217
    8loPI   C2A  120  10.869   7.631   9.154  0.2878 -0.0897  0.0190
    8loPI   C3A  121  10.718   7.763   8.749  0.1090  0.0254 -0.3064
    8loPI   C4A  122  10.900   7.665   8.345 -0.3103  0.1918  0.0546
    8loPI   C5A  123  11.232   7.702   8.053  0.3236  0.2096  0.0660
    8loPI   C6A  124  11.272   7.561   7.700  0.0691  0.0148  0.0392
    8loPI   C1B  125  10.373   7.573   9.447  0.4112 -0.1391  0.0802
    8loPI   C2B  126  10.338   7.696   9.022  0.2144  0.0938 -0.1628
    8loPI   C3B  127  10.244   7.615   8.595 -0.3089  0.0351 -0.0166
    8loPI   C4B  128  10.503   7.449   8.161  0.0635 -0.1131 -0.2186
    9loPI    C1  129  11.628  17.993  11.126 -0.0428 -0.0548  0.1872
    9loPI    C2  130  11.336  17.792  11.311 -0.1800 -0.1104 -0.0862
    9loPI    C3  131  11.684  17.612  11.232 -0.1756 -0.1324 -0.0167
    9loPI   PO4  132  11.504  18.199  10.876  0.1439 -0.0021  0.1027
    9loPI   GL1  133  11.592  18.359  10.549 -0.0710 -0.0224 -0.1140
    9loPI   GL2  134  11.446  18.089  10.354  0.0420  0.2307  0.2527
    9loPI   C1A  135  11.739  18.520  10.150 -0.2091 -0.0428 -0.3775
    9loPI   C2A  136  11.957  18.439   9.783 -0.1334 -0.0029 -0.1357
    9loPI   C3A  137  12.024  18.472   9.383 -0.2119  0.1067  0.1350
    9loPI   C4A  138  11.871  18.535   9.013 -0.0034 -0.0090 -0.0518
    9loPI   C5A  139  11.615  18.497   8.749 -0.1199  0.1762 -0.1460
    9loPI   C6A  140  11.392  18.233   8.461  0.1444 -0.1147  0.0470
    9loPI   C1B  141  11.594  18.115   9.945  0.3368  0.0836  0.0378
    9loPI   C2B  142  11.595  18.133   9.507  0.0935 -0.0056  0.0658
    9loPI   C3B  143  11.473  18.125   9.072 -0.1469 -0.1853 -0.1318
    9loPI   C4B  144  11.815  18.041   8.705 -0.2098  0.1709  0.1243
   10loPI    C1  145  17.294   6.952  10.083 -0.0670  0.0287  0.0914
   10loPI    C2  146  17.615   6.742  10.196 -0.0958 -0.0097  0.1024
   10loPI    C3  147  17.312   6.798  10.451  0.1192  0.4571  0.2681
   10loPI   PO4  148  17.240   6.762   9.831 -0.1215 -0.0817 -0.2063
   10loPI   GL1  149  17.219   6.729   9.444  0.4740 -0.0855 -0.0080
   10loPI   GL2  150  17.323   7.049   9.412  0.1391 -0.0199 -0.0289
   10loPI   C1A  151  17.288   6.761   9.034  0.0127 -0.0187  0.0505
   10loPI   C2A  152  17.214   6.909   8.634 -0.0897 -0.1507  0.1355
   10loPI   C3A  153  17.195   7.134   8.301 -0.0149  0.0627 -0.1165
   10loPI   C4A  154  17.064   7.181   7.903  0.0190  0.0459 -0.0524
   10loPI   C5A  155  16.842   7.018   7.736  0.2248  0.1168 -0.2998
   10loPI   C6A  156  16.458   6.982   7.788  0.0638 -0.2762 -0.1968
   10loPI   C1B  157  17.159   7.234   9.074  0.3053  0.1347  0.2148
   10loPI   C2B  158  17.029   7.433   8.670 -0.1252 -0.2059  0.3697
   10loPI   C3B  159  16.992   7.671   8.288  0.0695  0.0293 -0.2053
   10loPI   C4B  160  17.141   7.673   8.014 -0.2188 -0.4049 -0.2380
   11loPI    C1  161   5.184   7.969  10.629 -0.1126  0.3618 -0.0248
   11loPI    C2  162   4.871   7.751  10.748  0.1969 -0.0106  0.1292
   11loPI    C3  163   4.897   8.137  10.851 -0.1666  0.0025  0.1843
   11loPI   PO4  164   5.108   7.993  10.306 -0.0837 -0.0901  0.0140
   11loPI   GL1  165   5.103   7.803   9.904 -0.2649 -0.0726 -0.1192
   11loPI   GL2  166   4.843   7.594   9.930 -0.1017  0.1113 -0.0867
   11loPI   C1A  167   5.298   7.898   9.437  0.2776  0.1191 -0.0400
   11loPI   C2A  168   5.227   7.947   9.070 -0.0818 -0.1177  0.1036
   11loPI   C3A  169   5.048   8.034   8.787 -0.3325  0.2046 -0.0716
   11loPI   C4A  170   5.025   7.962   8.342 -0.2740  0.3849  0.0724
   11loPI   C5A  171   5.284   7.862   8.046 -0.1358  0.0518  0.1591
   11loPI   C6A  172   5.460   7.603   7.730 -0.0149  0.0766 -0.1040
   11loPI   C1B  173   4.914   7.638   9.445 -0.2195  0.1743 -0.1351
   11loPI   C2B  174   4.776   7.686   9.001  0.1365 -0.1268  0.0882
   11loPI   C3B  175   4.775   7.520   8.612 -0.2109  0.2489  0.0236
   11loPI   C4B  176   4.683   7.588   8.221  0.0348  0.0031  0.0789
   12loPI    C1  177  11.894  13.472  11.358  0.0755  0.1015  0.1154
   12loPI    C2  178  12.065  13.700  11.639  0.3540  0.1413 -0.0817
   12loPI    C3  179  12.208  13.334  11.564 -0.0294 -0.0659  0.1652
   12loPI   PO4  180  11.878  13.675  11.153  0.0050 -0.2569  0.1848
   12loPI   GL1  181  11.958  13.778  10.715 -0.2059  0.2604 -0.0424
   12loPI   GL2  182  12.061  13.439  10.708 -0.4739  0.3086  0.1337
   12loPI   C1A  183  12.171  13.899  10.368 -0.0544 -0.3089 -0.0704
   12loPI   C2A  184  12.183  13.969   9.968 -0.1645 -0.2932 -0.0180
   12loPI   C3A  185  12.170  13.832   9.502 -0.0080  0.2025 -0.1791
   12loPI   C4A  186  12.130  13.919   9.196 -0.2988 -0.2269  0.2777
   12loPI   C5A  187  12.002  14.173   8.823 -0.0190 -0.2965  0.3950
   12loPI   C6A  188  12.101  14.463   8.490  0.0884 -0.0072  0.4268
   12loPI   C1B  189  11.875  13.391  10.322  0.3656  0.0550  0.0058
   12loPI   C2B  190  11.779  13.411   9.898  0.4791  0.1187  0.0416
   12loPI   C3B  191  11.783  13.379   9.486 -0.1432  0.0444 -0.1432
   12loPI   C4B  192  11.676  13.570   9.149 -0.4877 -0.1296 -0.3366
   13loPI    C1  193  14.220   8.157  10.401 -0.2070 -0.2735  0.0079
   13loPI    C2  194  14.240   8.020  10.776  0.2317 -0.2528 -0.0035
   13loPI    C3  195  14.264   8.413  10.705 -0.0629 -0.2395 -0.0407
   13loPI   PO4  196  14.051   8.021  10.250  0.0871  0.0740 -0.0954
   13loPI   GL1  197  14.129   7.995   9.785  0.1440 -0.1249 -0.2093
   13loPI   GL2  198  14.316   8.295   9.829  0.0097 -0.1793 -0.0470
   13loPI   C1A  199  14.050   7.938   9.311 -0.2289  0.2920 -0.2964
   13loPI   C2A  200  14.041   7.997   8.873  0.0100 -0.2171  0.0289
   13loPI   C3A  201  14.009   7.874   8.368  0.3028 -0.4681  0.2035
   13loPI   C4A  202  14.366   7.671   8.150  0.1648  0.0239  0.0296
   13loPI   C5A  203  14.667   7.772   7.962  0.0118  0.2851 -0.0781
   13loPI   C6A  204  15.137   7.771   8.043 -0.3120 -0.1119  0.0042
   13loPI   C1B  205  14.203   8.417   9.452 -0.0200  0.0844  0.0709
   13loPI   C2B  206  14.071   8.449   9.051 -0.1200 -0.1686  0.0266
   13loPI   C3B  207  14.095   8.448   8.596  0.1354  0.1317  0.1183
   13loPI   C4B  208  13.753   8.317   8.340 -0.2970 -0.0050  0.1201
   14loPI    C1  209  14.776   5.979  10.288  0.1588  0.1037  0.0995
   14loPI    C2  210  14.562   5.849  10.599  0.0554  0.4220  0.1641
   14loPI    C3  211  14.908   5.672  10.508 -0.2630 -0.1474  0.0140
   14loPI   PO4  212  14.669   5.943  10.098  0.1893  0.2168 -0.1888
   14loPI   GL1  213  14.697   5.909   9.761  0.0938  0.0641  0.3230
   14loPI   GL2  214  15.030   5.889   9.735  0.1318  0.0402  0.1173
   14loPI   C1A  215  14.526   5.874   9.309 -0.1680 -0.2082 -0.4613
   14loPI   C2A  216  14.630   5.768   8.872  0.0359 -0.1191 -0.3036
   14loPI   C3A  217  14.730   5.578   8.392  0.1415  0.1269  0.1503
   14loPI   C4A  218  14.673   5.453   7.991  0.0141  0.2221 -0.0653
   14loPI   C5A  219  14.984   5.408   7.568  0.2228  0.0133  0.2019
   14loPI   C6A  220  15.403   5.129   7.458 -0.1818 -0.0663  0.2432
   14loPI   C1B  221  15.046   5.835   9.248 -0.4191  0.0708  0.0678
   14loPI   C2B  222  15.136   5.660   8.825  0.2891 -0.0366  0.0034
   14loPI   C3B  223  15.325   5.670   8.418  0.0456  0.2876 -0.0400
   14loPI   C4B  224  15.501   5.674   7.973 -0.0207 -0.0894 -0.2302
   15loPI    C1  225   6.813   3.371  10.410  0.2417  0.0758 -0.0744
   15loPI    C2  226   6.670   3.642  10.154  0.2040  0.0345 -0.0972
   15loPI    C3  227   6.850   3.761  10.491 -0.0788  0.0856  0.0386
   15loPI   PO4  228   6.921   3.227  10.319  0.3639 -0.0722 -0.4375
   15loPI   GL1  229   6.833   3.173   9.887  0.1590 -0.3142 -0.2107
   15loPI   GL2  230   6.476   2.866   9.765 -0.2033  0.0985  0.1169
   15loPI   C1A  231   6.807   3.216   9.436  0.3829  0.0832  0.0267
   15loPI   C2A  232   6.715   2.893   8.947 -0.3845 -0.2235 -0.0577
   15loPI   C3A  233   6.603   2.613   8.606 -0.0296  0.0085  0.0787
   15loPI   C4A  234   6.501   2.440   8.205 -0.1659  0.0432  0.3920
   15loPI   C5A  235   6.252   2.157   7.980  0.2407  0.0115  0.0538
   15loPI   C6A  236   6.451   1.873   7.884 -0.2937  0.1643 -0.3620
   15loPI   C1B  237   6.394   2.864   9.361 -0.3229  0.0585 -0.0251
   15loPI   C2B  238   6.233   2.817   8.966 -0.2018  0.1062 -0.1608
   15loPI   C3B  239   6.162   2.809   8.510  0.2052  0.0850  0.0257
   15loPI   C4B  240   6.045   2.651   8.033  0.0585 -0.0219 -0.3439
   16loPI    C1  241   2.730   4.981   9.871  0.1695 -0.0946  0.1444
   16loPI    C2  242   2.427   5.071  10.116  0.0914  0.0874 -0.0168
   16loPI    C3  243   2.435   4.717   9.930  0.0624  0.0174  0.1138
   16loPI   PO4  244   2.898   5.086   9.980  0.0698 -0.1725  0.2658
   16loPI   GL1  245   3.124   5.428   9.729 -0.5220  0.1024  0.3236
   16loPI   GL2  246   2.886   5.405   9.577 -0.3132  0.0533  0.2261
   16loPI   C1A  247   3.365   5.154   9.454 -0.0433 -0.1936  0.0629
   16loPI   C2A  248   3.295   5.147   8.975 -0.0941 -0.0034 -0.1345
   16loPI   C3A  249   3.459   5.188   8.538  0.0403 -0.2701 -0.0889
   16loPI   C4A  250   3.381   5.336   8.088  0.0493 -0.2457  0.0620
   16loPI   C5A  251   3.378   5.123   7.648 -0.0197 -0.1107 -0.0558
   16loPI   C6A  252   3.155   4.674   7.572 -0.1367  0.1903  0.0556
   16loPI   C1B  253   3.002   5.545   9.197 -0.1212 -0.2579 -0.2135
   16loPI   C2B  254   2.944   5.569   8.850  0.2650 -0.1158  0.0542
   16loPI   C3B  255   3.015   5.754   8.448 -0.1316  0.0133  0.0496
   16loPI   C4B  256   2.915   5.496   8.072 -0.0805  0.0875 -0.0787
   17loPI    C1  257   4.826   2.335  10.593 -0.3198  0.0720  0.0278
   17loPI    C2  258   5.064   2.124  10.836 -0.0986 -0.1156 -0.3424
   17loPI    C3  259   4.837   2.418  10.984  0.1116 -0.1538  0.0702
   17loPI   PO4  260   4.966   2.283  10.321  0.0107  0.2259 -0.2478
   17loPI   GL1  261   4.917   2.138   9.889  0.0445  0.0195 -0.2550
   17loPI   GL2  262   4.901   2.401   9.863  0.0913  0.1649 -0.3338
   17loPI   C1A  263   4.843   1.985   9.424 -0.2993 -0.0126 -0.2022
   17loPI   C2A  264   4.945   2.010   9.029  0.0437 -0.0544 -0.0102
   17loPI   C3A  265   4.735   1.976   8.737 -0.0721 -0.1562 -0.0131
   17loPI   C4A  266   4.644   1.999   8.285  0.0323  0.1329  0.3443
   17loPI   C5A  267   4.988   2.217   8.006  0.1231 -0.0398 -0.0870
   17loPI   C6A  268   5.323   2.346   8.135  0.3300 -0.0898 -0.1364
   17loPI   C1B  269   4.611   2.510   9.501 -0.2987  0.2643 -0.0723
   17loPI   C2B  270   4.189   2.608   9.321  0.0353  0.1378 -0.1154
   17loPI   C3B  271   4.031   2.804   9.027  0.3453 -0.2866  0.0843
   17loPI   C4B  272   3.984   2.843   8.623 -0.1183 -0.0328  0.2447
   18loPI    C1  273   3.677  14.370  10.047 -0.4388  0.2769 -0.1114
   18loPI    C2  274   3.445  14.082   9.894  0.0780 -0.2536  0.0689
   18loPI    C3  275   3.319  14.294  10.209 -0.3035 -0.2884 -0.0557
   18loPI   PO4  276   3.797  14.423   9.893 -0.2868 -0.1609  0.4699
   18loPI   GL1  277   3.895  14.263   9.596  0.0399 -0.2608 -0.0537
   18loPI   GL2  278   3.850  13.999   9.474 -0.0852  0.0804  0.0445
   18loPI   C1A  279   3.973  14.452   9.217  0.0143  0.1222 -0.2326
   18loPI   C2A  280   3.999  14.532   8.734  0.1886  0.0213  0.1093
   18loPI   C3A  281   3.634  14.429   8.434 -0.0775 -0.0093 -0.3701
   18loPI   C4A  282   3.529  14.467   8.033  0.2878 -0.1368  0.2660
   18loPI   C5A  283   3.621  14.418   7.697  0.2440  0.0374 -0.0077
   18loPI   C6A  284   3.682  14.645   7.428  0.1535  0.0563 -0.2139
   18loPI   C1B  285   4.002  14.006   9.031  0.0801  0.2154 -0.0121
   18loPI   C2B  286   4.056  14.082   8.541 -0.0727 -0.2609  0.4525
   18loPI   C3B  287   4.070  14.344   8.199  0.1983 -0.0386 -0.0800
   18loPI   C4B  288   4.005  14.711   8.095  0.0075  0.1769 -0.1588
   19loPI    C1  289   1.445  11.870  10.412 -0.0121 -0.0331 -0.0465
   19loPI    C2  290   1.663  11.599  10.610  0.2500  0.0618 -0.1993
   19loPI    C3  291   1.515  11.916  10.804  0.1707 -0.0488 -0.0764
   19loPI   PO4  292   1.544  11.765  10.126 -0.2275 -0.1887  0.0628
   19loPI   GL1  293   1.660  11.811   9.805 -0.3017  0.1878  0.0700
   19loPI   GL2  294   1.935  11.789   9.689 -0.3755 -0.1434 -0.1588
   19loPI   C1A  295   1.559  11.680   9.375 -0.3756 -0.1047 -0.3051
   19loPI   C2A  296   1.555  11.726   8.865  0.3581 -0.1402 -0.1257
   19loPI   C3A  297   1.712  11.616   8.469 -0.2111 -0.2144  0.1039
   19loPI   C4A  298   1.857  11.328   8.182  0.3528 -0.1628  0.2472
   19loPI   C5A  299   2.086  10.966   8.088 -0.1699 -0.0265  0.0732
   19loPI   C6A  300   2.174  10.576   8.269 -0.1609  0.1075 -0.2019
   19loPI   C1B  301   2.036  11.563   9.293 -0.0404 -0.0843 -0.2369
   19loPI   C2B  302   2.148  11.624   8.905  0.0774 -0.2252 -0.1682
   19loPI   C3B  303   2.220  11.461   8.507  0.2934  0.2410 -0.0186
   19loPI   C4B  304   2.324  11.403   8.135  0.1838  0.0012 -0.1025
   20loPI    C1  305   0.872   0.019  10.400  0.1261  0.0780  0.1870
   20loPI    C2  306   0.764  -0.283  10.640  0.0853 -0.0213  0.0449
   20loPI    C3  307   0.649   0.091  10.725 -0.3684 -0.1223 -0.0957
   20loPI   PO4  308   0.828  -0.046  10.194  0.1086  0.2926  0.0560
   20loPI   GL1  309   0.524   0.044   9.871 -0.1356  0.1511 -0.2773
   20loPI   GL2  310   0.115   0.192   9.918  0.1006  0.5897  0.2365
   20loPI   C1A  311   0.496  -0.126   9.487  0.1880 -0.1965 -0.1907
   20loPI   C2A  312   0.476  -0.186   9.070  0.1241  0.1425  0.2388
   20loPI   C3A  313   0.528  -0.313   8.621 -0.0095  0.0857 -0.1171
   20loPI   C4A  314   0.757  -0.408   8.318  0.4775 -0.0735 -0.0399
   20loPI   C5A  315   0.841  -0.223   7.938 -0.0648 -0.0905  0.0767
   20loPI   C6A  316   1.265  -0.304   7.649 -0.1080 -0.0268 -0.1333
   20loPI   C1B  317   0.062   0.424   9.552 -0.0746 -0.1269 -0.0276
   20loPI   C2B  318   0.164   0.635   9.020 -0.1902  0.4596 -0.2667
   20loPI   C3B  319   0.485   0.926   8.691  0.0182  0.2540  0.2448
   20loPI   C4B  320   0.398   0.965   8.242  0.1782  0.2571  0.1676
   21loPI    C1  321   3.379   5.791  10.264 -0.1092  0.1618  0.0633
   21loPI    C2  322   3.112   5.497  10.220  0.0348  0.0701 -0.2227
   21loPI    C3  323   3.377   5.484  10.519 -0.0120 -0.0496 -0.1859
   21loPI   PO4  324   3.501   5.815  10.006 -0.0908  0.0932 -0.0511
   21loPI   GL1  325   3.306   6.009   9.569 -0.2189  0.2159 -0.0664
   21loPI   GL2  326   3.283   6.365   9.634 -0.0969 -0.0280  0.4293
   21loPI   C1A  327   3.082   6.007   9.173  0.0600  0.1431  0.0529
   21loPI   C2A  328   3.062   6.128   8.762 -0.0573 -0.3246 -0.0758
   21loPI   C3A  329   3.266   6.148   8.452  0.2831 -0.2493  0.0386
   21loPI   C4A  330   3.363   6.379   8.094 -0.0647  0.0634 -0.1443
   21loPI   C5A  331   3.495   6.548   7.767  0.2623 -0.0010  0.2297
   21loPI   C6A  332   3.882   6.494   7.491 -0.2348  0.1600  0.0844
   21loPI   C1B  333   3.540   6.345   9.271 -0.0051  0.0545  0.1302
   21loPI   C2B  334   3.642   6.324   8.868 -0.2270 -0.1794  0.1369
   21loPI   C3B  335   3.731   6.213   8.477  0.1609 -0.2589 -0.0237
   21loPI   C4B  336   3.983   6.263   8.190 -0.0885 -0.0804  0.1981
   22loPI    C1  337  10.695   9.200  10.701  0.1119  0.1453 -0.1602
   22loPI    C2  338  11.006   8.993  10.843  0.0619  0.1206 -0.0862
   22loPI    C3  339  10.636   8.846  10.879  0.0249  0.2289 -0.0210
   22loPI   PO4  340  10.815   9.283  10.331  0.1346  0.1771 -0.3306
   22loPI   GL1  341  11.079   9.131   9.959 -0.0307  0.1638 -0.0048
   22loPI   GL2  342  10.788   9.207   9.804 -0.3689 -0.1893  0.0310
   22loPI   C1A  343  11.300   9.073   9.638  0.1594 -0.1472 -0.1721
   22loPI   C2A  344  11.234   9.100   9.147 -0.0040 -0.1897  0.0333
   22loPI   C3A  345  11.184   9.082   8.759 -0.0667  0.2044 -0.0233
   22loPI   C4A  346  11.483   9.127   8.363 -0.3194 -0.1036  0.0538
   22loPI   C5A  347  11.884   8.899   8.097 -0.0880  0.1486 -0.0315
   22loPI   C6A  348  11.764   8.599   7.838  0.1353 -0.2566 -0.2264
   22loPI   C1B  349  10.670   9.235   9.320  0.0129 -0.0644 -0.3835
   22loPI   C2B  350  10.456   9.231   8.924 -0.1858 -0.0803 -0.0312
   22loPI   C3B  351  10.397   9.170   8.456 -0.0745 -0.1935  0.0793
   22loPI   C4B  352  10.145   9.150   8.146  0.3007 -0.1491  0.0959
   23loPI    C1  353  11.010  13.226  10.770  0.1250  0.0606 -0.1193
   23loPI    C2  354  11.146  13.561  10.941 -0.0501  0.0772 -0.0109
   23loPI    C3  355  10.774  13.435  11.015 -0.0015 -0.1158 -0.0891
   23loPI   PO4  356  11.102  13.290  10.531 -0.0513  0.4034  0.3624
   23loPI   GL1  357  11.362  13.250  10.164 -0.1774  0.1708  0.0150
   23loPI   GL2  358  11.264  13.541  10.046  0.1476  0.0817 -0.0882
   23loPI   C1A  359  11.358  13.072   9.744 -0.2706 -0.1706 -0.0302
   23loPI   C2A  360  11.305  13.170   9.288 -0.1069 -0.0240  0.0290
   23loPI   C3A  361  11.256  13.262   8.918  0.2152  0.2189 -0.3092
   23loPI   C4A  362  11.023  13.517   8.540 -0.0480 -0.0132  0.1179
   23loPI   C5A  363  10.604  13.765   8.300  0.3869 -0.5313  0.0174
   23loPI   C6A  364  10.097  13.659   8.392  0.2000 -0.2125  0.2367
   23loPI   C1B  365  11.295  13.528   9.615  0.4833  0.1322  0.1593
   23loPI   C2B  366  11.256  13.740   9.348 -0.2684  0.0495  0.0466
   23loPI   C3B  367  11.224  13.788   8.925 -0.3951 -0.0232 -0.1748
   23loPI   C4B  368  11.533  13.651   8.600 -0.3572 -0.1774 -0.1054
   24loPI    C1  369  15.727  14.097  10.637 -0.1194  0.0719 -0.0682
   24loPI    C2  370  16.092  14.016  10.493 -0.2011 -0.1255 -0.1673
   24loPI    C3  371  16.039  14.068  10.886 -0.0647 -0.0863 -0.1537
   24loPI   PO4  372  15.605  13.940  10.542 -0.1526 -0.0175 -0.1175
   24loPI   GL1  373  15.768  13.795  10.216 -0.1424 -0.0462  0.1936
   24loPI   GL2  374  16.110  13.944   9.988 -0.2744  0.0061  0.2735
   24loPI   C1A  375  16.004  13.478   9.860 -0.4185  0.1374 -0.4181
   24loPI   C2A  376  15.851  13.349   9.405  0.0883 -0.0448 -0.1396
   24loPI   C3A  377  15.811  13.210   9.007  0.0127 -0.0852 -0.0833
   24loPI   C4A  378  15.690  13.164   8.684 -0.1144 -0.4337  0.0861
   24loPI   C5A  379  15.510  12.914   8.338  0.2553  0.0146  0.1550
   24loPI   C6A  380  15.339  12.949   7.933  0.4346  0.0182 -0.0757
   24loPI   C1B  381  15.737  13.827   9.659 -0.0143 -0.0667 -0.0032
   24loPI   C2B  382  15.643  13.807   9.259  0.0755 -0.1114 -0.0174
   24loPI   C3B  383  15.655  14.131   8.960 -0.1075 -0.0531 -0.5690
   24loPI   C4B  384  16.034  14.192   8.759 -0.4391  0.1519  0.2289
   25loPI    C1  385  15.497   6.743  10.660 -0.2403 -0.1749 -0.0130
   25loPI    C2  386  15.616   6.636  11.027  0.1284  0.1667 -0.0258
   25loPI    C3  387  15.406   6.973  10.974 -0.0292  0.0559 -0.1176
   25loPI   PO4  388  15.422   6.551  10.507  0.1113 -0.0723 -0.0884
   25loPI   GL1  389  15.694   6.505  10.192  0.0144 -0.0588  0.0784
   25loPI   GL2  390  15.376   6.709  10.002 -0.3688  0.0087 -0.0202
   25loPI   C1A  391  15.590   6.257   9.798 -0.0442 -0.0365 -0.2120
   25loPI   C2A  392  15.374   6.362   9.349 -0.0708  0.0702 -0.0456
   25loPI   C3A  393  15.508   6.471   8.922  0.1490  0.0827  0.3811
   25loPI   C4A  394  15.752   6.532   8.490 -0.0669 -0.0046  0.0348
   25loPI   C5A  395  15.938   6.403   8.206  0.3430  0.0402  0.0617
   25loPI   C6A  396  15.728   6.367   7.714 -0.0626 -0.0573  0.0005
   25loPI   C1B  397  15.712   6.762   9.787 -0.1458  0.2072 -0.0777
   25loPI   C2B  398  15.846   6.458   9.441  0.2532 -0.3007  0.1053
   25loPI   C3B  399  15.877   6.197   9.227  0.2472  0.0862  0.0841
   25loPI   C4B  400  15.965   6.181   8.793 -0.0918 -0.2111 -0.0865
   26loPI    C1  401   9.612   5.977  10.559  0.1502  0.1533  0.2429
   26loPI    C2  402   9.772   5.698  10.796  0.0474 -0.0949  0.0259
   26loPI    C3  403   9.376   5.713  10.744  0.0401  0.1777  0.1388
   26loPI   PO4  404   9.730   5.960  10.207  0.0454  0.0342  0.4158
   26loPI   GL1  405   9.481   5.852   9.868  0.2227 -0.4532 -0.0672
   26loPI   GL2  406   9.649   5.580   9.853 -0.0867 -0.0791 -0.2249
   26loPI   C1A  407   9.481   5.888   9.395  0.3367  0.3691 -0.2701
   26loPI   C2A  408   9.431   5.992   8.958  0.0784 -0.0499  0.4003
   26loPI   C3A  409   9.623   6.004   8.531  0.1073  0.2033 -0.0879
   26loPI   C4A  410   9.992   5.977   8.344  0.1494 -0.1382  0.2730
   26loPI   C5A  411  10.080   5.902   7.929 -0.0764 -0.3555  0.1127
   26loPI   C6A  412  10.252   6.126   7.573 -0.0147  0.1063 -0.0030
   26loPI   C1B  413   9.855   5.556   9.486  0.0618 -0.0754  0.0118
   26loPI   C2B  414   9.798   5.225   9.220  0.0457 -0.0917 -0.0937
   26loPI   C3B  415   9.610   5.287   8.824 -0.0164 -0.3804 -0.0703
   26loPI   C4B  416   9.575   5.513   8.478 -0.2210 -0.2186 -0.4243
   27loPI    C1  417  16.293   2.970  10.505 -0.0859  0.0701  0.1091
   27loPI    C2  418  16.027   2.968  10.804 -0.0271  0.2495  0.1639
   27loPI    C3  419  16.362   2.750  10.833 -0.1539  0.0436  0.1059
   27loPI   PO4  420  16.175   3.045  10.265 -0.0271  0.1262 -0.0539
   27loPI   GL1  421  16.206   2.882   9.949  0.3609 -0.2829  0.0401
   27loPI   GL2  422  16.057   2.599   9.981 -0.1875  0.3314  0.0997
   27loPI   C1A  423  16.040   3.070   9.561  0.0178  0.1336  0.0761
   27loPI   C2A  424  15.777   3.013   9.199 -0.1413 -0.1065 -0.4996
   27loPI   C3A  425  15.697   3.030   8.849  0.3431 -0.0907 -0.0882
   27loPI   C4A  426  15.389   3.046   8.533  0.2397 -0.0055 -0.6250
   27loPI   C5A  427  15.305   2.929   8.151 -0.4419 -0.1305  0.3419
   27loPI   C6A  428  15.142   3.179   7.804  0.1238  0.3160 -0.0539
   27loPI   C1B  429  16.416   2.502   9.618  0.0234 -0.0617 -0.0966
   27loPI   C2B  430  16.584   2.468   9.224 -0.0091 -0.0678 -0.0039
   27loPI   C3B  431  16.825   2.490   8.832 -0.1133  0.1830 -0.0067
   27loPI   C4B  432  16.852   2.523   8.359  0.2357  0.2280  0.1521
   28loPI    C1  433   7.372   7.421  10.596  0.1424  0.0286  0.0418
   28loPI    C2  434   7.491   7.701  10.856 -0.0672  0.0765  0.0882
   28loPI    C3  435   7.507   7.314  10.957  0.0631  0.0813  0.0874
   28loPI   PO4  436   7.441   7.566  10.352  0.0721  0.1280  0.3441
   28loPI   GL1  437   7.561   7.630   9.989  0.0814 -0.3157 -0.1533
   28loPI   GL2  438   7.675   7.849   9.757  0.1763  0.0947 -0.0228
   28loPI   C1A  439   7.594   7.432   9.542  0.0505  0.1941 -0.1789
   28loPI   C2A  440   7.649   7.272   9.109 -0.1648  0.0517  0.1757
   28loPI   C3A  441   7.719   7.248   8.738 -0.3103 -0.1374  0.0090
   28loPI   C4A  442   7.593   7.241   8.324 -0.2892  0.2831  0.2967
   28loPI   C5A  443   7.223   7.276   8.060 -0.1184 -0.0397 -0.0061
   28loPI   C6A  444   6.788   7.396   8.106  0.0899  0.0547  0.0482
   28loPI   C1B  445   7.416   7.875   9.441  0.0834 -0.1550 -0.2599
   28loPI   C2B  446   7.511   7.815   9.065  0.2514 -0.2798  0.1142
   28loPI   C3B  447   7.429   7.703   8.711  0.1807 -0.1503  0.1730
   28loPI   C4B  448   7.548   7.792   8.466  0.0004 -0.2088 -0.1192
   29loPI    C1  449  14.741   2.796  10.618  0.1348 -0.1097  0.0293
   29loPI    C2  450  14.440   2.910  10.855 -0.0655 -0.3988 -0.0806
   29loPI    C3  451  14.792   2.806  11.014  0.0321  0.0917  0.0385
   29loPI   PO4  452  14.617   2.660  10.483 -0.0831 -0.1898  0.2373
   29loPI   GL1  453  14.541   2.714  10.086 -0.3830 -0.1109 -0.0065
   29loPI   GL2  454  14.189   2.660  10.051 -0.2473  0.0142 -0.0019
   29loPI   C1A  455  14.585   2.752   9.593 -0.0715 -0.0002  0.2665
   29loPI   C2A  456  14.443   2.623   9.117  0.1345 -0.0217 -0.4779
   29loPI   C3A  457  14.413   2.641   8.613 -0.0141  0.2325 -0.2409
   29loPI   C4A  458  14.519   2.490   8.229 -0.3262 -0.0270 -0.1071
   29loPI   C5A  459  14.467   2.412   7.806 -0.0365 -0.0476 -0.2038
   29loPI   C6A  460  14.814   2.363   7.539  0.2186  0.0179 -0.0888
   29loPI   C1B  461  14.090   2.595   9.629  0.1664 -0.0406 -0.0333
   29loPI   C2B  462  13.915   2.443   9.243 -0.0685  0.0386  0.1201
   29loPI   C3B  463  13.948   2.471   8.772  0.0611  0.2494 -0.1377
   29loPI   C4B  464  14.010   2.445   8.249 -0.0603  0.0468  0.0934
   30loPI    C1  465   8.876   8.994  10.512  0.2865 -0.1844  0.1348
   30loPI    C2  466   8.587   8.733  10.603  0.1288 -0.0205  0.1102
   30loPI    C3  467   8.743   8.966  10.888 -0.3503  0.4781 -0.0185
   30loPI   PO4  468   9.001   8.866  10.326 -0.1138  0.3632  0.0177
   30loPI   GL1  469   9.158   8.963   9.862  0.2359 -0.0844 -0.1843
   30loPI   GL2  470   8.811   9.063   9.705  0.3250 -0.2451 -0.2139
   30loPI   C1A  471   9.481   9.015   9.640  0.1547 -0.2007 -0.0211
   30loPI   C2A  472   9.855   9.132   9.508  0.4475  0.2393  0.1763
   30loPI   C3A  473   9.910   9.146   9.118  0.2443  0.1319  0.1252
   30loPI   C4A  474   9.927   9.301   8.719 -0.2354 -0.1271 -0.0592
   30loPI   C5A  475   9.866   9.552   8.411 -0.0457  0.0364 -0.1073
   30loPI   C6A  476   9.979   9.933   8.332 -0.1060 -0.2253 -0.0367
   30loPI   C1B  477   9.007   9.262   9.461 -0.0692  0.0128  0.5540
   30loPI   C2B  478   8.832   9.645   9.280 -0.1420 -0.0971  0.4536
   30loPI   C3B  479   8.698   9.811   8.870 -0.0222  0.0631 -0.2559
   30loPI   C4B  480   8.950   9.738   8.560 -0.1527 -0.1339  0.0301
   31loPI    C1  481  18.358  15.687  10.687 -0.1746  0.0666 -0.2011
   31loPI    C2  482  18.364  16.060  10.833  0.1391 -0.0733  0.1598
   31loPI    C3  483  18.357  15.747  11.083 -0.1859 -0.3130 -0.1398
   31loPI   PO4  484  18.431  15.710  10.363 -0.1657  0.2555  0.1079
   31loPI   GL1  485  18.148  15.642  10.086  0.0388  0.0472  0.4699
   31loPI   GL2  486  17.991  15.688  10.017 -0.0940  0.3570  0.0185
   31loPI   C1A  487  18.249  15.833   9.653 -0.3062  0.1737 -0.2645
   31loPI   C2A  488  18.222  15.872   9.264 -0.1274  0.1089  0.0074
   31loPI   C3A  489  18.110  15.958   8.886  0.0536  0.1169 -0.2752
   31loPI   C4A  490  18.101  16.055   8.470 -0.1201  0.1827  0.1200
   31loPI   C5A  491  18.120  15.987   8.002 -0.0077 -0.1797  0.2298
   31loPI   C6A  492  18.149  15.572   7.857  0.5368  0.1488 -0.1101
   31loPI   C1B  493  18.137  15.370   9.689 -0.0322 -0.1329 -0.3576
   31loPI   C2B  494  18.013  15.312   9.254  0.1483 -0.0827  0.0264
   31loPI   C3B  495  17.743  15.236   8.991  0.0100 -0.0119  0.3482
   31loPI   C4B  496  17.594  15.285   8.566 -0.0087  0.0398 -0.0324
   32loPI    C1  497   8.154   3.532  10.523 -0.0257 -0.1038 -0.0495
   32loPI    C2  498   8.125   3.188  10.725 -0.1290 -0.0183  0.0829
   32loPI    C3  499   8.257   3.518  10.909 -0.0577  0.0202 -0.0360
   32loPI   PO4  500   8.191   3.414  10.301  0.2500  0.2315 -0.0014
   32loPI   GL1  501   8.091   3.512   9.873 -0.0470 -0.0512 -0.0639
   32loPI   GL2  502   7.944   3.744   9.697  0.2287  0.0970 -0.0528
   32loPI   C1A  503   8.289   3.475   9.447  0.1049  0.3726  0.1098
   32loPI   C2A  504   8.307   3.383   9.023 -0.2013  0.1544  0.2455
   32loPI   C3A  505   8.181   3.301   8.652  0.0633 -0.0014 -0.2260
   32loPI   C4A  506   7.947   3.008   8.477  0.3480  0.3252  0.0243
   32loPI   C5A  507   7.676   2.987   8.189  0.0967  0.0238  0.2351
   32loPI   C6A  508   7.121   3.069   8.035 -0.2369 -0.0409 -0.1173
   32loPI   C1B  509   7.849   3.526   9.237 -0.1173 -0.2353 -0.0024
   32loPI   C2B  510   7.685   3.358   8.834 -0.1538 -0.0894 -0.1480
   32loPI   C3B  511   7.403   3.238   8.560 -0.1620 -0.0961 -0.2379
   32loPI   C4B  512   6.965   2.898   8.527 -0.1893  0.0207  0.3106
   33loPI    C1  513  18.071  12.727  10.471  0.0337  0.0144 -0.0178
   33loPI    C2  514  17.719  12.822  10.308 -0.0592 -0.0343  0.1527
   33loPI    C3  515  17.765  12.834  10.705  0.1644  0.0809  0.1246
   33loPI   PO4  516  18.283  12.917  10.216  0.1686 -0.0667 -0.0832
   33loPI   GL1  517  18.120  13.096   9.799 -0.1714 -0.1753 -0.1328
   33loPI   GL2  518  18.265  13.415   9.744  0.4366  0.0238  0.0892
   33loPI   C1A  519  17.964  13.087   9.439  0.2403 -0.1326  0.2283
   33loPI   C2A  520  17.874  13.235   9.001 -0.0633  0.1524 -0.0980
   33loPI   C3A  521  17.855  13.410   8.710 -0.2389 -0.0607  0.0426
   33loPI   C4A  522  17.743  13.572   8.282 -0.0963  0.2269  0.0238
   33loPI   C5A  523  17.833  13.365   7.936 -0.1642  0.1601  0.1470
   33loPI   C6A  524  17.693  12.963   7.937 -0.2495  0.2197 -0.1041
   33loPI   C1B  525  18.349  13.460   9.315  0.3490 -0.0784 -0.1784
   33loPI   C2B  526  18.260  13.558   8.909 -0.1592  0.0557 -0.1594
   33loPI   C3B  527  18.246  13.509   8.439  0.1548  0.1391 -0.0083
   33loPI   C4B  528  18.219  13.643   8.022  0.3112  0.2658 -0.0961
   34loPI    C1  529  10.459  17.230  10.649  0.0808  0.0197  0.0225
   34loPI    C2  530  10.484  17.073  11.016  0.1618  0.0576  0.0334
   34loPI    C3  531  10.216  17.360  10.939  0.2059  0.1132  0.0866
   34loPI   PO4  532  10.715  17.218  10.565  0.0039  0.1293  0.1466
   34loPI   GL1  533  10.801  17.285  10.142  0.2210  0.0681 -0.2838
   34loPI   GL2  534  10.917  17.148   9.876  0.1026  0.3134 -0.1940
   34loPI   C1A  535  10.675  17.567   9.790  0.0404  0.1553 -0.1717
   34loPI   C2A  536  10.540  17.600   9.325 -0.3570 -0.0575 -0.2561
   34loPI   C3A  537  10.128  17.732   9.162 -0.0986 -0.0916  0.0914
   34loPI   C4A  538   9.883  17.634   8.636  0.0360  0.0203 -0.2183
   34loPI   C5A  539   9.389  17.676   8.385  0.1996 -0.1345  0.0105
   34loPI   C6A  540   8.972  17.777   8.630 -0.0495 -0.0046 -0.2106
   34loPI   C1B  541  10.880  17.296   9.466 -0.0968 -0.0135  0.0670
   34loPI   C2B  542  11.107  17.341   9.054 -0.0977 -0.2080 -0.1329
   34loPI   C3B  543  11.123  17.297   8.651  0.1298  0.0866  0.0958
   34loPI   C4B  544  10.865  17.438   8.254  0.2840 -0.3350 -0.1890
   35loPI    C1  545   1.725   8.191  10.124 -0.0174  0.1430 -0.0969
   35loPI    C2  546   1.528   8.381  10.415  0.0555  0.2554 -0.1202
   35loPI    C3  547   1.326   8.211  10.115 -0.0358 -0.0768  0.1238
   35loPI   PO4  548   2.017   8.201  10.302  0.3994  0.0213  0.2255
   35loPI   GL1  549   2.207   8.303   9.939 -0.0739  0.3168 -0.2738
   35loPI   GL2  550   2.321   8.056   9.868  0.0116 -0.0645 -0.0686
   35loPI   C1A  551   2.231   8.409   9.471 -0.0397 -0.2073 -0.1176
   35loPI   C2A  552   2.202   8.401   9.050  0.1871  0.2407 -0.1743
   35loPI   C3A  553   2.142   8.260   8.641  0.1769  0.1580 -0.0332
   35loPI   C4A  554   2.430   8.080   8.397 -0.2001 -0.0762  0.3552
   35loPI   C5A  555   2.690   8.098   8.070 -0.0864  0.0267 -0.2804
   35loPI   C6A  556   2.946   7.957   7.718 -0.0588 -0.0141 -0.2207
   35loPI   C1B  557   2.203   7.936   9.470  0.0010 -0.4546  0.0716
   35loPI   C2B  558   2.112   7.920   9.078 -0.0052  0.1192  0.0020
   35loPI   C3B  559   1.773   8.084   8.912 -0.1258 -0.0506  0.2472
   35loPI   C4B  560   1.403   8.128   9.079  0.0999  0.0392 -0.1390
   36loPI    C1  561  13.334  10.593  10.894 -0.0192  0.3104  0.0490
   36loPI    C2  562  13.097  10.337  11.090 -0.1466  0.1015 -0.3654
   36loPI    C3  563  13.056  10.731  11.146 -0.1275  0.0460  0.0781
   36loPI   PO4  564  13.659  10.648  10.820 -0.2974 -0.2571 -0.2263
   36loPI   GL1  565  13.657  10.869  10.294  0.0637  0.2403 -0.1285
   36loPI   GL2  566  13.429  10.836  10.403 -0.1448  0.2314  0.2492
   36loPI   C1A  567  13.682  10.976   9.928  0.4692  0.0697  0.0661
   36loPI   C2A  568  13.535  10.738   9.559  0.0928 -0.2558 -0.4140
   36loPI   C3A  569  13.407  10.716   9.202  0.1093 -0.2029  0.0440
   36loPI   C4A  570  12.940  10.810   9.056 -0.1569 -0.0048  0.0676
   36loPI   C5A  571  12.702  11.060   8.865  0.4806 -0.0684 -0.1480
   36loPI   C6A  572  12.101  10.847   8.795 -0.2344 -0.1846  0.0640
   36loPI   C1B  573  13.360  10.590  10.033 -0.0278 -0.0355 -0.0337
   36loPI   C2B  574  13.009  10.895   9.670  0.3980 -0.2647  0.0245
   36loPI   C3B  575  12.686  11.106   9.383 -0.2113  0.0857  0.1006
   36loPI   C4B  576  12.220  10.901   9.355 -0.0022  0.0763 -0.3695
   37loPI    C1  577  14.919  10.588  10.672  0.3843 -0.2084  0.1673
   37loPI    C2  578  15.023  10.971  10.624  0.1440 -0.1627 -0.0091
   37loPI    C3  579  15.134  10.774  10.954  0.2108  0.0779  0.1150
   37loPI   PO4  580  14.629  10.630  10.559 -0.0305  0.3702 -0.0111
   37loPI   GL1  581  14.406  10.627  10.212 -0.1587 -0.1802 -0.0782
   37loPI   GL2  582  14.415  10.252  10.304 -0.2210  0.1200 -0.1114
   37loPI   C1A  583  14.100  10.675   9.934  0.1543 -0.1221 -0.2744
   37loPI   C2A  584  14.027  10.730   9.560 -0.3370 -0.2676  0.1638
   37loPI   C3A  585  13.889  10.619   9.208  0.0124 -0.0108 -0.1121
   37loPI   C4A  586  13.737  10.492   8.846 -0.0753 -0.0845 -0.0710
   37loPI   C5A  587  13.546  10.385   8.596 -0.3250 -0.0085  0.2834
   37loPI   C6A  588  13.608  10.338   8.157 -0.0923 -0.1745 -0.1340
   37loPI   C1B  589  14.123  10.159   9.953  0.0606  0.1001  0.0309
   37loPI   C2B  590  13.997   9.854   9.675 -0.0263 -0.0383  0.2761
   37loPI   C3B  591  13.942   9.723   9.314  0.0972  0.1194  0.0989
   37loPI   C4B  592  14.093   9.811   8.842 -0.1872  0.1550 -0.1624
   38loPI    C1  593   2.812   7.403  10.696  0.0847  0.0243 -0.0179
   38loPI    C2  594   3.075   7.219  10.935 -0.0632 -0.0980  0.0521
   38loPI    C3  595   2.798   7.463  11.091  0.1101  0.1602 -0.0370
   38loPI   PO4  596   2.767   7.301  10.432 -0.0553 -0.2284  0.0515
   38loPI   GL1  597   2.787   7.352   9.948 -0.2937  0.2035 -0.3950
   38loPI   GL2  598   2.666   7.097   9.832  0.0647 -0.0363 -0.1107
   38loPI   C1A  599   2.913   7.355   9.490 -0.5007 -0.2228  0.0364
   38loPI   C2A  600   2.893   7.319   9.007  0.0759 -0.0800 -0.2593
   38loPI   C3A  601   3.060   7.316   8.657 -0.0985 -0.0355 -0.2355
   38loPI   C4A  602   3.120   7.486   8.332 -0.0396 -0.2895  0.1084
   38loPI   C5A  603   3.353   7.707   8.076  0.1699  0.3270 -0.0592
   38loPI   C6A  604   3.645   8.064   8.073 -0.3512  0.1420  0.1554
   38loPI   C1B  605   2.541   7.002   9.357 -0.2547  0.0501  0.2733
   38loPI   C2B  606   2.544   6.904   9.014 -0.0793 -0.0739 -0.1413
   38loPI   C3B  607   2.392   6.900   8.675 -0.0883 -0.0514 -0.1608
   38loPI   C4B  608   2.170   7.282   8.628  0.0442  0.1524 -0.3101
   39loPI    C1  609   8.439  17.905  10.612  0.1502  0.1475  0.0491
   39loPI    C2  610   8.466  17.656  10.301  0.0625 -0.1609  0.2834
   39loPI    C3  611   8.795  17.833  10.444  0.0901  0.0593 -0.0414
   39loPI   PO4  612   8.212  18.011  10.564 -0.0457  0.0448 -0.1409
   39loPI   GL1  613   7.955  17.803  10.236 -0.5911 -0.2461 -0.2458
   39loPI   GL2  614   7.814  18.044  10.106 -0.4990  0.3479 -0.1284
   39loPI   C1A  615   8.181  17.647   9.902 -0.0972 -0.1558 -0.2542
   39loPI   C2A  616   8.222  17.809   9.493 -0.0371 -0.3321 -0.1461
   39loPI   C3A  617   8.178  17.689   9.064 -0.0832  0.0110 -0.0600
   39loPI   C4A  618   8.038  17.640   8.706  0.1942  0.2336  0.1925
   39loPI   C5A  619   7.727  17.537   8.374  0.1794 -0.2539  0.1592
   39loPI   C6A  620   7.365  17.665   8.119  0.0267  0.0483 -0.0012
   39loPI   C1B  621   7.778  17.782   9.677  0.1036 -0.1863 -0.2861
   39loPI   C2B  622   7.631  17.692   9.371 -0.2359 -0.0170  0.2077
   39loPI   C3B  623   7.364  17.873   9.100  0.2763  0.1370  0.0948
   39loPI   C4B  624   7.429  17.783   8.670 -0.0739  0.1393  0.0914
   40loPI    C1  625   4.961   3.294  10.203  0.0774 -0.3771 -0.1507
   40loPI    C2  626   4.946   3.477  10.558  0.1489 -0.1386 -0.2684
   40loPI    C3  627   5.273   3.273  10.452  0.1843 -0.0882 -0.2567
   40loPI   PO4  628   4.694   3.107  10.213 -0.2351  0.1179 -0.0939
   40loPI   GL1  629   4.423   2.835   9.844 -0.3578 -0.0856  0.1457
   40loPI   GL2  630   4.582   3.124   9.750 -0.0415 -0.1341  0.1363
   40loPI   C1A  631   4.017   2.985   9.699 -0.0890  0.1295 -0.0161
   40loPI   C2A  632   3.784   3.181   9.324 -0.0659  0.0809  0.0932
   40loPI   C3A  633   3.481   3.153   9.085  0.0452  0.1189 -0.1662
   40loPI   C4A  634   3.137   2.994   8.929  0.1381  0.0729  0.1655
   40loPI   C5A  635   2.774   3.037   8.636 -0.2072 -0.0385 -0.0041
   40loPI   C6A  636   2.645   2.905   8.225  0.0898 -0.4449  0.1126
   40loPI   C1B  637   4.462   3.012   9.339 -0.1545 -0.0956 -0.0776
   40loPI   C2B  638   4.583   2.851   8.907  0.0797  0.0497  0.0912
   40loPI   C3B  639   4.530   2.891   8.559  0.2395 -0.1154 -0.0773
   40loPI   C4B  640   4.222   2.805   8.191  0.0757 -0.0837 -0.0682
   41loPI    C1  641   7.203  16.746  11.009  0.0029 -0.1416  0.0239
   41loPI    C2  642   7.499  16.538  11.179 -0.2519 -0.1773  0.4385
   41loPI    C3  643   7.124  16.401  11.196 -0.2968 -0.1373 -0.0900
   41loPI   PO4  644   7.439  16.890  10.814  0.0059  0.0242  0.3734
   41loPI   GL1  645   7.504  16.749  10.412 -0.1006  0.1391 -0.1901
   41loPI   GL2  646   7.789  16.824  10.236  0.3627  0.1366  0.1647
   41loPI   C1A  647   7.333  16.936  10.117 -0.1787 -0.1459  0.0934
   41loPI   C2A  648   7.242  17.196   9.894  0.5120 -0.1897  0.0053
   41loPI   C3A  649   7.260  17.289   9.470 -0.1766  0.1088  0.0171
   41loPI   C4A  650   7.309  17.372   8.995  0.0041 -0.2627  0.1740
   41loPI   C5A  651   7.318  17.277   8.481 -0.0869  0.2865 -0.0473
   41loPI   C6A  652   7.291  16.857   8.327 -0.0513 -0.3239 -0.1289
   41loPI   C1B  653   7.617  16.707   9.789 -0.0224 -0.1308  0.0113
   41loPI   C2B  654   7.557  16.861   9.413 -0.0459  0.0502 -0.2923
   41loPI   C3B  655   7.457  16.903   8.936  0.0899 -0.2008  0.0999
   41loPI   C4B  656   7.817  17.035   8.531 -0.0986  0.1283 -0.1406
   42loPI    C1  657   1.271   2.735  10.296 -0.2052 -0.4212  0.0142
   42loPI    C2  658   1.043   2.925  10.564 -0.0013 -0.0031 -0.0984
   42loPI    C3  659   1.240   2.593  10.669 -0.2383 -0.0694  0.1503
   42loPI   PO4  660   1.353   2.921  10.038  0.1983  0.0027 -0.3715
   42loPI   GL1  661   1.078   3.005   9.597 -0.1010  0.2777 -0.0974
   42loPI   GL2  662   1.392   3.134   9.610 -0.2872 -0.4364 -0.0303
   42loPI   C1A  663   1.003   3.055   9.279  0.2485  0.0813 -0.0337
   42loPI   C2A  664   1.135   3.340   8.953  0.0430 -0.0206  0.2632
   42loPI   C3A  665   1.286   3.306   8.533  0.0380 -0.1572 -0.1407
   42loPI   C4A  666   1.265   3.325   8.105  0.0450 -0.4119 -0.0401
   42loPI   C5A  667   1.292   3.417   7.725  0.1994  0.4391 -0.0137
   42loPI   C6A  668   1.340   3.227   7.354  0.0951 -0.2168  0.1525
   42loPI   C1B  669   1.463   3.516   9.273 -0.0569  0.1262 -0.1801
   42loPI   C2B  670   1.561   3.602   8.851  0.2273 -0.2866 -0.0810
   42loPI   C3B  671   1.981   3.486   8.626  0.0138  0.2650 -0.1988
   42loPI   C4B  672   2.211   3.156   8.664  0.1456 -0.2260  0.0382
   43loPI    C1  673  15.933   8.060  10.709  0.0240 -0.2446 -0.0509
   43loPI    C2  674  15.651   8.321  10.823  0.1871 -0.1352  0.1087
   43loPI    C3  675  15.604   7.930  10.895 -0.0227 -0.1433 -0.0618
   43loPI   PO4  676  15.965   8.085  10.521 -0.0354 -0.1582  0.1634
   43loPI   GL1  677  15.895   8.142  10.032 -0.1909 -0.2954 -0.2025
   43loPI   GL2  678  15.676   8.001   9.843  0.0965  0.2848 -0.0686
   43loPI   C1A  679  16.129   8.206   9.688  0.2387  0.0393  0.2130
   43loPI   C2A  680  15.973   8.187   9.281 -0.0438  0.1854 -0.0996
   43loPI   C3A  681  15.896   8.254   8.837 -0.1033 -0.1173 -0.4660
   43loPI   C4A  682  15.685   8.064   8.487  0.1912  0.0064 -0.0230
   43loPI   C5A  683  15.237   7.929   8.545 -0.0783  0.0102  0.1114
   43loPI   C6A  684  14.831   7.784   8.445  0.0872 -0.0079  0.1335
   43loPI   C1B  685  15.440   8.031   9.530  0.3847 -0.0807  0.1202
   43loPI   C2B  686  15.105   8.286   9.242  0.2002  0.3259  0.1942
   43loPI   C3B  687  14.647   8.450   9.154 -0.1015  0.0213  0.1383
   43loPI   C4B  688  14.537   8.559   8.791  0.1623 -0.0047 -0.0222
   44loPI    C1  689  17.815   1.524  10.335  0.0791  0.1603  0.1957
   44loPI    C2  690  17.428   1.556  10.430  0.0079 -0.3638  0.1125
   44loPI    C3  691  17.636   1.234  10.544  0.4460 -0.0508  0.2264
   44loPI   PO4  692  17.755   1.678  10.081  0.1385  0.2544  0.1082
   44loPI   GL1  693  17.713   1.665   9.736 -0.0346 -0.0382 -0.3305
   44loPI   GL2  694  17.670   2.002   9.726 -0.1443 -0.2007 -0.0090
   44loPI   C1A  695  17.765   1.812   9.313 -0.1363 -0.1736 -0.0040
   44loPI   C2A  696  17.839   2.098   8.939  0.3531  0.0045  0.2757
   44loPI   C3A  697  17.592   2.225   8.471  0.1669  0.0605 -0.0407
   44loPI   C4A  698  17.393   2.466   8.229 -0.2374  0.1365 -0.1031
   44loPI   C5A  699  17.106   2.763   8.066 -0.2375 -0.0507 -0.4526
   44loPI   C6A  700  16.783   3.013   8.204 -0.0465  0.1028 -0.0376
   44loPI   C1B  701  17.542   2.289   9.349 -0.0652 -0.3103 -0.1968
   44loPI   C2B  702  17.457   2.454   9.023  0.1140 -0.0070  0.1534
   44loPI   C3B  703  17.296   2.616   8.689  0.2397 -0.2128  0.0974
   44loPI   C4B  704  17.188   2.920   8.537 -0.1066  0.1432 -0.1718
   45loPI    C1  705   3.839   3.290  10.790 -0.0101 -0.0779 -0.0204
   45loPI    C2  706   4.143   3.539  10.865 -0.1238  0.0652 -0.0303
   45loPI    C3  707   4.037   3.265  11.136  0.1541 -0.1324 -0.1171
   45loPI   PO4  708   3.933   3.307  10.503 -0.2162 -0.1906  0.0534
   45loPI   GL1  709   3.774   3.306  10.091 -0.0927  0.0003 -0.0660
   45loPI   GL2  710   3.740   3.030  10.086 -0.0831  0.0202 -0.1505
   45loPI   C1A  711   3.843   3.455   9.735 -0.1648  0.3876  0.0717
   45loPI   C2A  712   4.263   3.434   9.506  0.3429 -0.1221 -0.2079
   45loPI   C3A  713   4.275   3.391   9.066  0.0625  0.2544 -0.1454
   45loPI   C4A  714   4.283   3.461   8.598 -0.0113  0.1167  0.0107
   45loPI   C5A  715   4.050   3.348   8.253 -0.2035 -0.0075  0.0896
   45loPI   C6A  716   3.879   3.078   8.019  0.0779  0.1892 -0.1478
   45loPI   C1B  717   3.522   2.859   9.831  0.1996 -0.0325  0.2604
   45loPI   C2B  718   3.647   2.614   9.501  0.1230  0.0176 -0.2566
   45loPI   C3B  719   3.567   2.687   9.098 -0.0514  0.1550  0.1784
   45loPI   C4B  720   3.506   2.617   8.639 -0.2216 -0.0503 -0.1367
   46loPI    C1  721   9.196   1.683  10.817  0.0380  0.0909  0.0219
   46loPI    C2  722   9.478   1.417  10.915  0.1336  0.2109  0.0753
   46loPI    C3  723   9.433   1.750  11.132  0.0364  0.2542 -0.0107
   46loPI   PO4  724   9.168   1.599  10.594  0.2474  0.2049 -0.0828
   46loPI   GL1  725   9.083   1.794  10.295 -0.4347  0.0002 -0.0407
   46loPI   GL2  726   8.782   1.712  10.127 -0.2930  0.0331 -0.0908
   46loPI   C1A  727   9.117   1.350  10.047 -0.0384  0.1969 -0.2594
   46loPI   C2A  728   8.967   1.207   9.631  0.1903  0.1300  0.0773
   46loPI   C3A  729   9.109   1.152   9.151 -0.2623 -0.1879  0.1311
   46loPI   C4A  730   8.990   1.008   8.706  0.2373 -0.1228  0.3311
   46loPI   C5A  731   8.925   1.213   8.354  0.0990 -0.1418 -0.0189
   46loPI   C6A  732   9.174   1.325   8.041  0.1634 -0.2496 -0.1494
   46loPI   C1B  733   8.909   1.863   9.754  0.5263  0.1581 -0.0699
   46loPI   C2B  734   9.034   2.006   9.452 -0.2936  0.2703  0.0170
   46loPI   C3B  735   9.319   2.096   9.117 -0.1548  0.1444  0.1301
   46loPI   C4B  736   9.475   1.983   8.730 -0.0159  0.0049 -0.1111
   47loPI    C1  737   2.510   2.073  10.677  0.0364 -0.0039  0.1749
   47loPI    C2  738   2.249   1.931  10.944 -0.0685  0.1052  0.1315
   47loPI    C3  739   2.318   2.324  10.923  0.0792  0.0794  0.1238
   47loPI   PO4  740   2.416   2.077  10.466  0.2499 -0.0409 -0.0803
   47loPI   GL1  741   2.517   1.732  10.093  0.0997 -0.0981 -0.1977
   47loPI   GL2  742   2.797   1.551  10.067  0.1636 -0.0101  0.0117
   47loPI   C1A  743   2.681   1.857   9.698 -0.0526 -0.2844 -0.2912
   47loPI   C2A  744   2.948   2.098   9.293  0.2218  0.1051 -0.0339
   47loPI   C3A  745   2.958   2.324   8.915 -0.0875 -0.1989 -0.4743
   47loPI   C4A  746   2.996   2.579   8.558 -0.0007 -0.0448  0.0998
   47loPI   C5A  747   2.990   2.542   8.110  0.3794  0.1775 -0.0010
   47loPI   C6A  748   3.135   2.420   7.717  0.0850  0.0284 -0.3997
   47loPI   C1B  749   3.163   1.621   9.803  0.0899  0.0302  0.0254
   47loPI   C2B  750   3.427   1.788   9.399 -0.5238 -0.0793 -0.3055
   47loPI   C3B  751   3.403   2.137   9.142 -0.2862 -0.1555  0.0217
   47loPI   C4B  752   3.336   2.133   8.666  0.1367 -0.1164 -0.0239
   48loPI    C1  753  13.952   9.231  10.716 -0.2128  0.1063  0.0442
   48loPI    C2  754  14.066   8.853  10.653 -0.0475  0.1045  0.3383
   48loPI    C3  755  13.678   8.942  10.685 -0.0994 -0.0004  0.0274
   48loPI   PO4  756  14.040   9.366  10.433  0.1925  0.1368 -0.2566
   48loPI   GL1  757  14.165   9.139  10.019 -0.1122  0.0701 -0.1013
   48loPI   GL2  758  13.842   8.957  10.198  0.2170  0.0606 -0.0448
   48loPI   C1A  759  14.199   8.849   9.680 -0.0125  0.0282  0.0422
   48loPI   C2A  760  14.379   8.827   9.213  0.1217  0.1270 -0.3002
   48loPI   C3A  761  14.122   8.876   8.800 -0.0378 -0.1179  0.1548
   48loPI   C4A  762  14.076   9.018   8.449 -0.0147 -0.2095  0.0210
   48loPI   C5A  763  13.706   9.158   8.239 -0.2620 -0.0244 -0.0825
   48loPI   C6A  764  13.321   9.141   8.096 -0.4114  0.0593 -0.2885
   48loPI   C1B  765  13.734   8.941   9.745 -0.3755 -0.0479  0.0450
   48loPI   C2B  766  13.831   8.748   9.416  0.1950 -0.1160 -0.5847
   48loPI   C3B  767  13.690   8.914   9.068  0.1091 -0.1540  0.2734
   48loPI   C4B  768  13.692   8.781   8.600  0.1304  0.0464 -0.0089
   49loPI    C1  769  11.632   8.019  10.747  0.2172  0.0348  0.0211
   49loPI    C2  770  11.644   7.750  11.043 -0.0250  0.0039  0.0055
   49loPI    C3  771  11.485   8.111  11.107 -0.2488 -0.0676 -0.1358
   49loPI   PO4  772  11.453   7.810  10.445  0.0141 -0.0907  0.1891
   49loPI   GL1  773  11.435   7.623  10.065 -0.1667 -0.1443  0.1029
   49loPI   GL2  774  11.156   7.604  10.004 -0.0073 -0.1868 -0.0612
   49loPI   C1A  775  11.773   7.785   9.874 -0.0664  0.4112  0.1936
   49loPI   C2A  776  11.939   7.806   9.531 -0.4408 -0.0702  0.0030
   49loPI   C3A  777  12.054   7.819   9.265 -0.0774 -0.2649  0.3579
   49loPI   C4A  778  12.212   7.839   8.962 -0.0724  0.1279  0.1260
   49loPI   C5A  779  12.113   7.781   8.608  0.0236  0.3343 -0.0271
   49loPI   C6A  780  11.928   7.935   8.251  0.3288  0.1384  0.0698
   49loPI   C1B  781  11.279   7.589   9.551 -0.0712 -0.0508 -0.2456
   49loPI   C2B  782  11.467   7.702   9.224 -0.0059  0.1993  0.0462
   49loPI   C3B  783  11.611   7.683   8.973  0.0920 -0.1400 -0.1325
   49loPI   C4B  784  11.666   7.612   8.527 -0.1729 -0.1938 -0.2510
   50loPI    C1  785  17.066   9.188  10.362  0.0805  0.1990  0.0056
   50loPI    C2  786  17.309   9.017  10.630  0.0990  0.1055 -0.0700
   50loPI    C3  787  17.013   8.805  10.464  0.1275  0.1442 -0.1714
   50loPI   PO4  788  17.165   9.343  10.176 -0.2916  0.2712  0.1083
   50loPI   GL1  789  17.010   9.370   9.763 -0.0739 -0.0697  0.0399
   50loPI   GL2  790  16.935   9.051   9.551 -0.0514  0.1639 -0.0160
   50loPI   C1A  791  16.941   9.621   9.522  0.4474  0.3824  0.2862
   50loPI   C2A  792  16.930   9.873   9.191 -0.1123 -0.0356  0.0487
   50loPI   C3A  793  17.133   9.919   8.768 -0.5124  0.3555  0.2234
   50loPI   C4A  794  17.413  10.091   8.497  0.4286  0.0151  0.0646
   50loPI   C5A  795  17.495  10.471   8.295  0.1226  0.2651 -0.0908
   50loPI   C6A  796  17.634  10.591   7.990  0.1082  0.0233 -0.1032
   50loPI   C1B  797  16.796   9.169   9.192  0.3467  0.0983 -0.1647
   50loPI   C2B  798  16.472   9.031   9.096 -0.1532 -0.1847 -0.1977
   50loPI   C3B  799  16.201   8.828   8.829  0.0354 -0.1431  0.1096
   50loPI   C4B  800  15.891   8.676   8.548  0.2059 -0.3535 -0.0737
   51loPI    C1  801   9.799  15.090  10.493 -0.2018  0.1827  0.0054
   51loPI    C2  802   9.583  14.983  10.173 -0.1644 -0.1238  0.0790
   51loPI    C3  803   9.424  15.224  10.451 -0.2836 -0.0569 -0.0462
   51loPI   PO4  804  10.054  14.952  10.416 -0.0463  0.1738 -0.1456
   51loPI   GL1  805  10.125  14.997   9.977 -0.2794  0.4969  0.0361
   51loPI   GL2  806  10.227  14.715   9.990  0.1450 -0.3205 -0.3403
   51loPI   C1A  807  10.276  14.965   9.540 -0.1414 -0.0173  0.1188
   51loPI   C2A  808  10.189  14.746   9.087  0.0254 -0.2390  0.0452
   51loPI   C3A  809   9.972  14.892   8.677 -0.1172  0.1658  0.1898
   51loPI   C4A  810  10.192  14.907   8.259 -0.1643  0.0115  0.0204
   51loPI   C5A  811  10.356  14.616   8.061  0.0313 -0.1191 -0.1285
   51loPI   C6A  812  10.487  14.583   7.650 -0.0138 -0.2373 -0.0180
   51loPI   C1B  813  10.711  14.576  10.020  0.0432 -0.0411 -0.0531
   51loPI   C2B  814  11.075  14.511   9.744 -0.0228  0.1185  0.0017
   51loPI   C3B  815  11.206  14.290   9.430  0.1903  0.1729 -0.0781
   51loPI   C4B  816  11.067  14.253   9.022  0.1512  0.1711 -0.0838
   52loPI    C1  817  15.676   1.001  10.499  0.1295 -0.3154  0.1439
   52loPI    C2  818  16.021   1.186  10.416 -0.1372  0.1352 -0.0004
   52loPI    C3  819  16.012   0.887  10.682  0.3512  0.1537  0.0445
   52loPI   PO4  820  15.517   1.025  10.286 -0.2420 -0.1654  0.1819
   52loPI   GL1  821  15.534   0.841   9.827  0.2951  0.2090  0.2031
   52loPI   GL2  822  15.380   0.523   9.955 -0.0293  0.0624  0.0112
   52loPI   C1A  823  15.629   0.930   9.433 -0.0561 -0.0047 -0.0430
   52loPI   C2A  824  15.503   1.045   8.959  0.1594  0.3538 -0.0505
   52loPI   C3A  825  15.298   0.991   8.522  0.1419  0.1745  0.1414
   52loPI   C4A  826  15.218   1.200   8.191  0.0834 -0.1466 -0.2081
   52loPI   C5A  827  15.360   1.344   7.772 -0.1131  0.1880 -0.0395
   52loPI   C6A  828  15.462   1.310   7.281 -0.1163  0.1770 -0.2650
   52loPI   C1B  829  15.261   0.518   9.550  0.2769  0.0739 -0.1636
   52loPI   C2B  830  15.369   0.575   9.100  0.3428  0.1014 -0.0065
   52loPI   C3B  831  15.398   0.509   8.654  0.0835  0.0724  0.1845
   52loPI   C4B  832  15.694   0.495   8.230 -0.2154 -0.3352  0.0162
   53loPI    C1  833  11.173  17.293  10.684  0.1286 -0.0497 -0.0042
   53loPI    C2  834  11.294  17.385  11.054  0.1207 -0.0502 -0.0015
   53loPI    C3  835  11.011  17.107  11.000 -0.2833  0.3427  0.0266
   53loPI   PO4  836  11.363  17.246  10.478 -0.1658  0.0269  0.2369
   53loPI   GL1  837  11.373  17.079  10.068  0.1378  0.2505 -0.1027
   53loPI   GL2  838  11.408  16.811  10.087  0.2001 -0.0200  0.3453
   53loPI   C1A  839  11.386  17.254   9.614 -0.0269 -0.0768 -0.1860
   53loPI   C2A  840  11.573  17.097   9.164 -0.1040 -0.2670 -0.0569
   53loPI   C3A  841  11.655  17.130   8.716  0.1322  0.2290 -0.1505
   53loPI   C4A  842  11.943  16.957   8.513 -0.1627 -0.0645  0.1354
   53loPI   C5A  843  12.193  16.815   8.211 -0.1462 -0.1154  0.0807
   53loPI   C6A  844  12.339  16.650   7.875  0.0441  0.1163 -0.0950
   53loPI   C1B  845  11.207  16.761   9.670  0.0012 -0.0182 -0.0842
   53loPI   C2B  846  11.087  16.874   9.208 -0.2986 -0.1239  0.2027
   53loPI   C3B  847  10.784  16.969   8.956 -0.1499 -0.1536 -0.1066
   53loPI   C4B  848  10.621  17.054   8.539  0.2509  0.1580 -0.3342
   54loPI    C1  849   0.914   1.696  10.003  0.0557  0.1057  0.0769
   54loPI    C2  850   1.110   1.749  10.347 -0.1684  0.0557  0.2144
   54loPI    C3  851   0.763   1.938  10.284 -0.1422  0.0426  0.0264
   54loPI   PO4  852   0.964   1.491   9.950  0.1118  0.1469 -0.0402
   54loPI   GL1  853   1.200   1.194   9.695 -0.0054 -0.1484 -0.3032
   54loPI   GL2  854   1.347   0.862   9.604 -0.2375 -0.0771  0.1615
   54loPI   C1A  855   0.944   1.126   9.355  0.1010 -0.4293 -0.0066
   54loPI   C2A  856   0.914   1.093   8.855 -0.2152  0.1392  0.0308
   54loPI   C3A  857   1.230   1.014   8.438 -0.2066  0.3347  0.0053
   54loPI   C4A  858   1.553   1.169   8.065 -0.2737  0.0930 -0.1058
   54loPI   C5A  859   1.717   1.042   7.686  0.1743  0.2159  0.0021
   54loPI   C6A  860   1.966   0.982   7.330 -0.3281 -0.0231 -0.0286
   54loPI   C1B  861   1.552   0.587   9.319 -0.1928  0.1387 -0.2053
   54loPI   C2B  862   1.848   0.259   9.360 -0.1545  0.2207  0.2036
   54loPI   C3B  863   2.006   0.002   8.889 -0.1202 -0.1615 -0.5730
   54loPI   C4B  864   2.183   0.104   8.555 -0.5350  0.0052  0.1709
   55loPI    C1  865  14.498   7.192  10.544  0.1126  0.2411 -0.0190
   55loPI    C2  866  14.575   7.178  10.936  0.1189 -0.2226 -0.0310
   55loPI    C3  867  14.420   6.859  10.751  0.2520 -0.0595 -0.4358
   55loPI   PO4  868  14.634   7.232  10.441  0.2560 -0.0692 -0.0691
   55loPI   GL1  869  14.661   7.383  10.079  0.0027  0.4382  0.1964
   55loPI   GL2  870  14.421   7.675  10.004  0.0109 -0.1466 -0.0300
   55loPI   C1A  871  14.804   7.408   9.634 -0.1271  0.2393 -0.3111
   55loPI   C2A  872  15.120   7.170   9.413 -0.1949 -0.0565  0.1070
   55loPI   C3A  873  15.162   7.178   9.106  0.0481 -0.0129 -0.0645
   55loPI   C4A  874  15.214   6.934   8.742 -0.0052  0.3268 -0.1715
   55loPI   C5A  875  15.201   6.622   8.541 -0.3546  0.4004  0.1123
   55loPI   C6A  876  14.838   6.444   8.238  0.1508 -0.2652  0.0263
   55loPI   C1B  877  14.366   7.654   9.559 -0.1824  0.0000 -0.2444
   55loPI   C2B  878  14.627   7.524   9.194  0.2291  0.1234 -0.3573
   55loPI   C3B  879  14.742   7.388   8.850  0.1554 -0.2214  0.4020
   55loPI   C4B  880  14.658   7.311   8.439  0.0550  0.0123  0.0347
   56loPI    C1  881   0.820   5.566  10.170  0.2922 -0.2361 -0.1920
   56loPI    C2  882   1.010   5.821  10.411  0.0989 -0.1544 -0.1239
   56loPI    C3  883   0.763   5.548  10.565 -0.3125  0.1373 -0.2497
   56loPI   PO4  884   0.994   5.553   9.965 -0.2054 -0.2414 -0.3134
   56loPI   GL1  885   0.904   5.509   9.600  0.3657 -0.2252 -0.1662
   56loPI   GL2  886   0.623   5.640   9.598  0.1962  0.0258  0.2128
   56loPI   C1A  887   0.934   5.312   9.239  0.2956 -0.1237 -0.1724
   56loPI   C2A  888   0.881   5.377   8.802  0.2929  0.0370  0.0385
   56loPI   C3A  889   0.703   5.466   8.423 -0.2923  0.1518 -0.0017
   56loPI   C4A  890   0.344   5.571   8.264  0.4262  0.1020 -0.0439
   56loPI   C5A  891   0.098   5.337   7.957 -0.1913 -0.0895  0.4186
   56loPI   C6A  892  -0.167   4.990   7.930 -0.1124  0.2125  0.1119
   56loPI   C1B  893   0.453   5.377   9.324  0.0175 -0.2669  0.1236
   56loPI   C2B  894   0.540   5.034   9.001  0.0905  0.0142  0.2206
   56loPI   C3B  895   0.651   4.783   8.638  0.0291 -0.0507  0.0340
   56loPI   C4B  896   0.663   4.545   8.291  0.2118 -0.2612  0.0359
   57loPI    C1  897   3.668   1.523  10.709  0.1460  0.0806  0.0707
   57loPI    C2  898   4.024   1.490  10.888  0.1643  0.1750  0.0523
   57loPI    C3  899   3.718   1.263  11.009  0.2632  0.0050 -0.0131
   57loPI   PO4  900   3.786   1.532  10.398  0.2022  0.0378  0.1036
   57loPI   GL1  901   3.919   1.367   9.992  0.0052 -0.0054  0.1481
   57loPI   GL2  902   3.790   1.015  10.092  0.0108 -0.1623  0.0189
   57loPI   C1A  903   4.141   1.239   9.606 -0.0228 -0.3377 -0.2577
   57loPI   C2A  904   4.149   1.330   9.136  0.0643  0.0618  0.2430
   57loPI   C3A  905   4.126   1.418   8.729  0.2882  0.1421  0.1701
   57loPI   C4A  906   3.885   1.446   8.342  0.2107  0.2474  0.2035
   57loPI   C5A  907   3.897   1.547   7.959 -0.2821  0.2791 -0.3926
   57loPI   C6A  908   3.817   1.635   7.538  0.0093  0.0312 -0.0699
   57loPI   C1B  909   3.601   0.619   9.850  0.0191  0.1800  0.2537
   57loPI   C2B  910   3.612   0.602   9.465 -0.0540 -0.2670  0.1697
   57loPI   C3B  911   3.579   0.611   9.063 -0.0354  0.2288  0.0514
   57loPI   C4B  912   3.441   0.782   8.616  0.1058  0.0515 -0.1184
   58loPI    C1  913   9.976   7.441  10.563 -0.0218  0.1638 -0.0718
   58loPI    C2  914   9.689   7.173  10.638  0.1156 -0.0348 -0.2438
   58loPI    C3  915   9.937   7.286  10.930 -0.0307  0.0120 -0.1359
   58loPI   PO4  916   9.880   7.677  10.465 -0.2596 -0.1944  0.0293
   58loPI   GL1  917   9.647   7.950  10.127 -0.1206  0.0002 -0.1600
   58loPI   GL2  918   9.627   8.186  10.066 -0.0452  0.2769 -0.2547
   58loPI   C1A  919   9.923   7.994   9.734 -0.0103 -0.0701 -0.0865
   58loPI   C2A  920   9.993   7.874   9.335 -0.1704  0.0980  0.0278
   58loPI   C3A  921   9.988   7.974   8.899 -0.2150 -0.2008 -0.2568
   58loPI   C4A  922  10.246   8.090   8.586  0.0398  0.3602 -0.1430
   58loPI   C5A  923  10.500   7.943   8.151  0.2824 -0.2068 -0.3939
   58loPI   C6A  924  10.793   7.738   7.839 -0.2212  0.0792  0.0411
   58loPI   C1B  925   9.534   8.348   9.664 -0.1287 -0.1955 -0.0607
   58loPI   C2B  926   9.565   8.254   9.191  0.1830 -0.1533  0.1838
   58loPI   C3B  927   9.479   8.070   8.783  0.1671  0.0746  0.4105
   58loPI   C4B  928   9.420   8.036   8.350 -0.1375 -0.0721  0.0876
   59loPI    C1  929   2.475  12.769  10.339 -0.3368  0.3563 -0.0395
   59loPI    C2  930   2.572  12.690  10.719 -0.2970  0.4337 -0.0333
   59loPI    C3  931   2.199  12.800  10.626 -0.3617  0.2089 -0.0466
   59loPI   PO4  932   2.643  12.598  10.203 -0.2998  0.1884 -0.1250
   59loPI   GL1  933   2.539  12.252   9.947  0.0647  0.1396  0.3860
   59loPI   GL2  934   2.603  11.937  10.040  0.1518  0.1224  0.1636
   59loPI   C1A  935   2.590  12.392   9.528 -0.1917 -0.0326  0.1776
   59loPI   C2A  936   2.691  12.412   9.059  0.1828  0.0776 -0.2223
   59loPI   C3A  937   2.677  12.384   8.667  0.1440 -0.0167 -0.0285
   59loPI   C4A  938   2.460  12.262   8.302 -0.0397 -0.1249 -0.1321
   59loPI   C5A  939   2.534  12.014   8.005 -0.2532  0.0458 -0.0228
   59loPI   C6A  940   2.808  11.693   8.033  0.0022  0.0428  0.0786
   59loPI   C1B  941   2.353  11.964   9.635  0.0331 -0.3732  0.0493
   59loPI   C2B  942   2.337  12.005   9.183 -0.1917 -0.0199  0.1732
   59loPI   C3B  943   2.508  11.969   8.786 -0.0808 -0.3124  0.0801
   59loPI   C4B  944   2.631  11.825   8.467 -0.0084  0.3008 -0.1497
   60loPI    C1  945  17.227  13.026  10.986  0.0483  0.1071 -0.3550
   60loPI    C2  946  17.583  12.992  11.166  0.0252  0.1999 -0.2912
   60loPI    C3  947  17.247  12.960  11.380 -0.0060  0.0539 -0.3610
   60loPI   PO4  948  17.283  12.913  10.721  0.2675  0.2149 -0.1890
   60loPI   GL1  949  17.075  12.950  10.343 -0.0101  0.1281  0.0460
   60loPI   GL2  950  17.201  12.670  10.220  0.2741  0.0781 -0.1725
   60loPI   C1A  951  16.922  13.317   9.949 -0.1158 -0.3290 -0.0934
   60loPI   C2A  952  16.850  13.352   9.557  0.4446  0.1889  0.1428
   60loPI   C3A  953  17.011  13.547   9.134 -0.3215  0.2138 -0.1226
   60loPI   C4A  954  16.828  13.575   8.734  0.1510  0.0227 -0.0106
   60loPI   C5A  955  16.612  13.162   8.383 -0.0657 -0.1525 -0.1329
   60loPI   C6A  956  16.456  12.826   8.110 -0.0850 -0.0511  0.0165
   60loPI   C1B  957  16.941  12.817   9.888 -0.2049  0.0420 -0.0780
   60loPI   C2B  958  16.752  12.878   9.517  0.1426 -0.1483  0.2536
   60loPI   C3B  959  16.808  13.001   8.990  0.0496 -0.0138 -0.2216
   60loPI   C4B  960  17.118  12.968   8.668 -0.1102 -0.0786 -0.3452
   61loPI    C1  961   7.272  15.930  10.544  0.0641  0.0715 -0.1373
   61loPI    C2  962   7.342  16.132  10.882 -0.0471  0.2798 -0.2371
   61loPI    C3  963   6.972  16.004  10.798  0.0413 -0.0576 -0.1260
   61loPI   PO4  964   7.431  16.084  10.287  0.1264 -0.0674  0.0933
   61loPI   GL1  965   7.499  16.273  10.020  0.2592 -0.0547 -0.0222
   61loPI   GL2  966   7.192  16.483  10.054  0.1018  0.1438 -0.0335
   61loPI   C1A  967   7.679  16.234   9.623  0.1102  0.0819 -0.0498
   61loPI   C2A  968   7.762  16.008   9.296 -0.0614 -0.1649 -0.2627
   61loPI   C3A  969   7.628  15.932   8.808 -0.1969 -0.0117  0.2372
   61loPI   C4A  970   7.275  16.035   8.571 -0.0110 -0.0124 -0.0252
   61loPI   C5A  971   7.158  16.310   8.292 -0.1934 -0.0732  0.0748
   61loPI   C6A  972   7.153  16.468   7.871  0.2296 -0.0884  0.0955
   61loPI   C1B  973   7.139  16.587   9.622  0.0825  0.2241  0.2615
   61loPI   C2B  974   7.034  16.710   9.237  0.2187 -0.1412 -0.0239
   61loPI   C3B  975   6.872  16.773   8.739 -0.2905  0.0372 -0.0030
   61loPI   C4B  976   6.728  16.705   8.386 -0.0049  0.3686  0.0250
   62loPI    C1  977   3.019  12.789  10.491 -0.0448 -0.2048  0.0620
   62loPI    C2  978   3.215  12.584  10.773  0.0181 -0.0954  0.0985
   62loPI    C3  979   3.059  12.942  10.858  0.1070 -0.0257 -0.0274
   62loPI   PO4  980   3.179  12.720  10.228  0.0898 -0.0788  0.0353
   62loPI   GL1  981   3.202  12.511   9.907  0.1346 -0.0614 -0.0208
   62loPI   GL2  982   3.038  12.254   9.872 -0.1233  0.1661 -0.4258
   62loPI   C1A  983   3.425  12.540   9.668 -0.4686 -0.1332 -0.0946
   62loPI   C2A  984   3.461  12.555   9.272 -0.1834  0.2225 -0.1424
   62loPI   C3A  985   3.622  12.535   8.817  0.0061 -0.1159 -0.0445
   62loPI   C4A  986   3.399  12.462   8.477  0.1390 -0.3161  0.0948
   62loPI   C5A  987   3.524  12.407   8.136  0.1793 -0.1408  0.3166
   62loPI   C6A  988   3.687  12.190   7.790 -0.0536 -0.0975  0.2280
   62loPI   C1B  989   3.082  12.203   9.428  0.1397  0.1482  0.0252
   62loPI   C2B  990   3.245  12.188   9.014  0.1047 -0.2999 -0.1804
   62loPI   C3B  991   3.099  12.050   8.624 -0.0264  0.1503  0.0102
   62loPI   C4B  992   3.039  12.067   8.230  0.0415 -0.0782 -0.1768
   63loPI    C1  993   5.361  17.795  10.309 -0.2953  0.0054 -0.1766
   63loPI    C2  994   5.267  17.902  10.682  0.0241  0.0410 -0.1037
   63loPI    C3  995   5.252  17.517  10.575 -0.0245  0.0258 -0.0423
   63loPI   PO4  996   5.343  17.999  10.181 -0.1325 -0.0210 -0.0032
   63loPI   GL1  997   5.318  18.184   9.776 -0.0636 -0.0152 -0.2420
   63loPI   GL2  998   5.042  18.302   9.635  0.1212  0.2420 -0.0437
   63loPI   C1A  999   5.432  18.608   9.469  0.0782 -0.0563 -0.0268
   63loPI   C2A 1000   5.414  18.686   9.077 -0.0807  0.3208  0.3482
   63loPI   C3A 1001   5.532  18.569   8.713  0.4208 -0.0447  0.0872
   63loPI   C4A 1002   5.596  18.370   8.299 -0.1548  0.0237  0.2105
   63loPI   C5A 1003   5.531  18.028   8.123 -0.1276  0.0746  0.1187
   63loPI   C6A 1004   5.329  17.806   7.802  0.4491  0.3822  0.1318
   63loPI   C1B 1005   5.002  18.380   9.228  0.0365 -0.3715  0.0412
   63loPI   C2B 1006   4.944  18.544   8.929 -0.0880  0.0964 -0.0560
   63loPI   C3B 1007   4.820  18.697   8.540  0.2196  0.2132  0.1756
   63loPI   C4B 1008   4.611  18.478   8.142  0.1852 -0.1712 -0.0159
   64loPI    C1 1009   2.199  13.259  10.372 -0.0878 -0.0055  0.3273
   64loPI    C2 1010   2.189  13.644  10.483 -0.0766  0.0195  0.2423
   64loPI    C3 1011   1.855  13.462  10.358 -0.0172  0.0963 -0.0346
   64loPI   PO4 1012   2.362  13.224  10.155 -0.2004 -0.1937 -0.1706
   64loPI   GL1 1013   2.352  13.093   9.796  0.3492  0.2086  0.2205
   64loPI   GL2 1014   2.297  12.781   9.753 -0.1204 -0.1424  0.0463
   64loPI   C1A 1015   2.233  13.354   9.443  0.2582  0.1030 -0.0836
   64loPI   C2A 1016   2.333  13.268   9.084  0.1138  0.2353  0.1660
   64loPI   C3A 1017   2.225  13.167   8.635  0.0660 -0.0195  0.0159
   64loPI   C4A 1018   2.406  13.207   8.121 -0.0983  0.2868  0.0022
   64loPI   C5A 1019   2.763  13.530   7.983  0.0620  0.3782 -0.0234
   64loPI   C6A 1020   2.913  13.719   7.667  0.0087  0.2298 -0.1873
   64loPI   C1B 1021   2.441  12.837   9.365 -0.2685  0.1051 -0.0623
   64loPI   C2B 1022   2.521  12.862   8.889  0.0960  0.0850 -0.3004
   64loPI   C3B 1023   2.665  12.871   8.581 -0.1802 -0.1436  0.3571
   64loPI   C4B 1024   2.987  12.557   8.271  0.0251 -0.1256  0.2610
   65loPI    C1 1025  10.995   3.461  10.081 -0.1097  0.0681  0.0816
   65loPI    C2 1026  10.675   3.381  10.307 -0.0695 -0.1942  0.0494
   65loPI    C3 1027  10.971   3.114  10.279  0.0644 -0.0346 -0.0738
   65loPI   PO4 1028  10.904   3.673   9.951  0.0649  0.2284  0.1732
   65loPI   GL1 1029  10.950   3.823   9.605 -0.2485  0.2350  0.5824
   65loPI   GL2 1030  10.840   3.414   9.524  0.0335  0.0036  0.1002
   65loPI   C1A 1031  11.022   3.820   9.149  0.3112 -0.0476 -0.0875
   65loPI   C2A 1032  10.947   3.777   8.830  0.2973  0.2641  0.2552
   65loPI   C3A 1033  11.026   3.531   8.436  0.0562  0.0212 -0.7106
   65loPI   C4A 1034  11.062   3.547   8.067 -0.0947  0.2950 -0.0075
   65loPI   C5A 1035  11.372   3.619   7.655 -0.1828 -0.0918 -0.0546
   65loPI   C6A 1036  11.736   3.644   7.331 -0.0504  0.2908 -0.0048
   65loPI   C1B 1037  10.895   3.299   9.101  0.4498 -0.0533 -0.0762
   65loPI   C2B 1038  10.945   3.033   8.710 -0.3650 -0.3256 -0.3284
   65loPI   C3B 1039  10.811   3.032   8.348 -0.0940 -0.0333 -0.1768
   65loPI   C4B 1040  10.684   2.778   8.013 -0.1484  0.1118  0.2579
   66loPI    C1 1041   0.141  14.568  10.605 -0.2204  0.0417  0.0217
   66loPI    C2 1042   0.055  14.841  10.883  0.3790  0.3661 -0.0939
   66loPI    C3 1043   0.366  14.595  10.934  0.1198  0.0076 -0.2022
   66loPI   PO4 1044   0.089  14.751  10.340 -0.0124 -0.0097 -0.0906
   66loPI   GL1 1045   0.250  14.653   9.897 -0.1611 -0.1327 -0.4888
   66loPI   GL2 1046   0.472  14.786   9.593 -0.3012 -0.1302 -0.0100
   66loPI   C1A 1047  -0.018  14.944   9.558 -0.0398  0.0636  0.0832
   66loPI   C2A 1048   0.003  14.963   9.189  0.2490 -0.1748 -0.0115
   66loPI   C3A 1049  -0.201  14.932   8.808  0.0662 -0.2208 -0.0542
   66loPI   C4A 1050  -0.372  14.706   8.328 -0.0778 -0.2363 -0.1009
   66loPI   C5A 1051  -0.321  14.572   7.928 -0.0713  0.0686  0.2382
   66loPI   C6A 1052  -0.527  14.322   7.499  0.1313 -0.0596 -0.2219
   66loPI   C1B 1053   0.451  14.969   9.279 -0.2274  0.2951 -0.1596
   66loPI   C2B 1054   0.294  15.147   8.798  0.2566 -0.3649  0.0749
   66loPI   C3B 1055   0.120  15.150   8.355 -0.3751  0.0180  0.1363
   66loPI   C4B 1056   0.191  15.198   7.947  0.0177 -0.0336 -0.0814
   67loPI    C1 1057   2.710  10.300  10.516 -0.1166 -0.0224 -0.1548
   67loPI    C2 1058   2.597  10.174  10.878 -0.0488  0.0115 -0.1218
   67loPI    C3 1059   2.521  10.550  10.765 -0.1921 -0.0387 -0.1951
   67loPI   PO4 1060   2.543  10.078  10.331 -0.4171  0.1494  0.2485
   67loPI   GL1 1061   2.666   9.708  10.159  0.1307  0.1193 -0.2284
   67loPI   GL2 1062   2.517   9.402  10.196  0.1233 -0.1957  0.3508
   67loPI   C1A 1063   2.831   9.969   9.723 -0.2844  0.0473 -0.0638
   67loPI   C2A 1064   2.924  10.128   9.384 -0.2507 -0.2785  0.0385
   67loPI   C3A 1065   3.031  10.472   9.122 -0.0073  0.2744 -0.2159
   67loPI   C4A 1066   3.179  10.773   8.977  0.2995  0.2886 -0.1360
   67loPI   C5A 1067   3.092  11.086   8.635  0.2371 -0.2809 -0.0520
   67loPI   C6A 1068   3.170  10.971   8.132  0.2217  0.0771 -0.0684
   67loPI   C1B 1069   2.621   9.426   9.743  0.0146  0.1716 -0.0267
   67loPI   C2B 1070   2.555   9.274   9.327  0.2963  0.2272  0.1273
   67loPI   C3B 1071   2.618   9.382   8.962 -0.1126 -0.1150  0.0175
   67loPI   C4B 1072   2.516   9.382   8.546  0.2213 -0.1606 -0.2381
   68loPI    C1 1073  16.635  12.116  10.596  0.0532  0.2580 -0.1923
   68loPI    C2 1074  16.409  12.069  10.922  0.1500  0.0290 -0.1562
   68loPI    C3 1075  16.521  12.436  10.808 -0.1150  0.1329 -0.0915
   68loPI   PO4 1076  16.623  11.886  10.435  0.0569 -0.0501  0.0127
   68loPI   GL1 1077  16.413  12.091  10.095  0.0491  0.2978 -0.0327
   68loPI   GL2 1078  16.519  11.861   9.712  0.4274  0.2314 -0.2924
   68loPI   C1A 1079  16.062  12.111   9.828  0.2173 -0.0057  0.0847
   68loPI   C2A 1080  15.887  12.363   9.513  0.2200  0.2906 -0.0875
   68loPI   C3A 1081  15.843  12.745   9.243 -0.1140  0.0017 -0.3621
   68loPI   C4A 1082  15.888  12.723   8.775 -0.0354  0.0253  0.0976
   68loPI   C5A 1083  16.017  12.886   8.383 -0.2980  0.1715 -0.0262
   68loPI   C6A 1084  16.149  13.229   8.279 -0.2443 -0.2518 -0.1480
   68loPI   C1B 1085  16.252  12.039   9.355 -0.3142  0.0535 -0.1744
   68loPI   C2B 1086  16.059  12.042   8.977 -0.1087  0.0889  0.2088
   68loPI   C3B 1087  15.694  12.160   8.622  0.0959  0.3401 -0.2364
   68loPI   C4B 1088  15.869  12.367   8.298 -0.0689  0.1464  0.0657
   69loPI    C1 1089  15.450  17.466  10.996  0.0257  0.0439  0.0091
   69loPI    C2 1090  15.816  17.340  11.097 -0.0691 -0.2760 -0.0351
   69loPI    C3 1091  15.601  17.556  11.356  0.1960  0.0192 -0.0554
   69loPI   PO4 1092  15.197  17.224  10.785 -0.1901 -0.1472 -0.1517
   69loPI   GL1 1093  15.058  17.134  10.352  0.1933 -0.2200 -0.2217
   69loPI   GL2 1094  15.423  17.122  10.286  0.0033  0.2223  0.2269
   69loPI   C1A 1095  14.999  17.061   9.974  0.1687 -0.4688 -0.1264
   69loPI   C2A 1096  15.020  16.929   9.579  0.1117 -0.0816 -0.1367
   69loPI   C3A 1097  15.011  16.616   9.275 -0.0096  0.1379 -0.0107
   69loPI   C4A 1098  14.815  16.513   8.830 -0.1201  0.1122 -0.0221
   69loPI   C5A 1099  14.779  16.330   8.417 -0.1309 -0.1658  0.4204
   69loPI   C6A 1100  14.811  15.905   8.247 -0.0647  0.1303 -0.0281
   69loPI   C1B 1101  15.527  17.188   9.854  0.0517 -0.1856  0.3176
   69loPI   C2B 1102  15.454  17.242   9.412  0.0129  0.0397  0.1240
   69loPI   C3B 1103  15.155  17.049   9.118  0.1020  0.0323  0.1331
   69loPI   C4B 1104  14.896  17.073   8.776  0.1533  0.1037  0.0715
   70loPI    C1 1105  10.721   6.314  10.241  0.0397 -0.0232 -0.0765
   70loPI    C2 1106  10.430   6.588  10.239 -0.0533 -0.1210 -0.0350
   70loPI    C3 1107  10.357   6.218  10.106  0.0266 -0.1718  0.0609
   70loPI   PO4 1108  10.913   6.447  10.209  0.1269  0.0152  0.2385
   70loPI   GL1 1109  10.816   6.823   9.901 -0.1213 -0.0513 -0.2519
   70loPI   GL2 1110  11.023   6.621   9.727  0.0430  0.1315  0.2571
   70loPI   C1A 1111  10.562   6.491   9.645 -0.3814 -0.2384 -0.1627
   70loPI   C2A 1112  10.533   6.237   9.521 -0.1575 -0.0367 -0.2609
   70loPI   C3A 1113  10.611   6.077   9.097  0.0571 -0.0988  0.0036
   70loPI   C4A 1114  10.714   6.197   8.755  0.0962 -0.1552  0.5102
   70loPI   C5A 1115  10.454   6.132   8.398 -0.1171 -0.4876  0.0703
   70loPI   C6A 1116  10.595   6.062   7.934  0.0564  0.1543  0.2252
   70loPI   C1B 1117  10.898   6.704   9.263 -0.3929 -0.0259 -0.0726
   70loPI   C2B 1118  10.653   6.558   9.111 -0.1794 -0.1754  0.3928
   70loPI   C3B 1119  10.195   6.315   9.197  0.0703  0.1395 -0.1736
   70loPI   C4B 1120  10.001   6.258   8.813  0.0546 -0.1226 -0.1173
   71loPI    C1 1121   2.874  14.697   9.916 -0.1858 -0.1438  0.0242
   71loPI    C2 1122   2.899  14.695  10.315  0.1818  0.0543  0.0068
   71loPI    C3 1123   2.543  14.733  10.137  0.0328  0.1366  0.3157
   71loPI   PO4 1124   2.987  14.442   9.802  0.0789  0.0040  0.0656
   71loPI   GL1 1125   3.205  14.300   9.532  0.0059  0.0552  0.2297
   71loPI   GL2 1126   3.467  14.514   9.349  0.1993 -0.0953  0.1727
   71loPI   C1A 1127   3.036  14.258   9.071  0.0881  0.3190 -0.3775
   71loPI   C2A 1128   3.163  14.355   8.579 -0.1468  0.0404 -0.2459
   71loPI   C3A 1129   3.150  14.217   8.240  0.2958 -0.0315 -0.0348
   71loPI   C4A 1130   3.234  14.138   7.739 -0.0932 -0.0185 -0.0787
   71loPI   C5A 1131   3.412  13.899   7.603  0.3223 -0.0378  0.0182
   71loPI   C6A 1132   3.845  13.983   7.612  0.0641 -0.0378 -0.3999
   71loPI   C1B 1133   3.451  14.561   8.972  0.0064 -0.1435  0.1463
   71loPI   C2B 1134   3.501  14.786   8.685  0.3285 -0.3256 -0.1910
   71loPI   C3B 1135   3.588  14.913   8.245  0.3464  0.0613  0.3450
   71loPI   C4B 1136   3.751  15.153   7.936  0.0162  0.2748 -0.0834
   72loPI    C1 1137   8.382   7.312  10.616 -0.2103 -0.2482  0.2308
   72loPI    C2 1138   8.287   7.238  10.998  0.0099 -0.2311  0.2902
   72loPI    C3 1139   8.640   7.404  10.908 -0.0260 -0.2673  0.0761
   72loPI   PO4 1140   8.299   7.116  10.463 -0.0111  0.1571  0.0074
   72loPI   GL1 1141   8.356   7.122   9.988 -0.2925 -0.1471  0.1490
   72loPI   GL2 1142   8.493   7.243   9.722  0.0459 -0.0306 -0.1570
   72loPI   C1A 1143   7.994   7.070   9.636 -0.2354  0.1400  0.0111
   72loPI   C2A 1144   7.688   6.767   9.410 -0.3241  0.0507  0.1063
   72loPI   C3A 1145   7.724   6.753   8.939  0.0794 -0.1585 -0.1252
   72loPI   C4A 1146   7.646   6.778   8.511  0.1422 -0.0114  0.2200
   72loPI   C5A 1147   7.562   6.874   8.017 -0.0657 -0.1635  0.0793
   72loPI   C6A 1148   7.704   7.123   7.760  0.1489  0.1060 -0.0930
   72loPI   C1B 1149   8.634   7.005   9.385 -0.3296  0.1445  0.1372
   72loPI   C2B 1150   8.670   7.133   8.893 -0.0869  0.0710 -0.2814
   72loPI   C3B 1151   8.818   7.460   8.604 -0.0220  0.1654 -0.0417
   72loPI   C4B 1152   8.547   7.559   8.353 -0.0428 -0.0168 -0.0680
   73loPI    C1 1153  15.314   2.000  10.687  0.1671  0.1076 -0.3257
   73loPI    C2 1154  15.620   2.200  10.849  0.0730 -0.0700  0.0836
   73loPI    C3 1155  15.391   1.964  11.078 -0.3122 -0.0164 -0.2355
   73loPI   PO4 1156  15.420   1.941  10.486  0.1127 -0.0680 -0.1172
   73loPI   GL1 1157  15.178   1.616  10.272  0.0000 -0.0687 -0.0619
   73loPI   GL2 1158  15.018   1.349  10.230  0.0932  0.2496 -0.2630
   73loPI   C1A 1159  14.995   1.734   9.905 -0.0870  0.0960  0.1444
   73loPI   C2A 1160  14.870   1.746   9.531 -0.3079 -0.2742  0.1752
   73loPI   C3A 1161  14.771   1.885   9.134 -0.2010  0.1539 -0.0383
   73loPI   C4A 1162  14.707   1.803   8.748 -0.2957  0.0592 -0.0150
   73loPI   C5A 1163  14.762   1.737   8.322  0.0184  0.3198  0.3541
   73loPI   C6A 1164  14.797   1.502   8.001  0.1476 -0.0420  0.3068
   73loPI   C1B 1165  14.794   1.304   9.831  0.0246 -0.0489  0.2988
   73loPI   C2B 1166  14.682   1.256   9.391  0.1589 -0.0581  0.3025
   73loPI   C3B 1167  14.707   1.360   8.998  0.1291  0.2930  0.0321
   73loPI   C4B 1168  14.703   1.285   8.585 -0.0628 -0.2057  0.2898
   74loPI    C1 1169  12.752  11.261  11.047  0.1299 -0.1736 -0.0154
   74loPI    C2 1170  13.022  11.552  11.093  0.0217 -0.0711 -0.0247
   74loPI    C3 1171  12.717  11.520  11.350 -0.1825  0.0621 -0.2456
   74loPI   PO4 1172  12.705  11.238  10.793  0.1176 -0.0826  0.1315
   74loPI   GL1 1173  12.975  11.127  10.468  0.2070  0.1436  0.1097
   74loPI   GL2 1174  12.727  11.187  10.264 -0.0930 -0.0148  0.0879
   74loPI   C1A 1175  13.222  11.155  10.070 -0.0866  0.2130  0.0222
   74loPI   C2A 1176  13.252  11.292   9.681 -0.1269 -0.1451 -0.0331
   74loPI   C3A 1177  13.239  11.220   9.243  0.0797  0.1376 -0.2741
   74loPI   C4A 1178  13.289  11.114   8.846 -0.1302 -0.1105 -0.2040
   74loPI   C5A 1179  13.259  10.785   8.595  0.2553  0.1270  0.0329
   74loPI   C6A 1180  13.493  10.836   8.258  0.0611  0.0572  0.0324
   74loPI   C1B 1181  12.860  10.744  10.204  0.4712 -0.1392  0.0111
   74loPI   C2B 1182  12.892  10.438   9.986 -0.1075 -0.0943 -0.1741
   74loPI   C3B 1183  13.157  10.092  10.055 -0.3233 -0.2962 -0.2991
   74loPI   C4B 1184  13.274   9.714  10.105  0.2543  0.0063  0.1285
   75loPI    C1 1185  10.391   5.174  10.331 -0.3041 -0.1706  0.0861
   75loPI    C2 1186  10.376   5.156  10.730 -0.2729 -0.0129  0.0952
   75loPI    C3 1187  10.263   5.490  10.541 -0.3982 -0.1274 -0.0347
   75loPI   PO4 1188  10.383   4.931  10.202 -0.2668 -0.2081  0.1363
   75loPI   GL1 1189  10.346   4.890   9.827  0.1791 -0.1011  0.4258
   75loPI   GL2 1190  10.154   4.756   9.673 -0.2588  0.1180  0.1575
   75loPI   C1A 1191  10.257   5.274   9.490 -0.0527  0.0554  0.1302
   75loPI   C2A 1192  10.306   5.420   9.013  0.1148  0.5796  0.0350
   75loPI   C3A 1193  10.428   5.684   8.727  0.1115 -0.0878  0.2157
   75loPI   C4A 1194  10.411   5.686   8.210 -0.1006 -0.0239  0.3171
   75loPI   C5A 1195  10.401   5.584   7.716 -0.0998 -0.0187  0.0520
   75loPI   C6A 1196  10.702   5.349   7.435  0.1638  0.1393 -0.1435
   75loPI   C1B 1197  10.120   4.800   9.233 -0.0239 -0.3510  0.2761
   75loPI   C2B 1198  10.022   5.005   8.825 -0.2012 -0.0156 -0.0923
   75loPI   C3B 1199   9.821   5.026   8.406 -0.3075  0.0561 -0.5522
   75loPI   C4B 1200   9.648   5.215   8.089  0.2807  0.0176 -0.1151
   76loPI    C1 1201  16.416  10.880  10.659 -0.1299  0.0383 -0.0206
   76loPI    C2 1202  16.090  11.016  10.846  0.1005  0.0914  0.3536
   76loPI    C3 1203  16.261  10.674  10.965  0.1876  0.0682  0.1651
   76loPI   PO4 1204  16.335  11.043  10.339 -0.2703  0.1803 -0.2669
   76loPI   GL1 1205  16.422  10.933   9.877  0.2473  0.3445 -0.1698
   76loPI   GL2 1206  16.404  11.282   9.803 -0.3420 -0.1112 -0.0475
   76loPI   C1A 1207  16.608  10.769   9.573  0.0765 -0.1470 -0.0377
   76loPI   C2A 1208  16.461  10.537   9.233  0.3006  0.0096  0.0746
   76loPI   C3A 1209  16.157  10.492   8.872 -0.0395  0.0068  0.1354
   76loPI   C4A 1210  16.069  10.726   8.427 -0.0908 -0.1441 -0.4569
   76loPI   C5A 1211  16.348  10.625   8.095  0.3526  0.0899 -0.0837
   76loPI   C6A 1212  16.714  10.527   7.855 -0.0057 -0.1532  0.1786
   76loPI   C1B 1213  16.520  11.464   9.354 -0.1443 -0.3238  0.2810
   76loPI   C2B 1214  16.463  11.421   8.970  0.0721  0.0834 -0.1971
   76loPI   C3B 1215  16.593  11.414   8.525 -0.1828  0.0120  0.3862
   76loPI   C4B 1216  16.331  11.151   8.197 -0.1556  0.1769  0.1928
   77loPI    C1 1217   4.496   1.455  10.591 -0.3230 -0.1160 -0.1642
   77loPI    C2 1218   4.506   1.056  10.599 -0.3562 -0.1137  0.1145
   77loPI    C3 1219   4.541   1.263  10.939  0.2109  0.1373 -0.0830
   77loPI   PO4 1220   4.320   1.504  10.345 -0.1179 -0.1385  0.1760
   77loPI   GL1 1221   4.596   1.553   9.982  0.1312 -0.2852  0.0568
   77loPI   GL2 1222   4.329   1.583   9.862 -0.1229 -0.4043  0.2765
   77loPI   C1A 1223   4.699   1.211   9.761  0.0143 -0.1692 -0.0226
   77loPI   C2A 1224   4.535   0.906   9.479  0.3423  0.1081  0.0071
   77loPI   C3A 1225   4.548   1.000   9.101 -0.3146  0.0111  0.3086
   77loPI   C4A 1226   4.447   1.098   8.729  0.1960  0.0728  0.2917
   77loPI   C5A 1227   4.320   1.136   8.303  0.1413 -0.0510  0.3016
   77loPI   C6A 1228   4.675   1.108   8.109 -0.2460  0.0753  0.0685
   77loPI   C1B 1229   4.497   1.620   9.455 -0.3470  0.1411 -0.1390
   77loPI   C2B 1230   4.300   1.785   9.056 -0.0841 -0.0200  0.0210
   77loPI   C3B 1231   4.254   1.934   8.585 -0.0217 -0.0151 -0.0520
   77loPI   C4B 1232   4.111   1.874   8.205 -0.0533 -0.2865  0.0437
   78loPI    C1 1233  15.265   1.082  10.859  0.0152 -0.0405  0.1259
   78loPI    C2 1234  15.495   0.757  10.903  0.1443  0.0169 -0.1087
   78loPI    C3 1235  15.592   1.098  11.087  0.0240 -0.0678  0.1153
   78loPI   PO4 1236  15.143   1.136  10.625 -0.1066  0.1765  0.2858
   78loPI   GL1 1237  14.989   0.831  10.253 -0.2917  0.1713 -0.0946
   78loPI   GL2 1238  15.090   0.901   9.976 -0.2655  0.1882  0.2655
   78loPI   C1A 1239  14.834   0.431   9.881  0.0612  0.1952 -0.1426
   78loPI   C2A 1240  14.474   0.301   9.632  0.3219 -0.0362  0.0992
   78loPI   C3A 1241  14.434  -0.050   9.322 -0.3110 -0.1478 -0.2693
   78loPI   C4A 1242  14.586  -0.056   8.921 -0.1220  0.0866 -0.0235
   78loPI   C5A 1243  14.420  -0.123   8.498 -0.1747  0.4231  0.1674
   78loPI   C6A 1244  14.297   0.209   8.280  0.1807  0.1288  0.0330
   78loPI   C1B 1245  15.116   0.990   9.542  0.2654 -0.3179  0.0823
   78loPI   C2B 1246  14.991   0.981   9.062 -0.0853  0.3384 -0.0488
   78loPI   C3B 1247  14.675   0.854   8.847 -0.0713 -0.1626  0.4103
   78loPI   C4B 1248  14.531   0.816   8.446  0.0989  0.0556 -0.0706
   79loPI    C1 1249  11.943   1.214  10.592 -0.0719 -0.0690  0.2139
   79loPI    C2 1250  11.990   1.383  10.951 -0.1422  0.0770  0.1552
   79loPI    C3 1251  12.287   1.397  10.682 -0.1005 -0.0063  0.1967
   79loPI   PO4 1252  11.783   0.940  10.578  0.1960  0.0525 -0.0814
   79loPI   GL1 1253  11.738   0.637  10.208 -0.2157 -0.3277  0.1074
   79loPI   GL2 1254  11.450   0.561  10.398 -0.1362  0.1489 -0.1409
   79loPI   C1A 1255  11.974   0.480   9.964 -0.0395  0.3666  0.1026
   79loPI   C2A 1256  12.182   0.529   9.706 -0.1993 -0.2622 -0.1752
   79loPI   C3A 1257  12.159   0.566   9.281  0.2719 -0.0091 -0.0332
   79loPI   C4A 1258  12.121   0.540   8.851  0.0074 -0.2313  0.3418
   79loPI   C5A 1259  11.795   0.489   8.548 -0.0302  0.3042 -0.1231
   79loPI   C6A 1260  11.752   0.792   8.260  0.0497  0.1778 -0.0942
   79loPI   C1B 1261  11.270   0.694  10.050  0.0926  0.0779  0.2089
   79loPI   C2B 1262  11.352   0.819   9.622 -0.1738 -0.0722 -0.0794
   79loPI   C3B 1263  11.265   0.760   9.225 -0.3208 -0.1336 -0.1471
   79loPI   C4B 1264  11.293   0.438   8.796  0.1532 -0.0590 -0.3164
   80loPI    C1 1265   4.821  17.665  10.469  0.0309 -0.1180  0.0557
   80loPI    C2 1266   4.742  18.033  10.605  0.0518 -0.1131  0.0543
   80loPI    C3 1267   4.503  17.727  10.704  0.0431 -0.1019  0.0678
   80loPI   PO4 1268   4.919  17.639  10.192  0.1057  0.3666  0.0892
   80loPI   GL1 1269   4.928  17.419   9.730  0.2332  0.0710 -0.1152
   80loPI   GL2 1270   5.078  17.718   9.743 -0.3094  0.0003 -0.1747
   80loPI   C1A 1271   4.980  17.451   9.343 -0.0391 -0.3020  0.1086
   80loPI   C2A 1272   4.976  17.625   9.024 -0.1150 -0.2034  0.0997
   80loPI   C3A 1273   4.988  17.725   8.605 -0.5409  0.0225 -0.0434
   80loPI   C4A 1274   5.020  17.873   8.187  0.3523 -0.0334  0.1959
   80loPI   C5A 1275   4.862  18.120   7.799 -0.1850 -0.1283 -0.0702
   80loPI   C6A 1276   4.675  17.965   7.443  0.0384  0.1102 -0.3509
   80loPI   C1B 1277   5.252  17.921   9.328  0.2286  0.1653 -0.3247
   80loPI   C2B 1278   5.204  18.092   8.908  0.1568  0.2973  0.1879
   80loPI   C3B 1279   5.080  18.245   8.496  0.0854 -0.0758 -0.2301
   80loPI   C4B 1280   5.129  18.609   8.074 -0.2321 -0.0398 -0.3939
   81loPI    C1 1281   0.497  13.236  10.574 -0.4573  0.2251 -0.0131
   81loPI    C2 1282   0.554  12.857  10.687  0.3819  0.1942 -0.4573
   81loPI    C3 1283   0.416  13.125  10.949  0.0524 -0.3465 -0.0559
   81loPI   PO4 1284   0.485  13.158  10.317  0.0461  0.1013  0.2113
   81loPI   GL1 1285   0.445  13.059   9.863  0.0871 -0.1549  0.0927
   81loPI   GL2 1286   0.169  12.947   9.807 -0.2648  0.0870 -0.2428
   81loPI   C1A 1287   0.556  12.882   9.489  0.3182 -0.3539  0.0347
   81loPI   C2A 1288   0.570  12.793   9.193 -0.0416  0.0217  0.1818
   81loPI   C3A 1289   0.359  12.864   8.740  0.0880  0.1520  0.0822
   81loPI   C4A 1290   0.087  12.788   8.378 -0.0803  0.1533  0.2617
   81loPI   C5A 1291   0.307  12.655   7.999 -0.3774 -0.0867  0.0743
   81loPI   C6A 1292   0.250  12.863   7.620  0.2329 -0.1116  0.1127
   81loPI   C1B 1293   0.083  12.958   9.367 -0.1202  0.1389 -0.0107
   81loPI   C2B 1294  -0.023  13.059   9.014  0.0018  0.1629  0.0956
   81loPI   C3B 1295  -0.199  13.089   8.675 -0.2270 -0.0629 -0.0064
   81loPI   C4B 1296  -0.370  13.095   8.336  0.0965  0.6053 -0.0547
   82loPI    C1 1297   6.280  16.313  10.209 -0.0901  0.1523 -0.0928
   82loPI    C2 1298   5.888  16.392  10.198 -0.0851  0.2388  0.2348
   82loPI    C3 1299   6.030  16.124  10.458  0.0637  0.1410  0.0549
   82loPI   PO4 1300   6.334  16.255   9.996 -0.0336 -0.0571 -0.1977
   82loPI   GL1 1301   6.287  16.161   9.561 -0.0311  0.1059  0.1573
   82loPI   GL2 1302   6.161  15.851   9.563  0.1444 -0.0639 -0.0975
   82loPI   C1A 1303   6.101  16.496   9.352  0.1555 -0.2281 -0.0517
   82loPI   C2A 1304   5.825  16.721   9.085  0.0243 -0.2585  0.1613
   82loPI   C3A 1305   5.604  16.955   8.780  0.1502  0.1163  0.2887
   82loPI   C4A 1306   5.771  17.135   8.397  0.0828 -0.0208  0.0198
   82loPI   C5A 1307   6.008  17.376   8.200  0.0108  0.0565  0.1434
   82loPI   C6A 1308   6.233  17.392   7.830 -0.0980 -0.0042  0.1150
   82loPI   C1B 1309   6.109  15.907   9.114  0.3215  0.2075 -0.2725
   82loPI   C2B 1310   6.017  16.047   8.774  0.1532 -0.2270  0.0345
   82loPI   C3B 1311   5.974  16.205   8.356  0.3044  0.0997 -0.1192
   82loPI   C4B 1312   5.977  16.088   7.892  0.1077  0.3133 -0.0851
   83loPI    C1 1313   5.810  15.229  10.202 -0.0088 -0.0204 -0.1687
   83loPI    C2 1314   5.502  15.476  10.142  0.0139  0.0879  0.1451
   83loPI    C3 1315   5.436  15.098  10.253 -0.0104  0.0525  0.0118
   83loPI   PO4 1316   6.018  15.417  10.103  0.0658 -0.0146  0.1234
   83loPI   GL1 1317   6.054  15.401   9.654  0.1057  0.3415 -0.0287
   83loPI   GL2 1318   6.365  15.415   9.728  0.1728 -0.0892 -0.5491
   83loPI   C1A 1319   6.044  15.376   9.150  0.1353 -0.1887  0.0676
   83loPI   C2A 1320   5.913  15.593   8.741  0.1127  0.1766  0.3037
   83loPI   C3A 1321   5.942  15.611   8.330  0.2245 -0.1404  0.1186
   83loPI   C4A 1322   6.209  15.519   8.065 -0.0394  0.1661  0.0278
   83loPI   C5A 1323   6.125  15.138   7.851 -0.4141 -0.1957 -0.1857
   83loPI   C6A 1324   5.668  14.996   7.909 -0.0826 -0.3951  0.0273
   83loPI   C1B 1325   6.490  15.280   9.350  0.3362  0.0473 -0.1690
   83loPI   C2B 1326   6.466  15.304   8.866 -0.4466  0.3280 -0.0628
   83loPI   C3B 1327   6.497  15.436   8.436  0.3659 -0.0178 -0.2546
   83loPI   C4B 1328   6.736  15.320   8.080  0.1026 -0.0070  0.1087
   84loPI    C1 1329   5.703  17.324  10.525  0.0005  0.0769 -0.0134
   84loPI    C2 1330   6.001  17.311  10.790  0.0309  0.0029 -0.0509
   84loPI    C3 1331   5.768  16.991  10.736 -0.1930  0.1309  0.1353
   84loPI   PO4 1332   5.746  17.485  10.367 -0.0324 -0.0727  0.2961
   84loPI   GL1 1333   5.996  17.518   9.996 -0.1909  0.0198  0.0403
   84loPI   GL2 1334   5.864  17.237   9.896 -0.1019  0.0291  0.1113
   84loPI   C1A 1335   6.312  17.804   9.821 -0.2601  0.0380  0.2515
   84loPI   C2A 1336   6.494  17.876   9.447  0.0742  0.1410  0.2169
   84loPI   C3A 1337   6.592  17.995   9.189 -0.1609  0.0658  0.2512
   84loPI   C4A 1338   6.951  18.180   8.784 -0.1395  0.2074 -0.2432
   84loPI   C5A 1339   7.218  18.584   8.626 -0.0486  0.0180 -0.0567
   84loPI   C6A 1340   7.336  19.006   8.790 -0.2407 -0.4207  0.1608
   84loPI   C1B 1341   5.906  17.572   9.473  0.1726  0.0216 -0.2101
   84loPI   C2B 1342   6.037  17.808   9.064  0.0546  0.4398  0.1074
   84loPI   C3B 1343   6.204  18.091   8.874  0.0180  0.1307 -0.0307
   84loPI   C4B 1344   6.486  18.456   8.927  0.1390 -0.0280  0.3688
   85loPI    C1 1345  14.528   5.402  10.357  0.0112 -0.0202 -0.0079
   85loPI    C2 1346  14.407   5.120  10.614 -0.2256 -0.0531 -0.1523
   85loPI    C3 1347  14.798   5.176  10.548 -0.1728 -0.2551 -0.0209
   85loPI   PO4 1348  14.500   5.328  10.190  0.2111  0.0067 -0.0270
   85loPI   GL1 1349  14.203   5.505   9.853 -0.0998  0.1268 -0.1909
   85loPI   GL2 1350  14.446   5.410   9.677  0.1363 -0.1937  0.1553
   85loPI   C1A 1351  13.999   5.233   9.470 -0.2263 -0.0137 -0.0481
   85loPI   C2A 1352  13.940   5.175   9.019 -0.1034  0.0706  0.0059
   85loPI   C3A 1353  13.822   5.079   8.614 -0.0826 -0.0818 -0.2473
   85loPI   C4A 1354  13.708   5.055   8.210  0.0259 -0.3937 -0.0723
   85loPI   C5A 1355  13.668   5.312   7.882 -0.0674 -0.0745 -0.0950
   85loPI   C6A 1356  13.380   5.581   7.588  0.0382 -0.0199 -0.0414
   85loPI   C1B 1357  14.448   5.394   9.198  0.0309 -0.1255 -0.0006
   85loPI   C2B 1358  14.319   5.416   8.767 -0.0788 -0.0223  0.1210
   85loPI   C3B 1359  14.270   5.345   8.311 -0.1149 -0.0491  0.0931
   85loPI   C4B 1360  14.206   5.161   7.968  0.1234  0.0052  0.1372
   86loPI    C1 1361  11.218   4.000  10.080  0.0622  0.0380 -0.2400
   86loPI    C2 1362  11.270   3.744  10.383  0.1893  0.0804 -0.2252
   86loPI    C3 1363  11.270   4.138  10.453  0.0469  0.0865 -0.2557
   86loPI   PO4 1364  11.426   4.042   9.907  0.2000  0.2111 -0.1559
   86loPI   GL1 1365  11.591   4.057   9.517 -0.0359  0.6166  0.0350
   86loPI   GL2 1366  11.871   4.251   9.467 -0.2224 -0.2506 -0.1398
   86loPI   C1A 1367  11.629   3.936   9.033  0.2010 -0.6285  0.0704
   86loPI   C2A 1368  11.406   3.853   8.616 -0.0385  0.0154  0.0534
   86loPI   C3A 1369  11.531   3.564   8.273 -0.1449  0.2552  0.0097
   86loPI   C4A 1370  11.603   3.322   7.925  0.1292 -0.2299  0.1636
   86loPI   C5A 1371  11.489   2.905   7.678 -0.1593  0.2146 -0.1257
   86loPI   C6A 1372  11.625   2.613   7.420 -0.1637  0.2299  0.0546
   86loPI   C1B 1373  12.100   4.178   9.013  0.3367 -0.2275  0.0809
   86loPI   C2B 1374  12.298   4.023   8.622 -0.1676 -0.1848  0.0394
   86loPI   C3B 1375  12.180   3.913   8.207  0.1746  0.5225  0.0221
   86loPI   C4B 1376  12.395   3.652   7.957 -0.2191  0.0864  0.2353
   87loPI    C1 1377  13.167  12.022  10.997  0.0242  0.1049  0.0666
   87loPI    C2 1378  12.872  12.149  11.235  0.0609 -0.0814  0.2143
   87loPI    C3 1379  13.251  12.246  11.317  0.0342  0.2601 -0.0438
   87loPI   PO4 1380  13.034  12.161  10.709  0.1023  0.0637  0.0301
   87loPI   GL1 1381  13.010  12.236  10.294 -0.2032  0.4332  0.0110
   87loPI   GL2 1382  13.296  12.271  10.124 -0.2332  0.0139  0.2354
   87loPI   C1A 1383  12.889  11.987  10.023  0.0123  0.2436 -0.0934
   87loPI   C2A 1384  12.894  12.085   9.631 -0.3431  0.0214 -0.1640
   87loPI   C3A 1385  12.861  12.162   9.191  0.0750 -0.4405  0.0215
   87loPI   C4A 1386  12.888  12.351   8.797  0.1136 -0.3208 -0.4228
   87loPI   C5A 1387  13.017  12.395   8.396  0.0035  0.1432 -0.0775
   87loPI   C6A 1388  13.057  12.250   7.897 -0.0602 -0.0587  0.3329
   87loPI   C1B 1389  13.367  12.299   9.733 -0.0882  0.2368 -0.0777
   87loPI   C2B 1390  13.396  12.132   9.293 -0.2269 -0.1191 -0.0662
   87loPI   C3B 1391  13.246  12.030   8.924  0.3536  0.0262  0.1196
   87loPI   C4B 1392  13.141  11.897   8.567  0.2078  0.3369  0.1100
   88loPI    C1 1393   5.141  13.720  10.157 -0.0189 -0.1493 -0.0909
   88loPI    C2 1394   5.273  13.807  10.525 -0.0061  0.2486 -0.1847
   88loPI    C3 1395   5.531  13.691  10.242  0.0099  0.1252 -0.1202
   88loPI   PO4 1396   5.007  13.858  10.038  0.0353  0.3105  0.0342
   88loPI   GL1 1397   4.779  13.694   9.741 -0.2697 -0.1127 -0.0731
   88loPI   GL2 1398   4.876  13.356   9.852  0.1617 -0.0244 -0.0540
   88loPI   C1A 1399   4.748  13.838   9.251  0.0370  0.0349 -0.0466
   88loPI   C2A 1400   4.871  13.954   8.857 -0.0056 -0.2617 -0.0341
   88loPI   C3A 1401   5.002  13.834   8.449 -0.0589 -0.1962 -0.2622
   88loPI   C4A 1402   5.284  13.816   8.047 -0.1522 -0.1406 -0.3411
   88loPI   C5A 1403   5.525  13.470   8.069  0.0993 -0.0211 -0.1116
   88loPI   C6A 1404   5.892  13.186   8.002 -0.6580  0.1471 -0.1725
   88loPI   C1B 1405   4.897  13.027   9.567  0.1399  0.0535 -0.1595
   88loPI   C2B 1406   5.033  12.774   9.251 -0.1067 -0.0261  0.0728
   88loPI   C3B 1407   5.036  12.427   8.953 -0.0347 -0.1723  0.1573
   88loPI   C4B 1408   4.848  12.177   8.748  0.2673  0.0409 -0.0361
   89loPI    C1 1409  13.442   6.724  10.521  0.1485  0.0258 -0.2057
   89loPI    C2 1410  13.417   6.925  10.866 -0.0186  0.1705 -0.3001
   89loPI    C3 1411  13.666   6.613  10.834 -0.3093 -0.1110  0.0831
   89loPI   PO4 1412  13.505   6.903  10.337  0.0476 -0.0996  0.2899
   89loPI   GL1 1413  13.284   6.733  10.027 -0.0429 -0.1933 -0.1725
   89loPI   GL2 1414  13.240   6.454   9.880 -0.0120 -0.3648  0.2592
   89loPI   C1A 1415  13.178   6.978   9.598 -0.1376  0.1920  0.0830
   89loPI   C2A 1416  13.285   7.184   9.121  0.1760  0.0922 -0.1991
   89loPI   C3A 1417  13.466   7.305   8.740 -0.0434  0.0862 -0.2278
   89loPI   C4A 1418  13.516   7.564   8.281 -0.1518 -0.1590 -0.1520
   89loPI   C5A 1419  13.400   7.631   7.792 -0.0747 -0.2355  0.1021
   89loPI   C6A 1420  13.340   7.432   7.379  0.0116  0.2008  0.2416
   89loPI   C1B 1421  13.299   6.474   9.474 -0.0108 -0.1908 -0.0838
   89loPI   C2B 1422  13.478   6.730   9.165 -0.0904 -0.0170  0.2035
   89loPI   C3B 1423  13.319   6.827   8.799  0.0626  0.1204  0.0507
   89loPI   C4B 1424  13.128   6.820   8.409  0.2139  0.2004 -0.2546
   90loPI    C1 1425   6.532   7.814  10.461  0.4161 -0.5200  0.1586
   90loPI    C2 1426   6.185   7.626  10.525  0.0479  0.1077  0.0908
   90loPI    C3 1427   6.429   7.705  10.832  0.1591 -0.3711  0.1336
   90loPI   PO4 1428   6.531   7.761  10.073 -0.0148  0.0689  0.0657
   90loPI   GL1 1429   6.604   7.685   9.620  0.0866  0.0015 -0.1088
   90loPI   GL2 1430   6.327   7.430   9.739 -0.0521 -0.1383  0.2617
   90loPI   C1A 1431   6.387   8.068   9.441 -0.0599 -0.0104  0.2400
   90loPI   C2A 1432   6.126   8.135   9.186  0.2386  0.2564 -0.0115
   90loPI   C3A 1433   6.064   8.222   8.756  0.2832  0.1080  0.1257
   90loPI   C4A 1434   6.109   8.193   8.421  0.1986 -0.0745 -0.0895
   90loPI   C5A 1435   6.125   8.485   8.087  0.0338  0.1042  0.3127
   90loPI   C6A 1436   5.797   8.586   7.797  0.2658  0.0597 -0.4369
   90loPI   C1B 1437   6.409   7.597   9.224  0.2306 -0.1224  0.5362
   90loPI   C2B 1438   6.362   7.821   8.825 -0.1743  0.0957  0.0401
   90loPI   C3B 1439   6.553   7.958   8.481  0.0051  0.1001 -0.1737
   90loPI   C4B 1440   6.746   7.999   8.059  0.3311 -0.0360 -0.1221
   91loPI    C1 1441  14.724  14.451  10.615  0.0512  0.0918 -0.0106
   91loPI    C2 1442  14.794  14.107  10.807 -0.0393  0.0689 -0.0180
   91loPI    C3 1443  14.986  14.440  10.917  0.3367 -0.0624 -0.2580
   91loPI   PO4 1444  14.506  14.437  10.556 -0.0609 -0.1690  0.2151
   91loPI   GL1 1445  14.254  14.444  10.252 -0.2508 -0.2745  0.0092
   91loPI   GL2 1446  13.921  14.520  10.199 -0.2677  0.0921 -0.0745
   91loPI   C1A 1447  14.314  14.388   9.823 -0.0065  0.2536 -0.1747
   91loPI   C2A 1448  14.369  14.343   9.300 -0.1432 -0.1269  0.3530
   91loPI   C3A 1449  14.192  14.277   8.923 -0.1491 -0.1802  0.0162
   91loPI   C4A 1450  14.209  14.030   8.538  0.1205  0.0213 -0.1906
   91loPI   C5A 1451  14.472  14.015   8.171 -0.1642 -0.1515  0.0514
   91loPI   C6A 1452  14.819  13.912   7.983 -0.0866  0.0414  0.0239
   91loPI   C1B 1453  13.880  14.660   9.794  0.1132 -0.0927 -0.2462
   91loPI   C2B 1454  13.936  14.719   9.399 -0.0480 -0.1905  0.0428
   91loPI   C3B 1455  13.898  14.778   8.959  0.2863  0.1339 -0.0636
   91loPI   C4B 1456  14.093  14.949   8.533 -0.0514  0.2439  0.0651
   92loPI    C1 1457  18.401   0.596  10.101 -0.0667  0.1411  0.0345
   92loPI    C2 1458  18.454   0.605  10.498  0.2670 -0.5100  0.0181
   92loPI    C3 1459  18.093   0.525  10.345  0.1019 -0.1027  0.1809
   92loPI   PO4 1460  18.746   0.686  10.100  0.1363 -0.1213 -0.1493
   92loPI   GL1 1461  18.955   0.634   9.671  0.0589  0.0898 -0.2003
   92loPI   GL2 1462  19.309   0.719   9.634  0.0403 -0.2408  0.1778
   92loPI   C1A 1463  18.972   0.873   9.239  0.0538  0.0163 -0.1579
   92loPI   C2A 1464  19.034   1.355   9.093  0.0799 -0.0959  0.2383
   92loPI   C3A 1465  19.035   1.493   8.687  0.1019 -0.2213  0.1813
   92loPI   C4A 1466  19.207   1.284   8.323  0.1597  0.5017 -0.2911
   92loPI   C5A 1467  19.271   1.058   7.867 -0.0799  0.3648 -0.1566
   92loPI   C6A 1468  19.661   0.861   7.900  0.0289 -0.1391 -0.0024
   92loPI   C1B 1469  19.433   0.638   9.236 -0.0779 -0.0633 -0.0344
   92loPI   C2B 1470  19.435   0.585   8.825  0.5387 -0.0273  0.3015
   92loPI   C3B 1471  19.241   0.727   8.415  0.1421  0.0287 -0.0148
   92loPI   C4B 1472  19.303   0.585   8.105 -0.1978 -0.2153 -0.0720
   93loPI    C1 1473  12.902   4.752  10.432 -0.1887  0.0440  0.2432
   93loPI    C2 1474  13.132   4.807  10.755  0.0853 -0.2614  0.1066
   93loPI    C3 1475  12.790   4.601  10.785  0.0097 -0.1189  0.2388
   93loPI   PO4 1476  13.056   5.000  10.208  0.1228 -0.2036 -0.1368
   93loPI   GL1 1477  13.340   4.865   9.875 -0.0140 -0.0601  0.1329
   93loPI   GL2 1478  13.563   4.566   9.676 -0.1209 -0.2129 -0.2471
   93loPI   C1A 1479  13.513   5.243   9.773 -0.1106 -0.0901 -0.0348
   93loPI   C2A 1480  13.535   5.360   9.336 -0.2775  0.2511 -0.1811
   93loPI   C3A 1481  13.484   5.384   8.876 -0.2291  0.0661  0.0912
   93loPI   C4A 1482  13.293   5.442   8.356 -0.0145  0.2304 -0.0141
   93loPI   C5A 1483  13.141   5.515   8.082  0.0907  0.0078  0.1643
   93loPI   C6A 1484  12.809   5.763   7.825  0.0932  0.0518  0.2169
   93loPI   C1B 1485  13.585   4.875   9.432  0.2222  0.1955 -0.2301
   93loPI   C2B 1486  13.459   4.872   9.052 -0.5125 -0.1577  0.1413
   93loPI   C3B 1487  13.294   5.018   8.619  0.5029 -0.0387 -0.3363
   93loPI   C4B 1488  13.270   4.969   8.083 -0.1161 -0.2817 -0.0280
   94loPI    C1 1489  12.794   3.150  10.750  0.2012  0.1230 -0.1598
   94loPI    C2 1490  13.136   3.244  10.935  0.1116  0.1064  0.0159
   94loPI    C3 1491  12.922   2.928  11.057 -0.0840  0.2531  0.0576
   94loPI   PO4 1492  12.892   3.135  10.410  0.3530  0.2982 -0.0107
   94loPI   GL1 1493  12.795   3.000   9.922  0.2762  0.0632 -0.1003
   94loPI   GL2 1494  12.707   2.671   9.787  0.0470  0.2847 -0.0526
   94loPI   C1A 1495  12.719   3.149   9.468 -0.1315 -0.0377 -0.2747
   94loPI   C2A 1496  12.704   3.234   9.048  0.2775 -0.1967  0.1172
   94loPI   C3A 1497  12.672   3.152   8.631 -0.0675  0.1546 -0.3472
   94loPI   C4A 1498  12.784   3.171   8.278  0.3854 -0.3548  0.3211
   94loPI   C5A 1499  12.377   3.115   8.047 -0.2268 -0.1021  0.0493
   94loPI   C6A 1500  12.090   3.079   7.839  0.0316  0.2725 -0.1268
   94loPI   C1B 1501  12.727   2.618   9.303 -0.1309 -0.1271  0.1339
   94loPI   C2B 1502  12.823   2.441   8.927 -0.0626 -0.0721 -0.3447
   94loPI   C3B 1503  12.984   2.290   8.634 -0.1794  0.1934 -0.0380
   94loPI   C4B 1504  12.811   2.333   8.180 -0.1720 -0.2595 -0.0707
   95loPI    C1 1505   2.908  17.569  10.289  0.1900  0.0081  0.0812
   95loPI    C2 1506   3.037  17.658  10.657  0.0045  0.2279  0.0954
   95loPI    C3 1507   2.647  17.601  10.590  0.0775 -0.1980  0.0070
   95loPI   PO4 1508   2.953  17.682  10.156  0.1070 -0.0482  0.0926
   95loPI   GL1 1509   2.888  17.756   9.783  0.2249 -0.0617  0.0617
   95loPI   GL2 1510   2.552  17.721   9.626  0.2343 -0.2460 -0.1399
   95loPI   C1A 1511   2.964  17.809   9.372 -0.0156  0.2978 -0.2275
   95loPI   C2A 1512   2.854  17.658   8.919  0.0804  0.0485  0.3448
   95loPI   C3A 1513   2.884  17.859   8.582 -0.1334  0.4794  0.0317
   95loPI   C4A 1514   2.875  17.866   8.076 -0.0190 -0.1332 -0.2697
   95loPI   C5A 1515   3.113  18.090   7.799  0.2618 -0.0928 -0.1898
   95loPI   C6A 1516   3.221  18.561   7.800  0.1111  0.0978 -0.0528
   95loPI   C1B 1517   2.425  17.693   9.257 -0.0064 -0.0078  0.0511
   95loPI   C2B 1518   2.340  17.520   8.907 -0.0214  0.1928  0.0837
   95loPI   C3B 1519   2.094  17.393   8.535 -0.0666  0.5029 -0.0098
   95loPI   C4B 1520   2.047  17.467   8.137  0.3024 -0.0197 -0.1014
   96loPI    C1 1521  12.296  12.012  10.863  0.1602 -0.2621  0.4095
   96loPI    C2 1522  12.565  12.016  10.567 -0.2991 -0.1183 -0.0207
   96loPI    C3 1523  12.650  11.831  10.911  0.4239  0.1020 -0.0620
   96loPI   PO4 1524  12.057  12.034  10.701  0.0448  0.2248  0.0848
   96loPI   GL1 1525  12.180  11.836  10.217 -0.1198  0.3185 -0.0373
   96loPI   GL2 1526  11.888  11.909  10.085 -0.3074 -0.2648 -0.0756
   96loPI   C1A 1527  12.456  11.852   9.842 -0.1632  0.0758 -0.1133
   96loPI   C2A 1528  12.507  11.887   9.406  0.1557  0.1406 -0.0116
   96loPI   C3A 1529  12.509  11.828   8.958  0.0981  0.1677  0.2076
   96loPI   C4A 1530  12.547  11.538   8.510 -0.1340 -0.4681 -0.0191
   96loPI   C5A 1531  12.755  11.382   8.129 -0.2065  0.0733 -0.1403
   96loPI   C6A 1532  12.870  11.460   7.760 -0.1845  0.1838  0.1634
   96loPI   C1B 1533  12.031  11.798   9.639  0.1071  0.3049 -0.0404
   96loPI   C2B 1534  11.982  11.997   9.262 -0.0495 -0.1531  0.4179
   96loPI   C3B 1535  12.107  12.101   8.782 -0.0370 -0.3036  0.0078
   96loPI   C4B 1536  12.080  11.830   8.402 -0.3116  0.1088  0.0864
   97loPI    C1 1537   7.958   7.462  10.210 -0.1575  0.2720  0.0902
   97loPI    C2 1538   7.798   7.131  10.051  0.2892  0.1661 -0.1556
   97loPI    C3 1539   7.785   7.190  10.447  0.0655 -0.0659 -0.1264
   97loPI   PO4 1540   8.057   7.593   9.991 -0.1154  0.0119 -0.0753
   97loPI   GL1 1541   8.083   7.543   9.581  0.1283 -0.0617  0.0258
   97loPI   GL2 1542   8.169   7.896   9.549  0.3509  0.1699  0.1342
   97loPI   C1A 1543   8.232   7.309   9.278 -0.1857  0.0270  0.1664
   97loPI   C2A 1544   8.237   7.296   8.831 -0.0723 -0.0077  0.1776
   97loPI   C3A 1545   8.109   7.265   8.443  0.0439 -0.0826 -0.1605
   97loPI   C4A 1546   8.066   7.100   8.070  0.0610  0.2402 -0.1486
   97loPI   C5A 1547   8.141   6.857   7.814  0.3887 -0.1443  0.0139
   97loPI   C6A 1548   7.982   6.789   7.491 -0.1854 -0.0634  0.2079
   97loPI   C1B 1549   8.085   7.771   9.098  0.0697 -0.1900  0.3252
   97loPI   C2B 1550   7.988   7.797   8.677  0.0824 -0.2288  0.4307
   97loPI   C3B 1551   8.043   7.748   8.252 -0.1376 -0.1891  0.3258
   97loPI   C4B 1552   7.873   7.540   7.925  0.0985  0.0707 -0.0504
   98loPI    C1 1553  17.821   2.530  10.419 -0.2146  0.1020 -0.1937
   98loPI    C2 1554  17.621   2.841  10.573 -0.1342  0.0479  0.0229
   98loPI    C3 1555  18.000   2.773  10.682 -0.1466 -0.1178 -0.0346
   98loPI   PO4 1556  17.762   2.595  10.148  0.0658  0.1998  0.5080
   98loPI   GL1 1557  17.826   2.532   9.712 -0.1114  0.1207 -0.3026
   98loPI   GL2 1558  17.770   2.924   9.721 -0.1946  0.2551  0.1100
   98loPI   C1A 1559  18.015   2.250   9.468  0.0215  0.0544  0.1171
   98loPI   C2A 1560  18.237   1.950   9.182 -0.0100 -0.2321  0.1726
   98loPI   C3A 1561  18.519   1.741   8.821 -0.1710  0.1948 -0.1668
   98loPI   C4A 1562  18.626   1.746   8.399  0.0955 -0.1639  0.0449
   98loPI   C5A 1563  19.004   1.640   8.064  0.3203  0.2468 -0.2551
   98loPI   C6A 1564  19.262   1.586   7.630  0.0936  0.2098 -0.1961
   98loPI   C1B 1565  17.802   2.804   9.306 -0.0563 -0.1170  0.1090
   98loPI   C2B 1566  17.955   2.587   9.048  0.0592  0.0894 -0.0991
   98loPI   C3B 1567  17.938   2.527   8.631  0.0937  0.2640 -0.0132
   98loPI   C4B 1568  17.928   2.442   8.195 -0.0095 -0.0736 -0.2436
   99loPI    C1 1569  10.687   5.576  10.364  0.1617  0.1381 -0.0900
   99loPI    C2 1570  10.971   5.479  10.100  0.0736 -0.1276 -0.0902
   99loPI    C3 1571  10.863   5.217  10.382  0.0877  0.1119  0.1415
   99loPI   PO4 1572  10.576   5.804  10.284  0.0648 -0.0249  0.2779
   99loPI   GL1 1573  10.618   5.842   9.888  0.1325  0.2570  0.0983
   99loPI   GL2 1574  10.890   6.111   9.867  0.2433 -0.0990 -0.1873
   99loPI   C1A 1575  10.492   5.730   9.496 -0.3243 -0.2199  0.3051
   99loPI   C2A 1576  10.759   5.558   9.146  0.0796 -0.2000  0.0872
   99loPI   C3A 1577  10.843   5.375   8.741  0.0991 -0.2284  0.2887
   99loPI   C4A 1578  10.836   5.275   8.252 -0.0873 -0.0075 -0.1264
   99loPI   C5A 1579  11.036   5.197   7.807  0.2423  0.0208  0.3939
   99loPI   C6A 1580  11.423   5.234   7.585  0.2138  0.1777 -0.2829
   99loPI   C1B 1581  10.972   6.267   9.362  0.0452 -0.1377 -0.0046
   99loPI   C2B 1582  11.135   6.372   8.853  0.0854 -0.1509 -0.0194
   99loPI   C3B 1583  11.390   6.647   8.591  0.1703  0.0717 -0.1301
   99loPI   C4B 1584  11.244   6.735   8.167 -0.2772  0.2226  0.2754
  100loPI    C1 1585  13.184   6.193  10.394 -0.1283  0.0809  0.0845
  100loPI    C2 1586  13.396   5.880  10.524 -0.1417  0.0978  0.1473
  100loPI    C3 1587  13.394   6.220  10.733 -0.1199  0.1430  0.0744
  100loPI   PO4 1588  13.226   6.045  10.148  0.3473  0.0926  0.0767
  100loPI   GL1 1589  12.960   6.011   9.886 -0.1407 -0.0158  0.1530
  100loPI   GL2 1590  12.758   5.950   9.841  0.2135  0.1038 -0.0694
  100loPI   C1A 1591  12.983   6.041   9.375  0.2496 -0.1525 -0.4973
  100loPI   C2A 1592  12.957   6.229   9.091  0.4130 -0.1015  0.1905
  100loPI   C3A 1593  12.821   6.528   8.769 -0.2507 -0.1427  0.2518
  100loPI   C4A 1594  12.739   6.535   8.296  0.1904  0.2671 -0.2249
  100loPI   C5A 1595  12.894   6.711   8.007 -0.4867 -0.5493  0.1964
  100loPI   C6A 1596  12.971   7.120   7.634 -0.0076  0.2163  0.0927
  100loPI   C1B 1597  12.664   5.685   9.460  0.3901 -0.1054 -0.5632
  100loPI   C2B 1598  12.598   5.829   9.085 -0.0636  0.0431 -0.0794
  100loPI   C3B 1599  12.611   6.041   8.686  0.0743 -0.1110 -0.1568
  100loPI   C4B 1600  12.695   6.041   8.233  0.3108  0.0518 -0.1228
  101loPI    C1 1601   5.392  16.855  10.119 -0.0876 -0.0742  0.1853
  101loPI    C2 1602   5.374  16.457  10.091  0.0606 -0.0659 -0.0517
  101loPI    C3 1603   5.185  16.685   9.822 -0.2064  0.0264  0.2093
  101loPI   PO4 1604   5.688  16.873  10.195  0.0990  0.2687  0.3423
  101loPI   GL1 1605   5.872  16.747   9.849 -0.0522 -0.1155 -0.0455
  101loPI   GL2 1606   5.660  16.669   9.590 -0.0702  0.0560 -0.0910
  101loPI   C1A 1607   5.988  17.002   9.506 -0.2357  0.1312 -0.0326
  101loPI   C2A 1608   6.070  17.176   9.093  0.2832 -0.2606  0.2465
  101loPI   C3A 1609   6.154  17.365   8.710 -0.5035  0.3222  0.1770
  101loPI   C4A 1610   6.023  17.780   8.490 -0.6387 -0.3855 -0.0166
  101loPI   C5A 1611   6.073  18.126   8.085 -0.1795 -0.0658  0.0877
  101loPI   C6A 1612   6.038  18.544   8.001 -0.0694 -0.2360 -0.0134
  101loPI   C1B 1613   5.294  16.746   9.312  0.2929 -0.0955  0.0905
  101loPI   C2B 1614   5.210  17.016   9.054  0.1099 -0.0940  0.2062
  101loPI   C3B 1615   5.027  17.209   8.720 -0.0946 -0.2723  0.0055
  101loPI   C4B 1616   4.887  17.340   8.273  0.1548  0.0411 -0.2405
  102loPI    C1 1617   8.094   6.154  10.390  0.2632 -0.2421 -0.0314
  102loPI    C2 1618   8.102   6.399  10.706 -0.4665  0.0726 -0.2347
  102loPI    C3 1619   7.927   6.040  10.735 -0.0846 -0.1122 -0.1521
  102loPI   PO4 1620   8.194   6.265  10.186  0.0628  0.1686 -0.2699
  102loPI   GL1 1621   8.444   6.171   9.808 -0.4776  0.1997  0.2811
  102loPI   GL2 1622   8.520   5.948   9.874 -0.0261 -0.1080  0.1508
  102loPI   C1A 1623   8.314   6.124   9.401 -0.0495  0.0635  0.0905
  102loPI   C2A 1624   8.208   6.206   9.015 -0.1957 -0.2911  0.0394
  102loPI   C3A 1625   7.874   6.302   8.612  0.0926  0.4095 -0.0187
  102loPI   C4A 1626   7.794   6.419   8.232 -0.0638  0.3653 -0.2977
  102loPI   C5A 1627   8.056   6.326   7.902 -0.0230  0.0621 -0.1819
  102loPI   C6A 1628   8.499   6.232   7.739  0.1971 -0.2084 -0.1115
  102loPI   C1B 1629   8.434   5.659   9.598 -0.1140 -0.0325 -0.3472
  102loPI   C2B 1630   8.404   5.658   9.167  0.0211  0.1505  0.1353
  102loPI   C3B 1631   8.348   5.818   8.741 -0.1174  0.0839 -0.0475
  102loPI   C4B 1632   8.230   6.119   8.366  0.0438 -0.1249 -0.0150
  103loPI    C1 1633  15.794   5.209  10.200 -0.0729 -0.3833  0.0611
  103loPI    C2 1634  16.160   5.212  10.361 -0.0503 -0.0930  0.0088
  103loPI    C3 1635  15.916   5.526  10.410 -0.2446 -0.2298 -0.0672
  103loPI   PO4 1636  15.797   5.176   9.957 -0.0863  0.1108  0.1777
  103loPI   GL1 1637  15.742   4.839   9.702  0.1857 -0.1616  0.0899
  103loPI   GL2 1638  15.420   4.677   9.658  0.2382 -0.0168 -0.2292
  103loPI   C1A 1639  15.544   4.892   9.269 -0.2369  0.5206 -0.1041
  103loPI   C2A 1640  15.667   4.715   8.858 -0.2469 -0.2618 -0.1886
  103loPI   C3A 1641  15.458   4.313   8.609  0.1333 -0.3554  0.1349
  103loPI   C4A 1642  15.504   4.141   8.151  0.0231 -0.0083  0.2107
  103loPI   C5A 1643  15.367   3.847   7.860  0.2516 -0.0117  0.0038
  103loPI   C6A 1644  15.118   3.657   7.540  0.4277  0.0416 -0.0902
  103loPI   C1B 1645  15.357   4.426   9.205 -0.0745 -0.0423 -0.1720
  103loPI   C2B 1646  14.998   4.396   8.905  0.0654  0.2667 -0.1216
  103loPI   C3B 1647  14.837   4.372   8.449 -0.2163 -0.0771  0.2292
  103loPI   C4B 1648  14.570   4.550   8.124 -0.0242  0.0740 -0.1648
  104loPI    C1 1649  11.975  14.214  11.067 -0.0946  0.1299 -0.0902
  104loPI    C2 1650  11.637  14.348  11.234 -0.0780  0.0956 -0.0286
  104loPI    C3 1651  11.899  14.140  11.453 -0.1408 -0.1063 -0.1430
  104loPI   PO4 1652  12.149  14.426  10.928  0.0304  0.1201  0.0011
  104loPI   GL1 1653  12.349  14.403  10.484  0.3125  0.3390 -0.0568
  104loPI   GL2 1654  12.623  14.330  10.416 -0.1159  0.0471  0.4133
  104loPI   C1A 1655  12.060  14.398  10.180  0.0751 -0.1456  0.3529
  104loPI   C2A 1656  12.002  14.439   9.731 -0.2587 -0.0993 -0.1029
  104loPI   C3A 1657  12.033  14.455   9.271  0.1351 -0.1379 -0.1119
  104loPI   C4A 1658  11.949  14.658   8.929  0.3107 -0.3278  0.3366
  104loPI   C5A 1659  11.971  14.967   8.588 -0.2971  0.2606 -0.1147
  104loPI   C6A 1660  11.919  15.242   8.351 -0.5472 -0.1642  0.1721
  104loPI   C1B 1661  12.534  14.279   9.929 -0.1108 -0.0085 -0.3090
  104loPI   C2B 1662  12.429  14.225   9.482  0.2293  0.0729 -0.3727
  104loPI   C3B 1663  12.417  14.309   9.043 -0.1064 -0.2396  0.0907
  104loPI   C4B 1664  12.432  14.748   8.771 -0.1472  0.0179 -0.3296
  105loPI    C1 1665   7.964  13.800  10.359  0.0534  0.0402 -0.0943
  105loPI    C2 1666   7.866  13.952  10.715  0.0458 -0.0589 -0.0536
  105loPI    C3 1667   8.039  13.592  10.693 -0.0722 -0.1098 -0.1582
  105loPI   PO4 1668   7.780  13.864  10.141 -0.0610 -0.1050 -0.6737
  105loPI   GL1 1669   7.747  14.144   9.852  0.0372  0.1978  0.2213
  105loPI   GL2 1670   7.864  14.464   9.800 -0.0991  0.0869 -0.0524
  105loPI   C1A 1671   7.891  14.096   9.398  0.0700  0.3008  0.1894
  105loPI   C2A 1672   7.967  14.135   9.012 -0.1513  0.5757 -0.1305
  105loPI   C3A 1673   8.009  14.003   8.624 -0.1076 -0.0112  0.0521
  105loPI   C4A 1674   7.970  13.790   8.201 -0.1097 -0.2863  0.0653
  105loPI   C5A 1675   8.230  13.642   7.902 -0.0831  0.4682  0.2565
  105loPI   C6A 1676   8.576  13.578   7.683 -0.2175  0.0828 -0.0559
  105loPI   C1B 1677   7.502  14.386   9.479 -0.1703  0.0398  0.0178
  105loPI   C2B 1678   7.522  14.456   9.075  0.0750 -0.0303  0.0646
  105loPI   C3B 1679   7.669  14.494   8.701 -0.0400 -0.2217  0.0394
  105loPI   C4B 1680   7.602  14.234   8.304 -0.2365  0.1511  0.2620
  106loPI    C1 1681   1.278  12.723  10.159 -0.0586 -0.0023  0.0975
  106loPI    C2 1682   0.954  12.788   9.934 -0.0248  0.2752  0.1262
  106loPI    C3 1683   0.921  12.778  10.332 -0.0354  0.0756  0.1210
  106loPI   PO4 1684   1.453  12.913  10.043 -0.0036  0.6416 -0.1569
  106loPI   GL1 1685   1.322  12.949   9.610  0.0264  0.0540  0.1240
  106loPI   GL2 1686   1.134  13.194   9.533  0.2939  0.1797 -0.1690
  106loPI   C1A 1687   1.087  12.757   9.315 -0.0140  0.1227 -0.0410
  106loPI   C2A 1688   1.149  12.632   8.965  0.1678 -0.2305  0.0514
  106loPI   C3A 1689   1.076  12.607   8.499  0.0760  0.2541 -0.1710
  106loPI   C4A 1690   1.331  12.329   8.162 -0.0019  0.2390 -0.0675
  106loPI   C5A 1691   1.648  12.083   7.980 -0.2282  0.0510  0.1312
  106loPI   C6A 1692   1.627  11.644   7.929 -0.1533 -0.2440 -0.3255
  106loPI   C1B 1693   1.294  13.141   9.138  0.0162  0.1036  0.0597
  106loPI   C2B 1694   1.279  13.131   8.670  0.0226  0.0432  0.0542
  106loPI   C3B 1695   1.299  13.023   8.280 -0.1037 -0.3547 -0.2084
  106loPI   C4B 1696   1.456  13.050   7.881 -0.1518  0.0281 -0.2136
  107loPI    C1 1697  12.883  16.358  11.240 -0.0186 -0.1446 -0.1142
  107loPI    C2 1698  13.274  16.379  11.161 -0.0742  0.1859 -0.3202
  107loPI    C3 1699  13.142  16.440  11.534  0.0952 -0.2672 -0.1797
  107loPI   PO4 1700  12.774  16.124  10.952 -0.1422  0.0208  0.0149
  107loPI   GL1 1701  12.639  15.968  10.529 -0.2000  0.2134 -0.0687
  107loPI   GL2 1702  12.667  16.310  10.485  0.0217 -0.0964  0.1179
  107loPI   C1A 1703  12.429  15.930  10.216 -0.1721  0.0846  0.0243
  107loPI   C2A 1704  12.641  16.057   9.813 -0.1017  0.1038 -0.1604
  107loPI   C3A 1705  12.689  16.226   9.410  0.2146 -0.2984 -0.0481
  107loPI   C4A 1706  12.560  16.318   8.992 -0.0494 -0.2071 -0.2328
  107loPI   C5A 1707  12.313  16.426   8.579 -0.0321  0.0678  0.0197
  107loPI   C6A 1708  12.298  16.246   8.164 -0.0384 -0.1291  0.1209
  107loPI   C1B 1709  12.904  16.352  10.096 -0.0267  0.0926  0.3009
  107loPI   C2B 1710  13.095  16.447   9.643  0.0564 -0.2898 -0.2932
  107loPI   C3B 1711  13.078  16.405   9.170 -0.1601  0.1825  0.0912
  107loPI   C4B 1712  13.335  16.629   8.906 -0.1762 -0.4454  0.3071
  108loPI    C1 1713  16.639   8.491  10.475 -0.0995 -0.0984  0.1143
  108loPI    C2 1714  16.590   8.754  10.772  0.1707  0.1749 -0.0772
  108loPI    C3 1715  16.884   8.483  10.791  0.1248  0.1267 -0.0506
  108loPI   PO4 1716  16.564   8.624  10.275  0.1438  0.0507  0.1621
  108loPI   GL1 1717  16.499   9.006   9.995  0.0029 -0.1681 -0.3285
  108loPI   GL2 1718  16.605   9.275   9.942 -0.1615  0.0249 -0.3017
  108loPI   C1A 1719  16.530   8.783   9.512  0.1363 -0.0654 -0.2088
  108loPI   C2A 1720  16.358   8.468   9.170  0.1187 -0.1800 -0.0270
  108loPI   C3A 1721  16.439   8.320   8.734 -0.0564  0.1589 -0.1518
  108loPI   C4A 1722  16.228   7.970   8.521 -0.1097  0.0502 -0.0882
  108loPI   C5A 1723  16.002   7.819   8.219 -0.1638 -0.1037  0.1221
  108loPI   C6A 1724  15.836   7.755   7.790  0.2576 -0.2406  0.2268
  108loPI   C1B 1725  16.493   9.365   9.543  0.1124  0.0478 -0.0685
  108loPI   C2B 1726  16.570   9.593   9.139  0.2628  0.0291  0.0901
  108loPI   C3B 1727  16.333   9.587   8.737  0.1296 -0.3767  0.0904
  108loPI   C4B 1728  16.223   9.646   8.340  0.1464 -0.1595  0.2105
  109loPI    C1 1729  10.747  10.016  10.889 -0.2503 -0.0566 -0.0827
  109loPI    C2 1730  10.448  10.271  10.965  0.0409  0.1440  0.4391
  109loPI    C3 1731  10.638  10.089  11.267  0.3933 -0.0457  0.1124
  109loPI   PO4 1732  10.736   9.857  10.587  0.0038 -0.0020 -0.3402
  109loPI   GL1 1733  10.684  10.017  10.114 -0.0364 -0.0287  0.1529
  109loPI   GL2 1734  10.584   9.709  10.114 -0.0349 -0.1302  0.2497
  109loPI   C1A 1735  10.438  10.134   9.773  0.1278  0.0847  0.0844
  109loPI   C2A 1736  10.525  10.179   9.409  0.1962  0.0545  0.0883
  109loPI   C3A 1737  10.367  10.239   8.992  0.1611  0.1487  0.0008
  109loPI   C4A 1738  10.227  10.251   8.579 -0.4447  0.0759  0.0275
  109loPI   C5A 1739  10.377  10.262   8.173 -0.0481 -0.2117  0.0098
  109loPI   C6A 1740  10.319  10.661   7.999  0.1089  0.1008  0.1684
  109loPI   C1B 1741  10.726   9.708   9.654 -0.2035 -0.0343 -0.0524
  109loPI   C2B 1742  10.690   9.727   9.249  0.0684  0.0990 -0.0496
  109loPI   C3B 1743  10.662   9.901   8.910 -0.1726  0.1015 -0.0071
  109loPI   C4B 1744  10.722   9.979   8.502  0.1286 -0.3801  0.0040
  110loPI    C1 1745   5.587   9.363  10.302 -0.1441 -0.2176  0.1964
  110loPI    C2 1746   5.809   9.034  10.354 -0.1129 -0.1820  0.2892
  110loPI    C3 1747   5.636   9.211  10.668  0.0701  0.0304  0.2731
  110loPI   PO4 1748   5.540   9.428  10.037 -0.4155 -0.0230  0.2344
  110loPI   GL1 1749   5.799   9.650   9.704  0.3189 -0.0370  0.0265
  110loPI   GL2 1750   5.713   9.390   9.580  0.0510 -0.0690 -0.1080
  110loPI   C1A 1751   5.506   9.803   9.336 -0.2951 -0.2303  0.0684
  110loPI   C2A 1752   5.178   9.973   9.115 -0.1357  0.0616  0.0532
  110loPI   C3A 1753   4.963  10.018   8.735  0.1224 -0.1552 -0.1348
  110loPI   C4A 1754   4.941  10.364   8.413  0.2369 -0.0262 -0.1152
  110loPI   C5A 1755   5.299  10.565   8.257  0.2368 -0.0905  0.0067
  110loPI   C6A 1756   5.363  11.007   8.240 -0.0223  0.1515  0.3419
  110loPI   C1B 1757   5.772   9.409   9.124  0.1192  0.0845  0.1016
  110loPI   C2B 1758   5.585   9.661   8.831  0.1772  0.0025 -0.1575
  110loPI   C3B 1759   5.716   9.741   8.399 -0.0007  0.2245  0.2284
  110loPI   C4B 1760   5.860   9.748   7.995 -0.0135  0.3532 -0.1145
  111loPI    C1 1761  17.308  15.123  10.566 -0.2785  0.1561  0.1229
  111loPI    C2 1762  17.380  14.773  10.745 -0.2714  0.1081  0.0270
  111loPI    C3 1763  17.622  15.084  10.811 -0.2885  0.1008  0.1269
  111loPI   PO4 1764  17.263  15.041  10.319 -0.1691 -0.0695  0.1726
  111loPI   GL1 1765  16.956  15.117  10.033 -0.0351 -0.0289  0.0351
  111loPI   GL2 1766  16.658  14.991   9.920 -0.0385 -0.2864  0.0114
  111loPI   C1A 1767  17.195  15.183   9.705  0.1281  0.0861 -0.0072
  111loPI   C2A 1768  17.245  15.248   9.258 -0.1053  0.1400  0.0983
  111loPI   C3A 1769  17.135  15.190   8.911 -0.4832 -0.3716 -0.1622
  111loPI   C4A 1770  17.068  15.073   8.419 -0.1082  0.0124 -0.2705
  111loPI   C5A 1771  17.160  15.163   8.057 -0.0414 -0.1398 -0.3548
  111loPI   C6A 1772  17.084  15.324   7.645 -0.0225 -0.2963 -0.0241
  111loPI   C1B 1773  16.852  14.887   9.568  0.0065 -0.2581  0.0871
  111loPI   C2B 1774  16.772  14.924   9.166 -0.1909 -0.3489  0.4193
  111loPI   C3B 1775  16.316  15.087   8.949 -0.1713 -0.0176  0.1274
  111loPI   C4B 1776  16.284  15.507   8.806  0.0154  0.0359  0.1103
  112loPI    C1 1777   3.208  17.213  10.403  0.0281  0.1186 -0.0973
  112loPI    C2 1778   3.326  16.858  10.545  0.1155  0.1326 -0.1344
  112loPI    C3 1779   3.222  17.150  10.798 -0.0640  0.0448 -0.1056
  112loPI   PO4 1780   3.475  17.250  10.159 -0.1342  0.1489 -0.0767
  112loPI   GL1 1781   3.343  17.385   9.889 -0.1128  0.3063  0.0798
  112loPI   GL2 1782   3.271  17.155   9.606 -0.0406 -0.0841  0.0092
  112loPI   C1A 1783   3.373  17.635   9.554 -0.0188  0.1105 -0.1796
  112loPI   C2A 1784   3.394  17.445   9.139  0.2086 -0.0528 -0.0072
  112loPI   C3A 1785   3.217  17.383   8.730 -0.2453 -0.0904  0.1298
  112loPI   C4A 1786   3.133  17.501   8.305  0.1531  0.2906  0.3950
  112loPI   C5A 1787   3.200  17.357   7.966 -0.4585 -0.2229  0.0678
  112loPI   C6A 1788   3.057  17.186   7.603 -0.2280  0.1174 -0.1537
  112loPI   C1B 1789   2.828  17.293   9.510 -0.1304 -0.1877  0.0249
  112loPI   C2B 1790   2.747  17.203   9.011  0.1019  0.1544 -0.2228
  112loPI   C3B 1791   2.657  17.362   8.587 -0.0419 -0.0302  0.1958
  112loPI   C4B 1792   2.444  17.699   8.354 -0.1988  0.3411 -0.1871
  113loPI    C1 1793  16.383  13.635  10.816 -0.0064  0.0274  0.1304
  113loPI    C2 1794  16.642  13.653  11.120 -0.0774 -0.0152  0.1937
  113loPI    C3 1795  16.327  13.407  11.139  0.0744 -0.2331 -0.0363
  113loPI   PO4 1796  16.415  13.639  10.622  0.1510 -0.0930 -0.1102
  113loPI   GL1 1797  16.319  13.532  10.244 -0.2482  0.3350 -0.2233
  113loPI   GL2 1798  16.536  13.676   9.996 -0.4954 -0.0108  0.1150
  113loPI   C1A 1799  16.455  13.129   9.937  0.1149 -0.5015 -0.0269
  113loPI   C2A 1800  16.373  13.371   9.504  0.0143 -0.0930 -0.4445
  113loPI   C3A 1801  16.464  13.438   9.091 -0.0429 -0.2612 -0.2990
  113loPI   C4A 1802  16.339  13.574   8.664  0.1742 -0.0828 -0.3450
  113loPI   C5A 1803  16.356  13.783   8.357 -0.2887  0.0012  0.2934
  113loPI   C6A 1804  16.213  14.076   8.128  0.0414  0.0251 -0.1281
  113loPI   C1B 1805  16.764  13.842   9.653  0.0872  0.4942  0.2230
  113loPI   C2B 1806  16.621  14.012   9.180  0.4502  0.4023 -0.0919
  113loPI   C3B 1807  16.604  14.029   8.762  0.1179 -0.3854  0.0178
  113loPI   C4B 1808  16.569  14.282   8.463  0.0893 -0.0603 -0.0940
  114loPI    C1 1809   3.993   9.428  10.998  0.0449  0.0997 -0.0324
  114loPI    C2 1810   3.616   9.374  11.119  0.0466 -0.0647 -0.0974
  114loPI    C3 1811   3.890   9.091  11.188  0.1097 -0.0390 -0.2399
  114loPI   PO4 1812   3.968   9.452  10.734  0.2623  0.0079  0.1238
  114loPI   GL1 1813   3.781   9.512  10.268  0.0052  0.1365  0.0698
  114loPI   GL2 1814   3.942   9.782  10.073 -0.2099 -0.1996 -0.1713
  114loPI   C1A 1815   3.674   9.509   9.833  0.1746 -0.0505  0.0374
  114loPI   C2A 1816   3.572   9.575   9.404  0.2684  0.0843  0.1181
  114loPI   C3A 1817   3.587   9.715   8.945 -0.2201  0.1799  0.1072
  114loPI   C4A 1818   3.907   9.577   8.589 -0.1928 -0.2574  0.1075
  114loPI   C5A 1819   3.977   9.181   8.383 -0.1050  0.2198 -0.2178
  114loPI   C6A 1820   4.134   8.972   8.016 -0.2458 -0.1359  0.0350
  114loPI   C1B 1821   3.971   9.969   9.633 -0.1558  0.0762 -0.0396
  114loPI   C2B 1822   3.910  10.129   9.236  0.3001 -0.2508  0.0878
  114loPI   C3B 1823   3.999  10.104   8.794  0.2738 -0.3484  0.1359
  114loPI   C4B 1824   4.174   9.975   8.379  0.1912 -0.1426  0.1541
  115loPI    C1 1825  14.910  13.637  10.794  0.0407  0.1266  0.0296
  115loPI    C2 1826  14.980  13.243  10.790  0.0905  0.1351  0.0479
  115loPI    C3 1827  14.995  13.445  11.135 -0.0863  0.1265  0.0616
  115loPI   PO4 1828  14.784  13.676  10.518  0.0540 -0.1977  0.9757
  115loPI   GL1 1829  14.797  13.799  10.137 -0.4119 -0.1913  0.3572
  115loPI   GL2 1830  14.476  14.033  10.112 -0.0733  0.2574  0.0391
  115loPI   C1A 1831  14.648  13.532   9.800  0.0423 -0.0197  0.2137
  115loPI   C2A 1832  14.627  13.505   9.276 -0.2028  0.0072 -0.0139
  115loPI   C3A 1833  14.874  13.251   8.995 -0.0209 -0.4085  0.1501
  115loPI   C4A 1834  15.122  13.038   8.701 -0.4989  0.0726  0.1528
  115loPI   C5A 1835  14.986  13.092   8.268  0.1368  0.0383  0.1653
  115loPI   C6A 1836  14.698  13.124   8.051  0.0772  0.0036 -0.2946
  115loPI   C1B 1837  14.679  14.052   9.690 -0.0794 -0.2211  0.2906
  115loPI   C2B 1838  14.777  14.042   9.274 -0.0409 -0.0822 -0.1807
  115loPI   C3B 1839  14.725  14.242   8.819 -0.4357 -0.0280 -0.1365
  115loPI   C4B 1840  14.838  14.258   8.394  0.0436 -0.1103  0.3349
  116loPI    C1 1841   7.560  14.734  10.342  0.1156  0.2099  0.0874
  116loPI    C2 1842   7.196  14.738  10.178  0.0739  0.1295  0.1771
  116loPI    C3 1843   7.444  14.433  10.105  0.1583  0.2299  0.0410
  116loPI   PO4 1844   7.612  15.037  10.261  0.0399  0.0994 -0.2210
  116loPI   GL1 1845   7.538  15.401  10.054  0.0375 -0.1970 -0.0964
  116loPI   GL2 1846   7.302  15.633  10.075  0.1734 -0.1514 -0.0809
  116loPI   C1A 1847   7.543  15.268   9.673  0.1489  0.2052  0.1171
  116loPI   C2A 1848   7.656  15.018   9.279  0.0673  0.0957  0.1706
  116loPI   C3A 1849   7.834  15.002   8.768  0.0008  0.2655  0.3401
  116loPI   C4A 1850   7.776  14.962   8.380 -0.2903 -0.0439  0.0217
  116loPI   C5A 1851   7.697  14.692   8.009 -0.2097 -0.3821 -0.1679
  116loPI   C6A 1852   7.950  14.692   7.677 -0.0594 -0.0853  0.0826
  116loPI   C1B 1853   7.504  15.710   9.622 -0.2097 -0.1205 -0.0301
  116loPI   C2B 1854   7.393  15.640   9.256  0.0595  0.0544 -0.1419
  116loPI   C3B 1855   7.129  15.843   8.989  0.0591  0.0501  0.3522
  116loPI   C4B 1856   6.943  16.255   8.895 -0.0893 -0.2406  0.1398
  117loPI    C1 1857   6.809  15.499  10.620  0.0917 -0.0653 -0.0021
  117loPI    C2 1858   6.475  15.651  10.779  0.2545  0.2711  0.0268
  117loPI    C3 1859   6.776  15.538  11.017  0.2577  0.1987 -0.0116
  117loPI   PO4 1860   6.860  15.659  10.334 -0.0649 -0.0267 -0.0642
  117loPI   GL1 1861   6.823  15.681   9.847 -0.0048 -0.4521 -0.1397
  117loPI   GL2 1862   6.565  15.854   9.816 -0.0631 -0.1664 -0.0170
  117loPI   C1A 1863   7.070  15.899   9.620 -0.0152  0.2351 -0.1380
  117loPI   C2A 1864   7.270  16.156   9.355  0.2570 -0.1421 -0.0353
  117loPI   C3A 1865   7.491  16.339   9.119 -0.0882  0.2296  0.3888
  117loPI   C4A 1866   7.608  16.488   8.631  0.1927 -0.2162 -0.1742
  117loPI   C5A 1867   7.767  16.661   8.237  0.0058  0.1265 -0.1684
  117loPI   C6A 1868   7.672  16.747   7.907 -0.1767  0.3974  0.0031
  117loPI   C1B 1869   6.653  15.886   9.295  0.1478  0.0071 -0.1165
  117loPI   C2B 1870   6.613  15.796   8.844 -0.1107 -0.0131 -0.2327
  117loPI   C3B 1871   6.843  15.922   8.404 -0.0070  0.0736  0.0746
  117loPI   C4B 1872   7.112  15.936   7.975 -0.1847 -0.0424  0.2220
  118loPI    C1 1873   2.677  14.242  10.184 -0.0173 -0.0400 -0.1260
  118loPI    C2 1874   2.470  14.099  10.494  0.0817 -0.0521 -0.0648
  118loPI    C3 1875   2.828  14.266  10.554  0.1499 -0.1530 -0.1855
  118loPI   PO4 1876   2.483  14.261   9.996  0.1773 -0.3768  0.2454
  118loPI   GL1 1877   2.568  14.165   9.607  0.3590 -0.1680  0.0806
  118loPI   GL2 1878   2.418  14.461   9.519 -0.0378 -0.1030 -0.3409
  118loPI   C1A 1879   2.837  13.814   9.456  0.1366 -0.5334  0.1177
  118loPI   C2A 1880   2.903  13.803   8.973 -0.1561 -0.0143 -0.0324
  118loPI   C3A 1881   2.933  13.803   8.499 -0.1541 -0.1585  0.2982
  118loPI   C4A 1882   3.193  13.767   8.120  0.1136 -0.0992 -0.1347
  118loPI   C5A 1883   3.236  13.399   7.880 -0.0804 -0.0637  0.1013
  118loPI   C6A 1884   2.915  13.113   7.746 -0.1297  0.1418  0.0765
  118loPI   C1B 1885   2.255  14.750   9.299  0.3643  0.1388 -0.1353
  118loPI   C2B 1886   2.055  14.763   8.920 -0.2047 -0.0130  0.2104
  118loPI   C3B 1887   2.004  14.576   8.444  0.1162 -0.3796 -0.1779
  118loPI   C4B 1888   1.977  14.469   8.137  0.1108  0.1513  0.2147
  119loPI    C1 1889   9.980   1.275  11.129 -0.3182 -0.2305 -0.1125
  119loPI    C2 1890   9.867   1.614  11.309  0.3358 -0.0830  0.0465
  119loPI    C3 1891   9.721   1.263  11.433 -0.4282  0.1334 -0.1868
  119loPI   PO4 1892  10.012   1.314  10.868 -0.2436 -0.0564 -0.2023
  119loPI   GL1 1893   9.819   1.219  10.562  0.1668  0.3877  0.1048
  119loPI   GL2 1894   9.589   1.398  10.338 -0.2087  0.2157  0.0216
  119loPI   C1A 1895   9.868   0.848  10.296  0.2027  0.1495  0.1460
  119loPI   C2A 1896   9.772   0.746   9.846 -0.1573 -0.2680 -0.1517
  119loPI   C3A 1897   9.760   0.576   9.418 -0.0934 -0.2393  0.2120
  119loPI   C4A 1898   9.673   0.271   9.056 -0.0417 -0.0738  0.2078
  119loPI   C5A 1899   9.612   0.175   8.691  0.1118  0.0595  0.1166
  119loPI   C6A 1900   9.783   0.157   8.275  0.0130 -0.2383  0.2493
  119loPI   C1B 1901   9.777   1.202   9.972 -0.0310  0.0059  0.0784
  119loPI   C2B 1902   9.670   1.180   9.643  0.0883 -0.1459 -0.0454
  119loPI   C3B 1903   9.605   1.085   9.292 -0.2814 -0.0969 -0.1115
  119loPI   C4B 1904   9.534   1.135   8.888 -0.1159  0.0629 -0.0316
  120loPI    C1 1905   6.940   0.831  10.781 -0.0440 -0.0199 -0.1367
  120loPI    C2 1906   7.197   0.653  11.030  0.1236  0.0674 -0.2454
  120loPI    C3 1907   6.950   0.937  11.166  0.2934  0.1956 -0.2005
  120loPI   PO4 1908   7.024   0.934  10.608 -0.1174  0.0233  0.1573
  120loPI   GL1 1909   7.138   0.871  10.240  0.1653 -0.0036 -0.1311
  120loPI   GL2 1910   7.421   1.139  10.266  0.1571  0.0214 -0.2283
  120loPI   C1A 1911   6.841   0.802   9.842 -0.1490 -0.1629 -0.2378
  120loPI   C2A 1912   6.510   0.793   9.546  0.0344 -0.4502 -0.0529
  120loPI   C3A 1913   6.453   1.063   9.222  0.0250  0.2397  0.1900
  120loPI   C4A 1914   6.394   1.344   8.808  0.1275  0.2054 -0.1517
  120loPI   C5A 1915   6.181   1.433   8.564  0.1103  0.1387 -0.1994
  120loPI   C6A 1916   6.003   1.816   8.400 -0.0199  0.0234 -0.0008
  120loPI   C1B 1917   7.612   1.373   9.990 -0.1204  0.1586  0.1268
  120loPI   C2B 1918   7.710   1.696   9.789 -0.0932  0.1922  0.1927
  120loPI   C3B 1919   7.512   1.980   9.438  0.1750  0.0476 -0.2231
  120loPI   C4B 1920   7.462   2.164   9.003 -0.1945 -0.0749 -0.3007
  121loPI    C1 1921  14.399   9.532  10.879 -0.2221  0.2334 -0.0435
  121loPI    C2 1922  14.506   9.220  10.652  0.2023  0.3567 -0.0225
  121loPI    C3 1923  14.324   9.159  11.003  0.0326  0.1464 -0.1439
  121loPI   PO4 1924  14.431   9.713  10.670  0.2633 -0.3241 -0.2921
  121loPI   GL1 1925  14.592   9.735  10.324  0.2067 -0.1955 -0.1158
  121loPI   GL2 1926  14.515   9.476  10.174  0.3021 -0.0093  0.3070
  121loPI   C1A 1927  14.517   9.895   9.902 -0.2184 -0.1128  0.2179
  121loPI   C2A 1928  14.477   9.830   9.422  0.1252 -0.1155  0.2160
  121loPI   C3A 1929  14.615   9.736   8.945 -0.0250  0.1342  0.0533
  121loPI   C4A 1930  14.873   9.544   8.592  0.4681 -0.0723  0.2182
  121loPI   C5A 1931  14.740   9.215   8.280 -0.0644 -0.0850  0.0840
  121loPI   C6A 1932  14.397   9.318   8.115  0.4324  0.0049 -0.0369
  121loPI   C1B 1933  14.858   9.483   9.962 -0.2457  0.1358  0.0264
  121loPI   C2B 1934  15.163   9.532   9.622  0.0927 -0.0580 -0.1126
  121loPI   C3B 1935  15.155   9.788   9.209 -0.2694  0.1193 -0.1064
  121loPI   C4B 1936  15.165  10.074   8.760  0.2044 -0.2963  0.1322
  122loPI    C1 1937  12.371  18.271  10.893 -0.1207  0.0462 -0.2305
  122loPI    C2 1938  12.125  18.106  11.162  0.1586 -0.1258 -0.0756
  122loPI    C3 1939  11.991  18.395  10.920 -0.0315  0.2201  0.4253
  122loPI   PO4 1940  12.487  18.033  10.758  0.0082 -0.2114 -0.0007
  122loPI   GL1 1941  12.391  17.781  10.410 -0.0589 -0.0715  0.1809
  122loPI   GL2 1942  12.316  17.520  10.126 -0.0978  0.1864 -0.2180
  122loPI   C1A 1943  12.473  18.011   9.891 -0.0083 -0.1086 -0.0961
  122loPI   C2A 1944  12.074  18.015   9.638  0.0453 -0.1467 -0.1605
  122loPI   C3A 1945  12.112  18.067   9.166  0.0865  0.0890 -0.1554
  122loPI   C4A 1946  12.124  17.641   8.838  0.2528  0.0180 -0.0146
  122loPI   C5A 1947  11.946  17.518   8.519  0.0647 -0.1360  0.2954
  122loPI   C6A 1948  11.836  17.363   8.146 -0.1143 -0.1127 -0.1253
  122loPI   C1B 1949  12.264  17.503   9.751 -0.0811 -0.1358  0.2012
  122loPI   C2B 1950  11.933  17.178   9.541 -0.2632 -0.1766 -0.2083
  122loPI   C3B 1951  11.733  16.845   9.586  0.1732 -0.0470 -0.2229
  122loPI   C4B 1952  11.500  16.562   9.279  0.1658 -0.1454  0.0598
  123loPI    C1 1953   7.688   5.348  10.336 -0.0594  0.1299 -0.0943
  123loPI    C2 1954   7.877   5.508  10.650 -0.0381 -0.2033  0.0670
  123loPI    C3 1955   7.482   5.450  10.663 -0.0807  0.0370 -0.0787
  123loPI   PO4 1956   7.907   5.235  10.201  0.0903 -0.0559 -0.2712
  123loPI   GL1 1957   8.151   5.311   9.817  0.0029  0.0385  0.4626
  123loPI   GL2 1958   8.433   5.342   9.965  0.2216  0.0209 -0.1108
  123loPI   C1A 1959   7.769   5.326   9.398  0.0493 -0.0469  0.1369
  123loPI   C2A 1960   7.643   5.307   8.997  0.0706 -0.1656  0.3062
  123loPI   C3A 1961   7.713   5.368   8.464 -0.2263 -0.3013  0.2715
  123loPI   C4A 1962   7.837   5.439   8.002  0.3466  0.0191  0.1840
  123loPI   C5A 1963   7.493   5.224   7.727 -0.0253 -0.1480 -0.2963
  123loPI   C6A 1964   7.243   4.833   7.806  0.0277  0.2516  0.3760
  123loPI   C1B 1965   8.794   5.350   9.688  0.0694  0.1682 -0.1674
  123loPI   C2B 1966   8.810   5.332   9.202  0.1624 -0.0194 -0.2031
  123loPI   C3B 1967   8.651   5.408   8.709  0.3176 -0.2033  0.1433
  123loPI   C4B 1968   8.633   5.086   8.472  0.0746  0.4383  0.0338
  124loPI    C1 1969   7.638   2.669  10.415 -0.0174 -0.0543  0.0554
  124loPI    C2 1970   7.693   3.057  10.496 -0.2190 -0.0348  0.1036
  124loPI    C3 1971   7.724   2.785  10.788 -0.1452 -0.0480  0.0834
  124loPI   PO4 1972   7.574   2.588  10.199 -0.0868 -0.1430 -0.1770
  124loPI   GL1 1973   7.653   2.746   9.738  0.0192 -0.4521  0.0499
  124loPI   GL2 1974   7.934   2.662   9.798  0.1241  0.2026 -0.1283
  124loPI   C1A 1975   7.599   2.533   9.372  0.0744  0.2175 -0.0649
  124loPI   C2A 1976   7.831   2.513   8.992  0.0226  0.0708  0.1989
  124loPI   C3A 1977   8.047   2.568   8.649  0.0763  0.2258 -0.0704
  124loPI   C4A 1978   7.996   2.558   8.209 -0.3924 -0.7536 -0.0276
  124loPI   C5A 1979   7.584   2.370   7.965 -0.2002 -0.1161  0.0027
  124loPI   C6A 1980   7.256   2.356   7.634  0.4123  0.0242  0.1230
  124loPI   C1B 1981   8.089   2.617   9.401  0.2275  0.2749  0.1385
  124loPI   C2B 1982   8.366   2.491   9.025 -0.0515  0.1593  0.1182
  124loPI   C3B 1983   8.497   2.379   8.657  0.0047  0.0898  0.0394
  124loPI   C4B 1984   8.809   2.229   8.293 -0.0751 -0.3947  0.1727
  125loPI    C1 1985   6.742   2.144  10.611  0.0716 -0.0096 -0.0756
  125loPI    C2 1986   6.547   1.850  10.424  0.0234 -0.2235  0.3021
  125loPI    C3 1987   6.789   1.766  10.731 -0.1974  0.1531  0.5887
  125loPI   PO4 1988   6.830   2.344  10.400  0.0868  0.0550  0.2155
  125loPI   GL1 1989   7.046   2.452  10.034  0.0174 -0.0252 -0.0205
  125loPI   GL2 1990   6.860   2.618   9.931 -0.1306 -0.0910  0.4298
  125loPI   C1A 1991   7.038   2.157   9.624 -0.1183  0.4062 -0.0898
  125loPI   C2A 1992   6.927   1.931   9.146 -0.0742  0.2254  0.0645
  125loPI   C3A 1993   6.798   1.748   8.744  0.0174  0.1530 -0.0755
  125loPI   C4A 1994   6.607   1.549   8.350  0.0239  0.1683 -0.0767
  125loPI   C5A 1995   6.604   1.189   8.004 -0.0305 -0.1137 -0.1811
  125loPI   C6A 1996   6.565   0.822   7.915 -0.0320 -0.1356 -0.1762
  125loPI   C1B 1997   6.905   2.737   9.581  0.2387  0.0076 -0.2253
  125loPI   C2B 1998   7.125   2.521   9.275 -0.1899  0.0089  0.1764
  125loPI   C3B 1999   7.072   2.461   8.839 -0.0568  0.0835  0.1895
  125loPI   C4B 2000   7.076   2.401   8.376  0.0348  0.1770  0.1647
  126loPI    C1 2001  12.810   9.102  10.864 -0.0586 -0.1926  0.1078
  126loPI    C2 2002  13.188   9.026  10.755 -0.0559 -0.0744  0.0335
  126loPI    C3 2003  12.962   8.734  10.909  0.0342 -0.1697 -0.0138
  126loPI   PO4 2004  12.665   9.196  10.523  0.0095 -0.0027  0.2908
  126loPI   GL1 2005  12.227   9.142  10.335 -0.1959 -0.0028 -0.0208
  126loPI   GL2 2006  12.437   9.046  10.101  0.0501  0.3497  0.0049
  126loPI   C1A 2007  12.035   9.122   9.892 -0.1385  0.2032 -0.0551
  126loPI   C2A 2008  12.073   9.188   9.491 -0.4712 -0.1464 -0.3094
  126loPI   C3A 2009  12.072   9.081   8.993 -0.2833  0.3174 -0.1417
  126loPI   C4A 2010  12.016   9.302   8.581  0.0287 -0.1220 -0.1664
  126loPI   C5A 2011  11.966   9.510   8.117 -0.2329 -0.0386 -0.0507
  126loPI   C6A 2012  12.261   9.519   7.742 -0.2667  0.0986  0.1731
  126loPI   C1B 2013  12.517   9.285   9.672 -0.2247  0.0792 -0.2170
  126loPI   C2B 2014  12.524   9.082   9.226 -0.2799  0.1825 -0.0462
  126loPI   C3B 2015  12.523   9.381   8.912  0.1087  0.0412  0.2889
  126loPI   C4B 2016  12.566   9.791   8.804  0.2038  0.0820  0.1021
  127loPI    C1 2017   7.653   3.526  10.318 -0.1129 -0.1009  0.0061
  127loPI    C2 2018   7.403   3.829  10.396 -0.0541  0.0349 -0.3157
  127loPI    C3 2019   7.300   3.454  10.492 -0.0165  0.1781  0.3274
  127loPI   PO4 2020   7.624   3.525  10.031 -0.1321  0.1766  0.0970
  127loPI   GL1 2021   7.653   3.305   9.669 -0.0427 -0.1687  0.0162
  127loPI   GL2 2022   7.276   3.244   9.562 -0.0703  0.0025  0.0966
  127loPI   C1A 2023   7.757   3.026   9.294  0.0963  0.0842 -0.1507
  127loPI   C2A 2024   8.115   2.951   9.022  0.1155 -0.0884 -0.0745
  127loPI   C3A 2025   8.440   2.874   8.628 -0.1120 -0.2288 -0.0480
  127loPI   C4A 2026   8.477   2.609   8.237  0.2819  0.1140 -0.0466
  127loPI   C5A 2027   8.435   2.537   7.817 -0.1187 -0.1417  0.0010
  127loPI   C6A 2028   8.513   2.245   7.389 -0.2218 -0.1422  0.2229
  127loPI   C1B 2029   7.257   2.982   9.204 -0.0221 -0.5011  0.1369
  127loPI   C2B 2030   7.364   2.886   8.877 -0.4429 -0.2790 -0.0110
  127loPI   C3B 2031   7.515   2.653   8.534 -0.1173  0.0555  0.1067
  127loPI   C4B 2032   7.576   2.229   8.461 -0.2059 -0.1101  0.1323
  128loPI    C1 2033   3.456  18.095  10.795 -0.0682  0.0000 -0.1640
  128loPI    C2 2034   3.312  18.402  11.008 -0.1222 -0.1779  0.0597
  128loPI    C3 2035   3.111  18.056  10.993 -0.0860 -0.1888 -0.2304
  128loPI   PO4 2036   3.453  18.239  10.477 -0.2921 -0.0587  0.2070
  128loPI   GL1 2037   3.466  18.307  10.042 -0.2012 -0.1840 -0.2184
  128loPI   GL2 2038   3.261  18.045   9.986  0.0077 -0.3453  0.1544
  128loPI   C1A 2039   3.292  18.614   9.754  0.0643  0.0339  0.0164
  128loPI   C2A 2040   3.207  18.747   9.354 -0.1365  0.1465 -0.1093
  128loPI   C3A 2041   3.124  18.971   8.891  0.4569 -0.0001 -0.1994
  128loPI   C4A 2042   3.015  19.081   8.422  0.0650 -0.1466  0.3012
  128loPI   C5A 2043   3.148  18.999   8.096  0.1473 -0.0663  0.1005
  128loPI   C6A 2044   3.489  19.044   7.751  0.2802 -0.1017  0.0855
  128loPI   C1B 2045   3.485  18.126   9.533  0.1541 -0.1897  0.0622
  128loPI   C2B 2046   3.424  18.061   9.103 -0.1031 -0.0766  0.1982
  128loPI   C3B 2047   3.287  17.855   8.809 -0.0987  0.0081 -0.1877
  128loPI   C4B 2048   3.294  17.926   8.360  0.0864 -0.3042 -0.2509
  129loPI    C1 2049  15.904  10.626  10.614  0.1803 -0.1876 -0.0535
  129loPI    C2 2050  15.741  10.261  10.592  0.0441 -0.1350  0.0683
  129loPI    C3 2051  15.647  10.504  10.896  0.2543 -0.0565  0.0721
  129loPI   PO4 2052  15.897  10.735  10.412 -0.3723  0.5035  0.0323
  129loPI   GL1 2053  15.701  10.504  10.031 -0.1573  0.0882 -0.1097
  129loPI   GL2 2054  15.316  10.545   9.975  0.1201 -0.1897 -0.1169
  129loPI   C1A 2055  15.667  10.138   9.717  0.0784 -0.0469 -0.0410
  129loPI   C2A 2056  15.515  10.108   9.239 -0.1211 -0.0650  0.0156
  129loPI   C3A 2057  15.625  10.296   8.834  0.0991  0.3535 -0.0300
  129loPI   C4A 2058  15.662  10.267   8.489  0.2125 -0.2923  0.0261
  129loPI   C5A 2059  15.883  10.081   8.101 -0.0134  0.1723  0.1596
  129loPI   C6A 2060  15.597   9.891   7.784  0.2667  0.2169  0.0964
  129loPI   C1B 2061  15.341  10.481   9.530 -0.0934 -0.1245 -0.2868
  129loPI   C2B 2062  15.169  10.488   9.137 -0.1286 -0.2230 -0.2054
  129loPI   C3B 2063  14.787  10.573   8.847 -0.2292 -0.1264  0.1413
  129loPI   C4B 2064  14.472  10.732   8.527 -0.0606  0.4069  0.2969
  130loPI    C1 2065  12.905   2.188  10.752  0.0449  0.0589 -0.0636
  130loPI    C2 2066  13.156   2.480  10.859 -0.0993  0.0592  0.2869
  130loPI    C3 2067  12.837   2.398  11.086 -0.2584 -0.1330 -0.0006
  130loPI   PO4 2068  12.898   2.230  10.477 -0.1004  0.3260 -0.3747
  130loPI   GL1 2069  13.105   2.180  10.110 -0.1007 -0.1522 -0.1682
  130loPI   GL2 2070  13.391   2.038  10.158 -0.1601  0.1384 -0.1674
  130loPI   C1A 2071  13.018   2.138   9.757 -0.0812  0.0792  0.1889
  130loPI   C2A 2072  13.007   2.197   9.379 -0.4738  0.1071  0.0154
  130loPI   C3A 2073  12.869   1.928   9.008 -0.0067  0.0179 -0.1087
  130loPI   C4A 2074  13.008   1.807   8.480  0.1390  0.2005 -0.0666
  130loPI   C5A 2075  13.164   1.942   8.027  0.0233 -0.0411 -0.2253
  130loPI   C6A 2076  13.493   2.206   7.986  0.1460  0.0863 -0.1657
  130loPI   C1B 2077  13.450   1.984   9.799 -0.1355  0.4029  0.1658
  130loPI   C2B 2078  13.488   2.143   9.405  0.1600  0.0795 -0.0481
  130loPI   C3B 2079  13.371   2.169   8.959  0.2822 -0.2984 -0.1988
  130loPI   C4B 2080  13.428   2.184   8.465  0.0471  0.0719 -0.2335
  131loPI    C1 2081  12.489   7.005  10.398 -0.0468  0.2786 -0.2412
  131loPI    C2 2082  12.377   6.968  10.781  0.0203  0.0897 -0.2385
  131loPI    C3 2083  12.338   7.320  10.593 -0.1436  0.1467 -0.1003
  131loPI   PO4 2084  12.406   6.713  10.299  0.0091 -0.1418 -0.1453
  131loPI   GL1 2085  12.229   6.773   9.903 -0.1503  0.0427 -0.0041
  131loPI   GL2 2086  11.876   6.738   9.934  0.2916 -0.0352  0.1342
  131loPI   C1A 2087  12.464   6.880   9.427 -0.2031 -0.1296 -0.0342
  131loPI   C2A 2088  12.480   6.975   8.954 -0.1898 -0.2660 -0.2905
  131loPI   C3A 2089  12.449   6.964   8.528 -0.1317 -0.1795 -0.0940
  131loPI   C4A 2090  12.242   6.779   8.137 -0.1456  0.1522 -0.2345
  131loPI   C5A 2091  12.266   6.439   7.923 -0.1985 -0.0509 -0.1318
  131loPI   C6A 2092  12.640   6.315   7.754  0.0573 -0.1032  0.1606
  131loPI   C1B 2093  11.952   6.740   9.505 -0.2361  0.2030 -0.1799
  131loPI   C2B 2094  11.983   6.809   9.029  0.0814 -0.2441 -0.0307
  131loPI   C3B 2095  11.897   6.716   8.681  0.0468  0.2721  0.3941
  131loPI   C4B 2096  11.765   6.418   8.396  0.0937  0.0988 -0.2700
  132loPI    C1 2097  10.790   8.821  10.324  0.1395  0.2906 -0.1700
  132loPI    C2 2098  11.034   8.512  10.253  0.0600  0.2077 -0.0858
  132loPI    C3 2099  11.184   8.863  10.373  0.1280  0.1187  0.0940
  132loPI   PO4 2100  10.661   8.835  10.134  0.2817  0.1361  0.0467
  132loPI   GL1 2101  10.858   8.714   9.827 -0.0652 -0.1753  0.3042
  132loPI   GL2 2102  10.860   8.328   9.800 -0.0416  0.0609 -0.1923
  132loPI   C1A 2103  10.777   8.758   9.393  0.0689 -0.0506 -0.2745
  132loPI   C2A 2104  10.777   8.849   9.001 -0.2880 -0.0670 -0.1542
  132loPI   C3A 2105  10.603   8.700   8.553 -0.1492 -0.0773 -0.0293
  132loPI   C4A 2106  10.205   8.676   8.389 -0.0903  0.2578 -0.3752
  132loPI   C5A 2107   9.942   8.746   8.026  0.1589 -0.0521 -0.0003
  132loPI   C6A 2108   9.498   8.692   8.120 -0.3485 -0.0642  0.5006
  132loPI   C1B 2109  10.968   8.149   9.533  0.0824 -0.1215 -0.2594
  132loPI   C2B 2110  11.139   8.092   9.165  0.1372 -0.0811  0.5263
  132loPI   C3B 2111  11.249   7.983   8.833  0.2032 -0.1446  0.1502
  132loPI   C4B 2112  11.147   7.501   8.752  0.0281 -0.2894  0.1412
  133loPI    C1 2113  15.587  11.050  10.684 -0.0977  0.1567 -0.0025
  133loPI    C2 2114  15.726  11.338  10.924  0.1041 -0.0242  0.1011
  133loPI    C3 2115  15.566  11.006  11.081 -0.2102  0.0674 -0.0176
  133loPI   PO4 2116  15.445  11.201  10.518 -0.3165 -0.1474  0.0027
  133loPI   GL1 2117  15.273  11.253  10.153  0.0677 -0.0537 -0.1410
  133loPI   GL2 2118  15.417  11.011  10.050 -0.0615 -0.1018 -0.1375
  133loPI   C1A 2119  15.063  11.302   9.710  0.0799 -0.0438  0.2068
  133loPI   C2A 2120  14.627  11.351   9.373 -0.1554  0.0865 -0.0979
  133loPI   C3A 2121  14.505  11.515   8.925  0.0819  0.1311  0.0400
  133loPI   C4A 2122  14.335  11.573   8.477  0.0427 -0.1024  0.1647
  133loPI   C5A 2123  14.376  11.588   8.104 -0.2197  0.0054 -0.0979
  133loPI   C6A 2124  14.392  11.244   7.885  0.0383  0.1592 -0.2285
  133loPI   C1B 2125  15.452  10.956   9.709 -0.1058  0.1966  0.0473
  133loPI   C2B 2126  15.218  10.959   9.241  0.1751  0.0682 -0.5909
  133loPI   C3B 2127  14.876  11.122   9.005 -0.3645 -0.3865  0.0381
  133loPI   C4B 2128  14.449  11.034   8.880  0.2213  0.0765 -0.1097
  134loPI    C1 2129  11.803  10.958  10.812  0.0997  0.0203  0.1224
  134loPI    C2 2130  11.469  11.091  10.638  0.2551 -0.0669 -0.2531
  134loPI    C3 2131  11.520  11.134  11.033 -0.1876 -0.0359 -0.1941
  134loPI   PO4 2132  11.918  10.715  10.614 -0.1261  0.1860  0.1199
  134loPI   GL1 2133  11.952  10.386  10.398 -0.1621  0.2731  0.1937
  134loPI   GL2 2134  11.912  10.562  10.149  0.1871 -0.1978  0.0203
  134loPI   C1A 2135  12.154  10.190   9.957 -0.1399 -0.0492  0.0195
  134loPI   C2A 2136  12.222  10.210   9.481  0.2950  0.2927  0.1609
  134loPI   C3A 2137  12.250  10.125   8.982 -0.1578 -0.1127 -0.4153
  134loPI   C4A 2138  12.145  10.308   8.620 -0.2956 -0.1137  0.1264
  134loPI   C5A 2139  12.206  10.575   8.337 -0.0158 -0.0668  0.3791
  134loPI   C6A 2140  12.283  11.028   8.132 -0.0745 -0.2977  0.1446
  134loPI   C1B 2141  11.908  10.514   9.676 -0.2395 -0.2844  0.0646
  134loPI   C2B 2142  11.977  10.501   9.169 -0.0519  0.3385 -0.1355
  134loPI   C3B 2143  11.687  10.578   8.769  0.0458  0.0300  0.2255
  134loPI   C4B 2144  11.482  10.897   8.558  0.1524  0.2707 -0.3312
  135loPI    C1 2145  10.082   3.963  10.408 -0.0485 -0.0585  0.0159
  135loPI    C2 2146   9.973   4.297  10.599 -0.0151  0.0249 -0.1095
  135loPI    C3 2147   9.873   3.940  10.748  0.1693  0.0829  0.1619
  135loPI   PO4 2148  10.026   4.095  10.085  0.1717 -0.1968 -0.1136
  135loPI   GL1 2149  10.292   4.201   9.757 -0.3291  0.0893  0.0711
  135loPI   GL2 2150  10.614   4.154   9.638 -0.1941  0.2412  0.0516
  135loPI   C1A 2151  10.218   4.261   9.373 -0.0492 -0.0152 -0.1771
  135loPI   C2A 2152  10.198   4.408   8.924  0.3060 -0.0816 -0.0548
  135loPI   C3A 2153  10.107   4.392   8.510 -0.0985  0.1826 -0.2657
  135loPI   C4A 2154   9.887   4.217   8.220 -0.0229 -0.0443  0.1352
  135loPI   C5A 2155  10.042   4.070   7.873  0.0500 -0.1359 -0.3660
  135loPI   C6A 2156  10.272   4.143   7.594 -0.2887  0.2577 -0.0210
  135loPI   C1B 2157  10.575   4.045   9.129  0.1443  0.0254  0.1220
  135loPI   C2B 2158  10.440   4.006   8.673  0.5135 -0.1377 -0.2432
  135loPI   C3B 2159  10.388   4.042   8.280  0.1334  0.3993 -0.0779
  135loPI   C4B 2160  10.713   3.856   8.090 -0.0638 -0.0128  0.0806
  136loPI    C1 2161  18.022  16.656  10.387 -0.4738 -0.0455 -0.1854
  136loPI    C2 2162  17.978  16.771  10.767 -0.1287  0.2171 -0.2201
  136loPI    C3 2163  17.951  16.384  10.671 -0.1497  0.1416  0.0818
  136loPI   PO4 2164  18.276  16.870  10.319  0.2974 -0.0915 -0.0842
  136loPI   GL1 2165  18.356  17.109   9.864  0.0416  0.1445 -0.0272
  136loPI   GL2 2166  17.988  16.942   9.941 -0.0563  0.1862 -0.3347
  136loPI   C1A 2167  18.689  17.450   9.728 -0.2565  0.3635  0.2671
  136loPI   C2A 2168  18.915  17.614   9.469  0.0412  0.2326 -0.0201
  136loPI   C3A 2169  19.116  17.768   9.247 -0.1848 -0.0411 -0.0253
  136loPI   C4A 2170  19.292  17.769   8.812  0.3416  0.0107  0.0601
  136loPI   C5A 2171  19.522  17.704   8.569  0.1387  0.2839  0.0462
  136loPI   C6A 2172  19.538  17.675   8.135 -0.1823 -0.1205 -0.0963
  136loPI   C1B 2173  17.989  17.177   9.520  0.2143 -0.0974 -0.0668
  136loPI   C2B 2174  17.936  17.304   9.114 -0.0086 -0.0030  0.2224
  136loPI   C3B 2175  18.072  17.434   8.803 -0.0985 -0.1514 -0.2749
  136loPI   C4B 2176  18.324  17.580   8.555 -0.0416 -0.0649  0.1461
  137loPI    C1 2177   4.980  11.250  10.436 -0.0654  0.0345 -0.0907
  137loPI    C2 2178   5.164  11.545  10.634  0.0267 -0.1604  0.1179
  137loPI    C3 2179   4.776  11.472  10.698 -0.0977  0.1660 -0.2251
  137loPI   PO4 2180   5.128  11.289  10.208  0.2347  0.1101 -0.0412
  137loPI   GL1 2181   4.916  11.531   9.856  0.0618 -0.0561  0.0447
  137loPI   GL2 2182   4.728  11.200   9.837 -0.0858 -0.1388  0.0902
  137loPI   C1A 2183   4.833  11.677   9.451 -0.0960 -0.0150 -0.0090
  137loPI   C2A 2184   4.939  11.616   8.875  0.0288  0.1352 -0.2636
  137loPI   C3A 2185   5.031  11.733   8.505  0.0934  0.0047  0.3803
  137loPI   C4A 2186   4.882  12.098   8.264  0.1845 -0.0812 -0.0339
  137loPI   C5A 2187   5.010  12.316   7.865 -0.2331  0.1639 -0.2405
  137loPI   C6A 2188   5.448  12.550   7.775  0.0361  0.0304 -0.3636
  137loPI   C1B 2189   4.924  11.130   9.475 -0.0656  0.1693 -0.0977
  137loPI   C2B 2190   4.990  11.072   9.008  0.0041 -0.1196  0.1519
  137loPI   C3B 2191   4.972  11.128   8.477  0.3327  0.2543  0.1993
  137loPI   C4B 2192   4.947  11.355   8.112  0.0666 -0.3271 -0.1319
  138loPI    C1 2193   8.364   0.996  10.910 -0.1459 -0.0792  0.2344
  138loPI    C2 2194   8.694   0.776  10.964  0.0775  0.0803 -0.3900
  138loPI    C3 2195   8.333   0.604  10.983  0.1903 -0.1132  0.2114
  138loPI   PO4 2196   8.420   1.054  10.659 -0.0205 -0.0732  0.2596
  138loPI   GL1 2197   8.469   0.796  10.225 -0.1400 -0.0104  0.1372
  138loPI   GL2 2198   8.330   0.545  10.158  0.1373  0.1452  0.1560
  138loPI   C1A 2199   8.566   1.207   9.919  0.4686 -0.0965 -0.1508
  138loPI   C2A 2200   8.516   1.174   9.447  0.0055  0.1358 -0.0020
  138loPI   C3A 2201   8.573   1.012   8.928 -0.2737 -0.1622  0.3606
  138loPI   C4A 2202   8.498   0.982   8.342  0.0789  0.0085 -0.0940
  138loPI   C5A 2203   8.472   0.955   7.916  0.3393 -0.2180 -0.0069
  138loPI   C6A 2204   8.464   0.664   7.523  0.2687 -0.3197  0.0778
  138loPI   C1B 2205   8.302   0.737   9.744  0.0466 -0.3275  0.0240
  138loPI   C2B 2206   8.381   0.720   9.332  0.0859 -0.1423  0.0282
  138loPI   C3B 2207   8.344   0.612   8.882 -0.1799  0.0345 -0.0708
  138loPI   C4B 2208   8.205   0.579   8.439 -0.2016  0.0517  0.1440
  139loPI    C1 2209   9.238   6.789  10.170 -0.1710 -0.2469  0.0287
  139loPI    C2 2210   9.431   6.732  10.516 -0.1705  0.0078  0.0729
  139loPI    C3 2211   9.040   6.650  10.489 -0.1535 -0.0868  0.1107
  139loPI   PO4 2212   9.373   7.048  10.127  0.2053 -0.0395  0.4341
  139loPI   GL1 2213   9.482   7.167   9.797 -0.0490 -0.0352 -0.2079
  139loPI   GL2 2214   9.376   7.537   9.865 -0.0260 -0.0228  0.2652
  139loPI   C1A 2215   9.548   6.951   9.525  0.0506  0.0759  0.1504
  139loPI   C2A 2216   9.568   7.155   9.129  0.1002 -0.1527  0.0080
  139loPI   C3A 2217   9.637   7.205   8.693  0.1552 -0.4068  0.2244
  139loPI   C4A 2218   9.551   7.107   8.257 -0.1213  0.0532 -0.0337
  139loPI   C5A 2219   9.438   6.707   8.046 -0.0352 -0.0264  0.0029
  139loPI   C6A 2220   9.435   6.424   7.661  0.1418 -0.1985 -0.1588
  139loPI   C1B 2221   9.655   7.552   9.528 -0.0401 -0.2644  0.3112
  139loPI   C2B 2222   9.699   7.633   9.037  0.0027  0.1686 -0.1680
  139loPI   C3B 2223   9.750   7.695   8.578 -0.0625 -0.1993  0.0228
  139loPI   C4B 2224   9.923   7.857   8.222 -0.1187  0.0675  0.1535
  140loPI    C1 2225  18.208   1.171  10.443  0.0574 -0.0035 -0.1460
  140loPI    C2 2226  18.100   0.923  10.738  0.1374 -0.0206 -0.1310
  140loPI    C3 2227  18.059   1.318  10.784  0.2396 -0.0179 -0.0590
  140loPI   PO4 2228  18.023   1.032  10.266  0.0030 -0.0427 -0.0400
  140loPI   GL1 2229  18.064   0.928   9.938 -0.0614 -0.2187  0.1500
  140loPI   GL2 2230  18.019   1.221   9.789  0.1766  0.1378  0.0439
  140loPI   C1A 2231  17.797   0.850   9.497  0.0866 -0.1686 -0.0531
  140loPI   C2A 2232  17.608   0.815   9.147 -0.2799 -0.1887 -0.3524
  140loPI   C3A 2233  17.652   0.811   8.809 -0.2729  0.0378  0.2965
  140loPI   C4A 2234  17.846   0.926   8.337 -0.0706  0.1339  0.2846
  140loPI   C5A 2235  18.010   0.781   7.938 -0.1840 -0.0020 -0.1054
  140loPI   C6A 2236  18.414   0.527   8.048  0.0581  0.0425 -0.1820
  140loPI   C1B 2237  18.141   1.482   9.368  0.2605  0.3903 -0.1868
  140loPI   C2B 2238  18.049   1.575   8.895  0.4561  0.1676 -0.1951
  140loPI   C3B 2239  18.056   1.418   8.573 -0.5001  0.2217 -0.0216
  140loPI   C4B 2240  18.149   1.655   8.138  0.0457  0.0552 -0.1351
  141loPI    C1 2241   6.975   5.015  10.363  0.1155  0.0390 -0.0341
  141loPI    C2 2242   6.817   4.873  10.702 -0.2789  0.1788 -0.1536
  141loPI    C3 2243   6.991   5.233  10.698 -0.0133  0.0548 -0.0377
  141loPI   PO4 2244   6.958   4.830  10.219 -0.0852 -0.0188 -0.1152
  141loPI   GL1 2245   7.086   4.719   9.885  0.1749  0.0168  0.1301
  141loPI   GL2 2246   6.785   4.472   9.930  0.2596  0.0633  0.2440
  141loPI   C1A 2247   7.038   4.955   9.445 -0.0096 -0.1723 -0.1117
  141loPI   C2A 2248   7.208   5.019   9.103 -0.1776 -0.2690  0.0658
  141loPI   C3A 2249   7.346   5.030   8.708  0.0226 -0.0730 -0.0012
  141loPI   C4A 2250   7.254   5.109   8.212 -0.0879 -0.0189  0.0957
  141loPI   C5A 2251   6.984   5.288   7.957 -0.0083  0.0162  0.3442
  141loPI   C6A 2252   7.022   5.219   7.496 -0.0317  0.1265 -0.0259
  141loPI   C1B 2253   6.674   4.579   9.462 -0.1560 -0.0078 -0.0760
  141loPI   C2B 2254   6.787   4.605   9.014  0.0995  0.1522  0.0222
  141loPI   C3B 2255   6.941   4.698   8.587  0.1159 -0.2601  0.0772
  141loPI   C4B 2256   6.862   4.816   8.228  0.2889  0.3439  0.1658
  142loPI    C1 2257  15.361   2.470  10.534  0.0820 -0.1304 -0.1739
  142loPI    C2 2258  15.487   2.728  10.812  0.1630 -0.1550 -0.1872
  142loPI    C3 2259  15.199   2.464  10.900  0.0104  0.0038 -0.2027
  142loPI   PO4 2260  15.624   2.414  10.418 -0.0332 -0.1601  0.1132
  142loPI   GL1 2261  15.569   2.156  10.098  0.1502  0.0865  0.4170
  142loPI   GL2 2262  15.270   2.135  10.070  0.0416 -0.0926 -0.2696
  142loPI   C1A 2263  15.721   2.298   9.720  0.4478  0.1797  0.2703
  142loPI   C2A 2264  15.975   2.562   9.443  0.0444 -0.1583 -0.2554
  142loPI   C3A 2265  15.869   2.562   9.010  0.2253  0.0003  0.1340
  142loPI   C4A 2266  15.905   2.552   8.516 -0.0223  0.1623  0.2239
  142loPI   C5A 2267  15.861   2.694   8.136  0.4331 -0.2007  0.1321
  142loPI   C6A 2268  15.704   2.892   7.780 -0.1863 -0.0858 -0.4832
  142loPI   C1B 2269  15.206   2.101   9.681 -0.0985  0.0603  0.0132
  142loPI   C2B 2270  15.236   2.090   9.332  0.2266 -0.1218  0.2555
  142loPI   C3B 2271  15.365   2.064   8.918  0.2494 -0.0153 -0.1395
  142loPI   C4B 2272  15.351   1.913   8.422 -0.2193 -0.1161 -0.0754
  143loPI    C1 2273  14.055   1.876  10.682  0.1578  0.1842  0.1005
  143loPI    C2 2274  14.450   1.912  10.634  0.2059 -0.0524  0.3032
  143loPI    C3 2275  14.296   1.867  11.000 -0.0482  0.4771  0.2703
  143loPI   PO4 2276  13.921   1.788  10.364 -0.0018 -0.3172  0.2709
  143loPI   GL1 2277  13.845   1.631  10.023  0.0073  0.0064 -0.1677
  143loPI   GL2 2278  14.229   1.836   9.967  0.0644  0.0290 -0.1938
  143loPI   C1A 2279  13.832   1.528   9.605 -0.1084 -0.0655  0.2701
  143loPI   C2A 2280  13.762   1.408   9.223 -0.1531  0.0491  0.2218
  143loPI   C3A 2281  13.786   1.494   8.781 -0.0443 -0.0323 -0.0708
  143loPI   C4A 2282  13.896   1.400   8.284 -0.1109  0.0358 -0.2435
  143loPI   C5A 2283  14.329   1.286   7.993 -0.0873  0.0025  0.3499
  143loPI   C6A 2284  14.751   1.024   8.021 -0.0210  0.3482 -0.2595
  143loPI   C1B 2285  14.399   1.640   9.670 -0.2222 -0.1510  0.0577
  143loPI   C2B 2286  14.339   1.648   9.310 -0.3192 -0.0721 -0.2005
  143loPI   C3B 2287  14.262   1.636   8.922 -0.1263  0.0756 -0.1747
  143loPI   C4B 2288  14.312   1.599   8.454 -0.0824 -0.1415  0.0783
  144loPI    C1 2289   9.960   0.436  11.138 -0.1079 -0.0084 -0.0882
  144loPI    C2 2290   9.787   0.652  11.427 -0.0733 -0.1518  0.0407
  144loPI    C3 2291  10.128   0.456  11.501  0.0010 -0.0900 -0.1335
  144loPI   PO4 2292   9.887   0.480  10.907 -0.1150 -0.1877  0.0182
  144loPI   GL1 2293   9.888   0.152  10.565  0.2299  0.0979 -0.2561
  144loPI   GL2 2294  10.191   0.424  10.561 -0.0435  0.1564 -0.2373
  144loPI   C1A 2295   9.956   0.252  10.106 -0.3434  0.3560 -0.2104
  144loPI   C2A 2296  10.119   0.383   9.689  0.0714 -0.4434  0.0948
  144loPI   C3A 2297  10.524   0.631   9.542  0.2379  0.2238 -0.1029
  144loPI   C4A 2298  10.628   0.800   9.209 -0.2203  0.1541 -0.1682
  144loPI   C5A 2299  10.518   0.799   8.760 -0.0128  0.0132 -0.1278
  144loPI   C6A 2300  10.746   0.835   8.395  0.0281  0.1779 -0.1201
  144loPI   C1B 2301  10.372   0.614  10.198 -0.0568 -0.1703  0.0341
  144loPI   C2B 2302  10.747   0.811  10.017 -0.0333  0.2136 -0.0034
  144loPI   C3B 2303  10.995   1.139   9.897 -0.0599 -0.0344  0.2206
  144loPI   C4B 2304  11.031   1.517   9.577 -0.2324  0.0012 -0.0761
  145loPI    C1 2305   3.497  10.824  10.853 -0.0437  0.0628 -0.0350
  145loPI    C2 2306   3.794  10.752  11.110  0.0231  0.0999 -0.1015
  145loPI    C3 2307   3.414  10.726  11.232  0.0533  0.0515 -0.0164
  145loPI   PO4 2308   3.605  10.642  10.524  0.0446 -0.0278 -0.2084
  145loPI   GL1 2309   3.468  10.208  10.348 -0.1867 -0.1292 -0.0480
  145loPI   GL2 2310   3.500   9.976  10.223  0.0718 -0.2008  0.0860
  145loPI   C1A 2311   3.481  10.351   9.800  0.1254 -0.1888  0.1551
  145loPI   C2A 2312   3.580  10.530   9.355 -0.0199 -0.1177  0.1215
  145loPI   C3A 2313   3.681  10.665   8.961 -0.1419  0.0168  0.1969
  145loPI   C4A 2314   3.591  10.716   8.519 -0.1379 -0.1044  0.1621
  145loPI   C5A 2315   3.815  10.920   8.179 -0.2423  0.0222 -0.0125
  145loPI   C6A 2316   4.102  11.181   7.922 -0.0944 -0.0123  0.0398
  145loPI   C1B 2317   3.383   9.898   9.742  0.1954 -0.3321 -0.0210
  145loPI   C2B 2318   3.424  10.028   9.318  0.1332 -0.0759 -0.0006
  145loPI   C3B 2319   3.489  10.246   8.951 -0.0149  0.1644 -0.4185
  145loPI   C4B 2320   3.150  10.288   8.548  0.4805 -0.3284  0.1309
  146loPI    C1 2321   6.089   6.863  10.605 -0.3562 -0.0339  0.2862
  146loPI    C2 2322   6.167   6.930  10.991  0.0225  0.2827  0.1624
  146loPI    C3 2323   6.248   7.212  10.720  0.1655 -0.0961 -0.1998
  146loPI   PO4 2324   6.224   6.737  10.451 -0.4788  0.0852  0.0567
  146loPI   GL1 2325   6.226   6.688  10.002  0.1083 -0.1029 -0.3490
  146loPI   GL2 2326   6.044   6.954   9.982  0.0522 -0.1021 -0.0420
  146loPI   C1A 2327   6.119   6.490   9.622  0.1613  0.1581 -0.1249
  146loPI   C2A 2328   6.008   6.595   9.247 -0.2368 -0.0827 -0.1746
  146loPI   C3A 2329   5.878   6.646   8.847  0.1073 -0.1492  0.3747
  146loPI   C4A 2330   5.935   6.855   8.430 -0.3324 -0.0582  0.0040
  146loPI   C5A 2331   5.797   7.169   8.214 -0.1066 -0.0743 -0.2681
  146loPI   C6A 2332   5.902   7.248   7.734  0.1391 -0.1745  0.1962
  146loPI   C1B 2333   5.777   6.991   9.602 -0.2308  0.0717  0.1356
  146loPI   C2B 2334   5.639   7.017   9.178 -0.2194  0.0385  0.1901
  146loPI   C3B 2335   5.580   7.086   8.743 -0.0463  0.0210 -0.1410
  146loPI   C4B 2336   5.345   7.036   8.263  0.1587 -0.1672 -0.4529
  147loPI    C1 2337   5.204   3.758  10.192 -0.0488 -0.0573 -0.0500
  147loPI    C2 2338   5.041   4.074  10.009 -0.1071  0.0789  0.2313
  147loPI    C3 2339   4.973   4.012  10.398  0.2491 -0.0444  0.2771
  147loPI   PO4 2340   5.533   3.763  10.193 -0.4081  0.2360  0.3249
  147loPI   GL1 2341   5.794   4.057  10.122  0.1268 -0.0594 -0.2297
  147loPI   GL2 2342   5.505   4.263  10.008 -0.0802 -0.0826 -0.1727
  147loPI   C1A 2343   5.814   4.140   9.662  0.1319 -0.0855  0.3486
  147loPI   C2A 2344   5.711   3.997   9.337  0.0222  0.0369  0.0401
  147loPI   C3A 2345   5.739   4.107   8.903  0.0338 -0.0011 -0.0760
  147loPI   C4A 2346   5.646   3.937   8.529  0.3449 -0.0823  0.2463
  147loPI   C5A 2347   5.643   3.688   8.187  0.0021  0.1042  0.1191
  147loPI   C6A 2348   5.839   3.649   7.911 -0.1208  0.2620  0.1141
  147loPI   C1B 2349   5.349   4.416   9.559  0.1046  0.4255 -0.0317
  147loPI   C2B 2350   5.289   4.367   9.183  0.0701 -0.1237  0.0210
  147loPI   C3B 2351   5.241   4.205   8.776  0.1430  0.3092  0.0772
  147loPI   C4B 2352   5.089   4.247   8.317  0.0858 -0.0710 -0.2397
  148loPI    C1 2353   0.267   1.716  10.536  0.0491  0.2184  0.1169
  148loPI    C2 2354   0.162   1.776  10.917 -0.3637 -0.1082  0.0616
  148loPI    C3 2355   0.156   1.406  10.763  0.0535 -0.0154 -0.1927
  148loPI   PO4 2356   0.138   1.975  10.290 -0.1540 -0.0116  0.3077
  148loPI   GL1 2357   0.396   2.217   9.986  0.3996  0.1473 -0.0295
  148loPI   GL2 2358   0.433   2.029   9.849 -0.1017 -0.3156  0.1247
  148loPI   C1A 2359   0.041   2.361   9.690  0.2984 -0.2269 -0.3040
  148loPI   C2A 2360  -0.116   2.670   9.407  0.1478  0.1475  0.2190
  148loPI   C3A 2361  -0.149   2.994   9.052 -0.0648  0.0939  0.0753
  148loPI   C4A 2362  -0.507   3.019   8.759 -0.3367 -0.1873 -0.1222
  148loPI   C5A 2363  -0.773   2.944   8.456  0.2907 -0.1593  0.1417
  148loPI   C6A 2364  -1.028   3.204   8.168 -0.1975  0.1873 -0.2328
  148loPI   C1B 2365   0.336   2.022   9.470 -0.1326  0.1745  0.0922
  148loPI   C2B 2366   0.578   1.848   9.036  0.2781 -0.1606 -0.2100
  148loPI   C3B 2367   0.636   2.011   8.654  0.1367 -0.3506  0.0001
  148loPI   C4B 2368   0.780   2.012   8.254  0.0856 -0.1829  0.2761
  149loPI    C1 2369   0.963  14.972  10.287 -0.0156 -0.0102  0.1946
  149loPI    C2 2370   0.811  15.304  10.449 -0.1761 -0.0071  0.0393
  149loPI    C3 2371   1.173  15.177  10.558 -0.1807  0.1300  0.2181
  149loPI   PO4 2372   0.902  15.043   9.988  0.2889  0.2956 -0.3245
  149loPI   GL1 2373   1.108  15.279   9.617  0.5868 -0.0359  0.0122
  149loPI   GL2 2374   1.372  15.189   9.754 -0.0025 -0.0150  0.1650
  149loPI   C1A 2375   1.034  15.162   9.200 -0.1458  0.2760 -0.0858
  149loPI   C2A 2376   0.785  15.179   8.845  0.1001  0.1212  0.0483
  149loPI   C3A 2377   0.619  15.218   8.346  0.0172 -0.3418 -0.1047
  149loPI   C4A 2378   0.534  15.620   8.043  0.0912 -0.1572  0.0615
  149loPI   C5A 2379   0.633  15.979   7.776  0.0096  0.0871  0.0635
  149loPI   C6A 2380   0.884  16.244   7.464 -0.1625 -0.0341 -0.0560
  149loPI   C1B 2381   1.507  15.338   9.310 -0.1720 -0.1683 -0.1891
  149loPI   C2B 2382   1.340  15.263   8.865  0.0802  0.2137  0.2615
  149loPI   C3B 2383   1.213  15.136   8.548  0.0400 -0.2874  0.0819
  149loPI   C4B 2384   1.061  15.074   8.291  0.0938 -0.1974  0.2795
  150loPI    C1 2385  10.034  17.888  11.095  0.0390  0.1071  0.1138
  150loPI    C2 2386   9.684  17.695  11.077  0.1228 -0.0455  0.0986
  150loPI    C3 2387   9.936  17.625  11.380  0.1842 -0.0115  0.0556
  150loPI   PO4 2388  10.132  17.846  10.902 -0.0677 -0.0497 -0.0708
  150loPI   GL1 2389  10.390  17.749  10.456 -0.1443  0.1108 -0.2065
  150loPI   GL2 2390  10.224  17.957  10.391 -0.2925  0.0095  0.1168
  150loPI   C1A 2391  10.290  17.462  10.154 -0.0154 -0.3666 -0.1222
  150loPI   C2A 2392  10.142  17.535   9.704  0.0062  0.2110 -0.1333
  150loPI   C3A 2393  10.160  17.213   9.423 -0.0853 -0.5018 -0.1428
  150loPI   C4A 2394   9.911  17.253   9.009  0.0509  0.0122  0.4242
  150loPI   C5A 2395  10.091  17.226   8.556 -0.0502  0.0621  0.0213
  150loPI   C6A 2396  10.351  17.442   8.303  0.1150  0.0201 -0.2538
  150loPI   C1B 2397  10.374  17.960   9.981 -0.3128 -0.1417 -0.2207
  150loPI   C2B 2398  10.652  18.024   9.575 -0.0268  0.2075 -0.0403
  150loPI   C3B 2399  10.655  18.133   9.131  0.0096 -0.0679 -0.1799
  150loPI   C4B 2400  10.422  18.052   8.645 -0.2349 -0.2149  0.1318
  151loPI    C1 2401   9.606  18.100  10.847 -0.1734  0.0329 -0.0509
  151loPI    C2 2402   9.860  18.336  11.046 -0.1055 -0.1447  0.0743
  151loPI    C3 2403   9.528  18.491  10.886  0.0430  0.0746 -0.0264
  151loPI   PO4 2404   9.734  18.039  10.651  0.1579 -0.0146 -0.3824
  151loPI   GL1 2405   9.615  17.916  10.258  0.1616 -0.0718 -0.0277
  151loPI   GL2 2406   9.802  18.189  10.185  0.0935  0.1187  0.0720
  151loPI   C1A 2407   9.715  17.683   9.880 -0.2187 -0.1403 -0.1793
  151loPI   C2A 2408   9.751  17.858   9.435  0.0277  0.3653  0.1154
  151loPI   C3A 2409   9.453  17.725   9.160 -0.0992 -0.1440  0.2459
  151loPI   C4A 2410   9.015  17.602   9.187 -0.1270 -0.1692 -0.0611
  151loPI   C5A 2411   8.775  17.655   9.430  0.1515 -0.2470 -0.1441
  151loPI   C6A 2412   8.677  17.780   9.929  0.1560 -0.0039  0.2137
  151loPI   C1B 2413   9.971  18.221   9.803 -0.0195  0.4157  0.3566
  151loPI   C2B 2414  10.154  18.212   9.397 -0.1217  0.3039 -0.1281
  151loPI   C3B 2415  10.188  18.329   8.980  0.1425  0.1027 -0.0267
  151loPI   C4B 2416  10.148  18.675   8.698 -0.0691 -0.2047  0.4381
  152loPI    C1 2417   2.704  13.544  10.419 -0.0010  0.1068 -0.0056
  152loPI    C2 2418   2.946  13.452  10.723 -0.2209 -0.1540  0.0954
  152loPI    C3 2419   2.686  13.181  10.587 -0.0718 -0.0673 -0.3787
  152loPI   PO4 2420   2.825  13.535  10.204 -0.0737  0.0923  0.0303
  152loPI   GL1 2421   2.782  13.383   9.774 -0.3323 -0.2803 -0.2380
  152loPI   GL2 2422   3.050  13.403   9.741 -0.0616  0.2983 -0.3165
  152loPI   C1A 2423   2.759  13.370   9.327  0.0997  0.1604  0.0777
  152loPI   C2A 2424   2.777  13.297   8.868 -0.1188 -0.1785  0.1340
  152loPI   C3A 2425   2.709  13.376   8.470  0.1546 -0.0770 -0.1358
  152loPI   C4A 2426   2.362  13.680   8.261 -0.2936  0.0755  0.3238
  152loPI   C5A 2427   2.240  13.994   7.857  0.0725  0.1701  0.1536
  152loPI   C6A 2428   2.347  14.423   7.767  0.0331 -0.0364  0.0539
  152loPI   C1B 2429   3.270  13.297   9.364 -0.0833 -0.0003  0.0009
  152loPI   C2B 2430   3.346  13.318   8.929  0.0627  0.0295 -0.1765
  152loPI   C3B 2431   3.323  13.443   8.601 -0.0868  0.0672  0.2074
  152loPI   C4B 2432   3.608  13.390   8.282  0.2386  0.5019 -0.2223
  153loPI    C1 2433  11.383   6.543  10.584 -0.1705  0.0259 -0.2711
  153loPI    C2 2434  11.040   6.355  10.667 -0.1578  0.1360  0.0428
  153loPI    C3 2435  11.049   6.754  10.647 -0.0489  0.1331  0.0323
  153loPI   PO4 2436  11.537   6.390  10.421 -0.0593 -0.2109 -0.0598
  153loPI   GL1 2437  11.409   6.253   9.989 -0.0008  0.1131  0.1235
  153loPI   GL2 2438  11.775   6.232   9.867  0.1431 -0.0656 -0.0343
  153loPI   C1A 2439  11.405   6.369   9.599 -0.0090  0.3441  0.2130
  153loPI   C2A 2440  11.534   6.145   9.207 -0.2446 -0.1512 -0.0181
  153loPI   C3A 2441  11.533   6.104   8.764 -0.0024 -0.0890 -0.0203
  153loPI   C4A 2442  11.333   6.184   8.376 -0.2773  0.1009  0.0173
  153loPI   C5A 2443  11.288   6.015   8.021  0.0212 -0.2115  0.2068
  153loPI   C6A 2444  11.039   6.142   7.729  0.0405  0.0692 -0.2081
  153loPI   C1B 2445  11.926   6.221   9.457  0.1651 -0.0810  0.0266
  153loPI   C2B 2446  12.103   5.888   9.203  0.2715  0.1766  0.1327
  153loPI   C3B 2447  11.951   5.606   8.829 -0.0179 -0.1421  0.1619
  153loPI   C4B 2448  11.806   5.531   8.473 -0.1497 -0.0369 -0.1497
  154loPI    C1 2449  10.671  15.507  11.228 -0.0067 -0.2376 -0.1629
  154loPI    C2 2450  10.937  15.217  11.304 -0.1105 -0.2877  0.0138
  154loPI    C3 2451  10.722  15.375  11.602  0.0901  0.1153 -0.0476
  154loPI   PO4 2452  10.729  15.459  10.932 -0.3683  0.0222  0.3063
  154loPI   GL1 2453  11.150  15.423  10.641  0.0940  0.0194  0.1137
  154loPI   GL2 2454  10.874  15.320  10.385 -0.2212 -0.3126  0.2566
  154loPI   C1A 2455  11.371  15.523  10.256 -0.0764  0.1857 -0.0621
  154loPI   C2A 2456  11.735  15.464  10.058  0.0533 -0.3295  0.1113
  154loPI   C3A 2457  11.744  15.421   9.611 -0.0353  0.3571  0.1194
  154loPI   C4A 2458  11.900  15.555   9.242 -0.0861 -0.1711 -0.1374
  154loPI   C5A 2459  11.817  15.454   8.789  0.2430 -0.1198 -0.1231
  154loPI   C6A 2460  11.466  15.090   8.601 -0.1842 -0.0102  0.0747
  154loPI   C1B 2461  10.852  15.106  10.040 -0.2477  0.1272 -0.0604
  154loPI   C2B 2462  10.776  14.950   9.712 -0.0251 -0.0655 -0.1955
  154loPI   C3B 2463  10.670  15.028   9.267  0.0865  0.2028 -0.1259
  154loPI   C4B 2464  10.451  15.156   8.794  0.2327  0.1188  0.0053
  155loPI    C1 2465  17.535  18.094  10.405  0.2439 -0.3001  0.0342
  155loPI    C2 2466  17.281  17.979  10.692 -0.0880 -0.1691 -0.1994
  155loPI    C3 2467  17.580  17.737  10.580 -0.1725 -0.3724  0.0047
  155loPI   PO4 2468  17.418  18.094  10.186 -0.0271 -0.0642 -0.1785
  155loPI   GL1 2469  17.297  18.335   9.931 -0.0386  0.1719  0.0692
  155loPI   GL2 2470  16.983  18.206   9.879 -0.0028  0.1383 -0.1666
  155loPI   C1A 2471  17.518  18.441   9.621 -0.0476 -0.0985  0.0592
  155loPI   C2A 2472  17.538  18.321   9.203 -0.4756  0.0053 -0.0684
  155loPI   C3A 2473  17.768  18.475   8.941 -0.3580  0.1318  0.2751
  155loPI   C4A 2474  17.957  18.300   8.539  0.1056  0.2492 -0.0164
  155loPI   C5A 2475  18.194  18.058   8.324 -0.0726 -0.0941  0.0678
  155loPI   C6A 2476  18.390  17.843   8.080 -0.2720  0.3684  0.1042
  155loPI   C1B 2477  17.036  18.364   9.422  0.2193 -0.0763  0.0501
  155loPI   C2B 2478  17.207  18.361   8.871  0.0122  0.1239 -0.2061
  155loPI   C3B 2479  17.488  18.143   8.632 -0.0646  0.0508 -0.2719
  155loPI   C4B 2480  17.840  17.792   8.564  0.2950  0.1603  0.4510
  156loPI    C1 2481   4.577   9.354  10.689 -0.0245 -0.2934 -0.2023
  156loPI    C2 2482   4.712   9.067  10.932  0.0725  0.0782  0.1957
  156loPI    C3 2483   4.331   9.064  10.812  0.1017 -0.2765  0.0995
  156loPI   PO4 2484   4.758   9.392  10.445 -0.1334  0.1477 -0.1340
  156loPI   GL1 2485   4.609   9.632  10.064  0.1546 -0.1174  0.2459
  156loPI   GL2 2486   4.811   9.722   9.821 -0.0009 -0.0744 -0.2754
  156loPI   C1A 2487   4.226   9.531   9.752 -0.2099  0.2329  0.1827
  156loPI   C2A 2488   4.071   9.557   9.405  0.1141 -0.1874  0.0641
  156loPI   C3A 2489   4.116   9.520   9.010  0.1707 -0.0798  0.0822
  156loPI   C4A 2490   4.387   9.314   8.692  0.0407  0.1566  0.4147
  156loPI   C5A 2491   4.561   9.427   8.299  0.0207 -0.0086  0.0560
  156loPI   C6A 2492   4.669   9.204   7.966  0.1394 -0.2463  0.3721
  156loPI   C1B 2493   4.910  10.034   9.530 -0.2161 -0.1150 -0.1509
  156loPI   C2B 2494   4.830  10.334   9.197  0.3097 -0.1182 -0.0569
  156loPI   C3B 2495   5.023  10.603   8.865  0.0369 -0.1240  0.1412
  156loPI   C4B 2496   5.423  10.809   8.729 -0.1279 -0.0009  0.0892
  157loPI    C1 2497  13.060   1.765  10.584  0.0195  0.1038 -0.1175
  157loPI    C2 2498  13.356   2.025  10.654  0.1894 -0.0680 -0.1899
  157loPI    C3 2499  13.226   1.787  10.948  0.2718 -0.1430 -0.2135
  157loPI   PO4 2500  13.096   1.705  10.369  0.1473 -0.2512 -0.1354
  157loPI   GL1 2501  13.027   1.699   9.991 -0.3532 -0.1906 -0.0756
  157loPI   GL2 2502  12.782   1.696   9.945  0.1476  0.0232  0.3599
  157loPI   C1A 2503  13.110   1.697   9.553 -0.2815 -0.0681 -0.0748
  157loPI   C2A 2504  13.282   1.706   9.154 -0.3327  0.2762 -0.0974
  157loPI   C3A 2505  13.426   1.748   8.705  0.1356  0.1995  0.4048
  157loPI   C4A 2506  13.522   1.684   8.297 -0.1267  0.0174  0.1497
  157loPI   C5A 2507  13.441   1.395   8.066 -0.0017 -0.4367 -0.2635
  157loPI   C6A 2508  13.599   1.305   7.692  0.0597 -0.1489  0.2693
  157loPI   C1B 2509  12.529   1.787   9.540  0.0085 -0.0956 -0.1231
  157loPI   C2B 2510  12.330   1.671   9.073  0.2253  0.4354  0.1180
  157loPI   C3B 2511  12.119   1.777   8.656  0.0631  0.2030 -0.1521
  157loPI   C4B 2512  12.142   1.568   8.303 -0.3114  0.2444  0.0510
  158loPI    C1 2513  17.352   5.472  10.139  0.1164 -0.2738  0.1396
  158loPI    C2 2514  17.375   5.845  10.280  0.2841 -0.1427 -0.2206
  158loPI    C3 2515  17.185   5.563  10.490  0.0180  0.1804 -0.0177
  158loPI   PO4 2516  17.294   5.546   9.879 -0.1794 -0.1362 -0.0348
  158loPI   GL1 2517  17.172   5.838   9.525 -0.2994 -0.1722 -0.4613
  158loPI   GL2 2518  16.879   5.986   9.460  0.0569  0.1433  0.0526
  158loPI   C1A 2519  17.258   6.127   9.188 -0.2199  0.1049  0.4284
  158loPI   C2A 2520  17.342   6.281   8.872  0.2032 -0.1597  0.2787
  158loPI   C3A 2521  17.281   6.424   8.478  0.2442  0.2778 -0.0835
  158loPI   C4A 2522  17.212   6.560   8.122  0.0959 -0.4206  0.1725
  158loPI   C5A 2523  17.192   6.636   7.720 -0.0086  0.0481 -0.1317
  158loPI   C6A 2524  17.423   6.667   7.352  0.0491  0.1427 -0.0171
  158loPI   C1B 2525  16.780   5.927   9.068 -0.0789  0.1735  0.4543
  158loPI   C2B 2526  16.876   6.113   8.683  0.0268  0.0145 -0.0041
  158loPI   C3B 2527  16.844   6.182   8.192  0.1688  0.1903 -0.4841
  158loPI   C4B 2528  17.266   6.112   7.947  0.2544 -0.0045 -0.2438
  159loPI    C1 2529   2.617  15.936  10.240  0.1739  0.1928  0.0150
  159loPI    C2 2530   2.736  15.887  10.619  0.0931 -0.1030  0.0045
  159loPI    C3 2531   2.488  15.621  10.451  0.1038  0.0428 -0.2471
  159loPI   PO4 2532   2.854  15.864  10.050 -0.0696  0.0523  0.2035
  159loPI   GL1 2533   2.919  15.750   9.776  0.2070 -0.2182 -0.4196
  159loPI   GL2 2534   3.226  15.556   9.651 -0.0242  0.1458 -0.1379
  159loPI   C1A 2535   2.810  15.773   9.289  0.1896  0.1133 -0.0540
  159loPI   C2A 2536   2.755  15.645   8.883 -0.0146  0.1053  0.3267
  159loPI   C3A 2537   2.675  15.534   8.491  0.0736  0.1808  0.1091
  159loPI   C4A 2538   2.616  15.208   8.163 -0.1008 -0.0884  0.2720
  159loPI   C5A 2539   2.923  15.089   7.696  0.1812  0.0458 -0.0301
  159loPI   C6A 2540   3.411  14.893   7.739 -0.0362  0.0593  0.0728
  159loPI   C1B 2541   3.281  15.645   9.212  0.0495  0.2894  0.3634
  159loPI   C2B 2542   3.273  15.730   8.826 -0.2908  0.1466 -0.0490
  159loPI   C3B 2543   3.437  15.899   8.366  0.0658 -0.0149  0.0474
  159loPI   C4B 2544   3.405  16.184   8.049  0.0553 -0.0250  0.2534
  160loPI    C1 2545   5.816  14.796  10.434 -0.0095  0.1159 -0.1180
  160loPI    C2 2546   5.952  14.446  10.571 -0.0552  0.0885 -0.1425
  160loPI    C3 2547   6.169  14.778  10.622 -0.1262  0.0989  0.1023
  160loPI   PO4 2548   5.718  14.703  10.184  0.1623  0.4175  0.0973
  160loPI   GL1 2549   5.827  14.942   9.790 -0.0460 -0.4756 -0.3412
  160loPI   GL2 2550   5.431  14.893   9.795 -0.1052  0.1278  0.2393
  160loPI   C1A 2551   5.722  15.063   9.460 -0.5543 -0.0435  0.0566
  160loPI   C2A 2552   5.615  14.987   9.143  0.0489 -0.1240  0.1507
  160loPI   C3A 2553   5.547  15.232   8.826  0.1147  0.0752 -0.1420
  160loPI   C4A 2554   5.460  15.490   8.386  0.0535  0.4789  0.1290
  160loPI   C5A 2555   5.686  15.582   7.876 -0.1042  0.1979  0.1902
  160loPI   C6A 2556   6.076  15.733   7.601  0.1340 -0.2263  0.2696
  160loPI   C1B 2557   5.123  14.775   9.481 -0.3136  0.6483 -0.3736
  160loPI   C2B 2558   5.105  14.881   8.984 -0.1859 -0.1439  0.3758
  160loPI   C3B 2559   5.321  14.713   8.675 -0.1491 -0.0746  0.1713
  160loPI   C4B 2560   5.627  14.960   8.438  0.0459 -0.0377  0.0936
  161loPI    C1 2561   2.123  10.871  10.375  0.0427 -0.1806  0.0996
  161loPI    C2 2562   2.400  11.055  10.597  0.0858 -0.1329  0.0067
  161loPI    C3 2563   2.023  11.189  10.596  0.1341  0.0055 -0.1227
  161loPI   PO4 2564   2.303  10.655  10.294 -0.0007 -0.1196 -0.2192
  161loPI   GL1 2565   2.353  10.509   9.878  0.2485 -0.3946 -0.1219
  161loPI   GL2 2566   2.713  10.463   9.942  0.0298 -0.0787  0.3273
  161loPI   C1A 2567   2.433  10.251   9.427 -0.1444  0.0301  0.1638
  161loPI   C2A 2568   2.489  10.350   8.988 -0.0738 -0.1099  0.0471
  161loPI   C3A 2569   2.512  10.335   8.589  0.0371 -0.0509 -0.0050
  161loPI   C4A 2570   2.781  10.066   8.291  0.1104  0.0983  0.1978
  161loPI   C5A 2571   2.546   9.683   8.097 -0.0294  0.3248 -0.0328
  161loPI   C6A 2572   2.741   9.261   8.042 -0.1213  0.1397  0.1456
  161loPI   C1B 2573   3.089  10.637   9.595  0.0561  0.1916 -0.1363
  161loPI   C2B 2574   3.285  10.949   9.423  0.3419  0.0933  0.0686
  161loPI   C3B 2575   3.419  11.242   9.022  0.0877 -0.1975  0.2333
  161loPI   C4B 2576   3.571  11.323   8.641  0.1143  0.0373  0.3568
  162loPI    C1 2577   0.745   4.066  10.403 -0.0158  0.0913  0.0485
  162loPI    C2 2578   0.584   3.743  10.576 -0.0432 -0.0322 -0.2023
  162loPI    C3 2579   0.870   3.700  10.300  0.0413  0.1645 -0.1471
  162loPI   PO4 2580   0.612   4.248  10.242 -0.0412 -0.3292  0.0703
  162loPI   GL1 2581   0.709   4.431   9.893 -0.2349  0.1387 -0.4578
  162loPI   GL2 2582   0.485   4.681   9.835 -0.2721 -0.2863 -0.0744
  162loPI   C1A 2583   1.021   4.345   9.541  0.0850 -0.1428  0.0639
  162loPI   C2A 2584   1.189   4.280   9.144  0.0937 -0.0997  0.0276
  162loPI   C3A 2585   1.423   4.150   8.733 -0.1565  0.1425  0.1184
  162loPI   C4A 2586   1.472   3.840   8.397  0.1898  0.2268  0.2438
  162loPI   C5A 2587   1.654   3.556   8.244  0.2076 -0.2852 -0.0428
  162loPI   C6A 2588   1.807   3.340   7.888 -0.1803 -0.0369 -0.0442
  162loPI   C1B 2589   0.377   4.781   9.515 -0.1009 -0.4344 -0.0663
  162loPI   C2B 2590   0.635   4.466   9.209  0.0536 -0.1716 -0.0766
  162loPI   C3B 2591   0.764   4.311   8.836 -0.1213 -0.4329 -0.0674
  162loPI   C4B 2592   0.583   4.060   8.502  0.0793 -0.3219 -0.3104
  163loPI    C1 2593  16.288   4.292  10.528  0.1721  0.1147 -0.1107
  163loPI    C2 2594  15.918   4.356  10.667  0.2166 -0.0208  0.0741
  163loPI    C3 2595  16.142   4.064  10.823  0.3414 -0.0468 -0.1506
  163loPI   PO4 2596  16.223   4.268  10.252  0.2399 -0.1153 -0.1543
  163loPI   GL1 2597  16.457   4.297   9.891  0.1348 -0.0546 -0.0216
  163loPI   GL2 2598  16.261   4.577   9.805 -0.0032 -0.1635 -0.1009
  163loPI   C1A 2599  16.541   3.924   9.618  0.2823  0.1660  0.2290
  163loPI   C2A 2600  16.637   3.820   9.266 -0.1928 -0.1010  0.0983
  163loPI   C3A 2601  16.825   3.811   8.885 -0.2819 -0.2316  0.0169
  163loPI   C4A 2602  16.991   4.149   8.602 -0.1217  0.1214  0.0225
  163loPI   C5A 2603  17.026   4.058   8.120  0.0236  0.0777 -0.0680
  163loPI   C6A 2604  17.088   3.951   7.674 -0.0176  0.0665  0.3441
  163loPI   C1B 2605  16.449   4.439   9.425  0.0855 -0.1738  0.0931
  163loPI   C2B 2606  16.517   4.264   9.001 -0.0511  0.1461 -0.0344
  163loPI   C3B 2607  16.516   4.316   8.576  0.4460  0.0073 -0.1662
  163loPI   C4B 2608  16.206   4.137   8.278 -0.2047 -0.1595 -0.0935
  164loPI    C1 2609   8.084  11.898  10.699  0.2613  0.0031 -0.0223
  164loPI    C2 2610   8.123  11.587  10.947 -0.0097  0.0941  0.1386
  164loPI    C3 2611   8.201  11.957  11.077 -0.1559  0.1426  0.0904
  164loPI   PO4 2612   8.010  11.727  10.428 -0.1701 -0.0441 -0.2423
  164loPI   GL1 2613   7.774  11.461  10.121  0.4268  0.4885 -0.0882
  164loPI   GL2 2614   8.188  11.437  10.063  0.1795 -0.1608  0.1412
  164loPI   C1A 2615   7.703  11.624   9.771  0.2066 -0.0200  0.2960
  164loPI   C2A 2616   7.595  11.667   9.379 -0.2086  0.0509  0.1629
  164loPI   C3A 2617   7.641  11.931   9.094 -0.1859  0.0663 -0.3679
  164loPI   C4A 2618   7.835  12.125   8.818  0.0551  0.0365 -0.1180
  164loPI   C5A 2619   7.786  12.139   8.270  0.3719  0.0146 -0.1117
  164loPI   C6A 2620   8.044  12.247   7.919  0.1111  0.3194 -0.1311
  164loPI   C1B 2621   8.421  11.196   9.670 -0.0107 -0.0334  0.2104
  164loPI   C2B 2622   8.446  11.163   9.269 -0.3506 -0.1132  0.0394
  164loPI   C3B 2623   8.477  11.296   8.865  0.1820 -0.1206 -0.0617
  164loPI   C4B 2624   8.361  11.362   8.428  0.1071  0.0205  0.0593
  165loPI    C1 2625  14.775   8.334  10.476  0.0278  0.0628 -0.0443
  165loPI    C2 2626  14.745   8.244  10.865 -0.0243 -0.4763 -0.1659
  165loPI    C3 2627  15.103   8.325  10.706 -0.0243 -0.0752  0.0255
  165loPI   PO4 2628  14.685   8.476  10.355 -0.0580 -0.0327 -0.2433
  165loPI   GL1 2629  14.806   8.576   9.997 -0.2113 -0.2311  0.0727
  165loPI   GL2 2630  14.721   8.968  10.042  0.2511 -0.0627 -0.0525
  165loPI   C1A 2631  14.681   8.708   9.606  0.1900 -0.1967 -0.0080
  165loPI   C2A 2632  14.823   8.939   9.210  0.2366 -0.1061  0.1066
  165loPI   C3A 2633  14.665   9.180   8.864 -0.1273 -0.2831  0.0359
  165loPI   C4A 2634  14.315   9.426   8.632 -0.2180 -0.0110 -0.1109
  165loPI   C5A 2635  14.468   9.789   8.368  0.0527 -0.1939 -0.0405
  165loPI   C6A 2636  14.910   9.895   8.272 -0.0995  0.1967  0.1030
  165loPI   C1B 2637  14.966   9.116   9.628  0.1806  0.0007 -0.3376
  165loPI   C2B 2638  14.814   9.419   9.289  0.1149  0.1377  0.2373
  165loPI   C3B 2639  14.356   9.346   9.195  0.0198 -0.0112  0.0498
  165loPI   C4B 2640  13.941   9.365   8.937  0.1212  0.0633 -0.1402
  166loPI    C1 2641   7.677  11.559  10.751 -0.0664  0.0290  0.0315
  166loPI    C2 2642   7.541  11.488  11.120 -0.1051  0.1500  0.0408
  166loPI    C3 2643   7.686  11.849  11.026 -0.0740  0.1126 -0.0559
  166loPI   PO4 2644   7.454  11.429  10.592  0.0476 -0.4479  0.1619
  166loPI   GL1 2645   7.284  11.441  10.299 -0.0073 -0.0613  0.2393
  166loPI   GL2 2646   7.240  11.733  10.234  0.1078 -0.0549 -0.0846
  166loPI   C1A 2647   7.418  11.143   9.891 -0.3699 -0.1876 -0.0077
  166loPI   C2A 2648   7.523  10.795   9.547  0.0937 -0.2777  0.4130
  166loPI   C3A 2649   7.389  10.719   9.187 -0.1654 -0.0154  0.1459
  166loPI   C4A 2650   7.488  10.429   8.725 -0.2553  0.0965 -0.1085
  166loPI   C5A 2651   7.400  10.341   8.270 -0.0289  0.1326  0.3005
  166loPI   C6A 2652   7.296  10.533   7.927  0.0293  0.0777  0.1380
  166loPI   C1B 2653   7.145  11.784   9.737 -0.0853 -0.1309 -0.1551
  166loPI   C2B 2654   7.005  11.594   9.428  0.1024  0.0294  0.2474
  166loPI   C3B 2655   7.101  11.546   9.001  0.1049  0.1713 -0.0929
  166loPI   C4B 2656   7.419  11.581   8.774 -0.0784 -0.1107  0.1303
  167loPI    C1 2657  14.019   0.117  10.604 -0.0017 -0.1669  0.1029
  167loPI    C2 2658  14.363   0.291  10.709 -0.0914 -0.1304  0.3424
  167loPI    C3 2659  14.034   0.348  10.930 -0.2592 -0.1423  0.0999
  167loPI   PO4 2660  14.011   0.136  10.282  0.3149 -0.2308  0.0211
  167loPI   GL1 2661  13.908  -0.203  10.004 -0.1492  0.0816  0.0411
  167loPI   GL2 2662  13.780  -0.435   9.932  0.2356  0.0189 -0.1178
  167loPI   C1A 2663  13.972   0.051   9.540  0.0109  0.1331  0.5935
  167loPI   C2A 2664  13.997   0.173   9.126  0.2479 -0.0239 -0.1927
  167loPI   C3A 2665  14.035   0.578   8.790 -0.2180  0.4678  0.0421
  167loPI   C4A 2666  14.025   0.758   8.294 -0.1725 -0.1129  0.0782
  167loPI   C5A 2667  14.346   0.772   7.964 -0.2028 -0.1790 -0.0804
  167loPI   C6A 2668  14.563   0.521   7.942 -0.1168  0.0879 -0.2810
  167loPI   C1B 2669  13.807  -0.422   9.507 -0.2383  0.1035  0.2787
  167loPI   C2B 2670  14.063  -0.310   9.096  0.1231 -0.0049  0.0696
  167loPI   C3B 2671  13.941  -0.305   8.587 -0.1338 -0.1578 -0.0445
  167loPI   C4B 2672  13.538  -0.378   8.396 -0.0619  0.3713 -0.1260
  168loPI    C1 2673  17.489   2.170  10.239 -0.0536  0.3562  0.1724
  168loPI    C2 2674  17.405   2.088  10.622  0.0050  0.1503  0.1421
  168loPI    C3 2675  17.753   1.970  10.463 -0.2013 -0.1566 -0.0952
  168loPI   PO4 2676  17.324   2.040  10.101  0.1503  0.2648 -0.0966
  168loPI   GL1 2677  17.162   1.629   9.928 -0.0002  0.0820 -0.0626
  168loPI   GL2 2678  17.079   1.315  10.006 -0.2565  0.1030  0.0549
  168loPI   C1A 2679  17.163   1.766   9.522  0.0422  0.0585 -0.2343
  168loPI   C2A 2680  17.327   1.808   9.091  0.1458  0.2472  0.1648
  168loPI   C3A 2681  17.566   1.794   8.647 -0.1704 -0.0054  0.2210
  168loPI   C4A 2682  17.515   1.756   8.321  0.0454 -0.1708 -0.2427
  168loPI   C5A 2683  17.746   1.434   8.067 -0.1890  0.1453  0.4492
  168loPI   C6A 2684  18.025   1.291   7.781 -0.1797  0.2649  0.0221
  168loPI   C1B 2685  16.869   1.407   9.619 -0.1231  0.4858 -0.0222
  168loPI   C2B 2686  16.925   1.413   9.215  0.0126  0.0748 -0.1181
  168loPI   C3B 2687  16.918   1.392   8.811 -0.2902  0.1390  0.0095
  168loPI   C4B 2688  17.096   1.639   8.589  0.0231  0.2687  0.0233
  169loPI    C1 2689  12.092   3.506  10.563 -0.1667  0.2819 -0.0998
  169loPI    C2 2690  12.267   3.821  10.737  0.0902  0.0856  0.0039
  169loPI    C3 2691  12.210   3.484  10.944 -0.0088 -0.0016 -0.1629
  169loPI   PO4 2692  12.207   3.651  10.253 -0.0665 -0.0585 -0.1892
  169loPI   GL1 2693  12.517   3.507   9.848 -0.2822 -0.0850  0.1472
  169loPI   GL2 2694  12.359   3.170  10.093  0.3874 -0.1450  0.1124
  169loPI   C1A 2695  12.884   3.693   9.575  0.0739 -0.0736 -0.0126
  169loPI   C2A 2696  13.087   3.508   9.197  0.1402  0.2596 -0.0903
  169loPI   C3A 2697  13.105   3.490   8.856 -0.0340 -0.1070  0.1531
  169loPI   C4A 2698  12.982   3.646   8.476 -0.1822  0.0926 -0.0437
  169loPI   C5A 2699  12.931   3.789   8.020  0.0981  0.2644  0.0487
  169loPI   C6A 2700  13.070   4.060   7.851 -0.0583 -0.1273 -0.0286
  169loPI   C1B 2701  12.181   2.993   9.734 -0.0480  0.3328  0.4253
  169loPI   C2B 2702  12.317   2.863   9.242 -0.2260  0.1987  0.4540
  169loPI   C3B 2703  12.408   2.767   8.827  0.0523 -0.0112 -0.0914
  169loPI   C4B 2704  12.591   2.685   8.450  0.1961  0.2598  0.2805
  170loPI    C1 2705  16.928  10.240  10.165 -0.1537 -0.0199  0.0318
  170loPI    C2 2706  16.863  10.043  10.507  0.0301 -0.0951  0.0248
  170loPI    C3 2707  17.136  10.334  10.494  0.0992 -0.1642 -0.0839
  170loPI   PO4 2708  16.662  10.197  10.060  0.0295 -0.0982 -0.3155
  170loPI   GL1 2709  16.379  10.370   9.728  0.1422 -0.2096 -0.0810
  170loPI   GL2 2710  16.134  10.468   9.633 -0.2388 -0.2125 -0.0986
  170loPI   C1A 2711  16.547  10.103   9.409  0.0474  0.0079 -0.2107
  170loPI   C2A 2712  16.502  10.122   8.950 -0.1863 -0.1838  0.0069
  170loPI   C3A 2713  16.671   9.972   8.531  0.1897 -0.1816  0.2015
  170loPI   C4A 2714  17.030   9.747   8.233 -0.2702 -0.2697 -0.0870
  170loPI   C5A 2715  17.320   9.533   7.906  0.2684  0.0585 -0.2411
  170loPI   C6A 2716  17.597   9.749   7.544  0.2493  0.0469  0.3152
  170loPI   C1B 2717  15.850  10.486   9.400  0.1391 -0.0868  0.0980
  170loPI   C2B 2718  15.652  10.656   9.218 -0.0171  0.0843  0.1980
  170loPI   C3B 2719  15.724  10.843   8.789 -0.2130 -0.0865 -0.0405
  170loPI   C4B 2720  15.648  10.931   8.357  0.0198  0.3808  0.0425
  171loPI    C1 2721   6.386   4.127  10.358  0.2999  0.1362 -0.1670
  171loPI    C2 2722   6.420   4.411  10.638  0.0595  0.1814 -0.1814
  171loPI    C3 2723   6.414   4.025  10.744 -0.1169  0.2016 -0.1154
  171loPI   PO4 2724   6.508   4.121  10.150  0.1351 -0.1644 -0.4248
  171loPI   GL1 2725   6.601   3.997   9.782  0.4175  0.0154  0.2016
  171loPI   GL2 2726   6.817   3.762   9.589  0.2022  0.0708  0.3027
  171loPI   C1A 2727   6.633   4.082   9.272 -0.0372 -0.2447 -0.6026
  171loPI   C2A 2728   6.676   3.899   8.896  0.0372  0.0496  0.0502
  171loPI   C3A 2729   6.557   3.785   8.478 -0.0404  0.2157  0.1136
  171loPI   C4A 2730   6.175   3.972   8.231 -0.1264  0.0768 -0.0094
  171loPI   C5A 2731   5.847   4.183   8.065 -0.0683 -0.0493  0.1428
  171loPI   C6A 2732   5.425   4.452   7.864 -0.0044 -0.0323  0.0301
  171loPI   C1B 2733   7.030   3.789   9.262 -0.2837  0.0843  0.0386
  171loPI   C2B 2734   7.161   3.821   8.856 -0.1618  0.3126 -0.0409
  171loPI   C3B 2735   7.047   3.981   8.445 -0.0250 -0.2386 -0.1089
  171loPI   C4B 2736   7.272   4.026   8.099  0.0476  0.0217 -0.3271
  172loPI    C1 2737   4.567   4.809  10.521  0.2113 -0.0050  0.1779
  172loPI    C2 2738   4.606   5.079  10.814 -0.1886  0.1274  0.1152
  172loPI    C3 2739   4.694   4.695  10.883 -0.2425  0.1633  0.3985
  172loPI   PO4 2740   4.589   5.038  10.325 -0.4064  0.0452  0.4760
  172loPI   GL1 2741   4.466   5.265   9.943 -0.3519  0.0498  0.0890
  172loPI   GL2 2742   4.162   5.333  10.019 -0.0434  0.1354 -0.6639
  172loPI   C1A 2743   4.711   5.179   9.501  0.0371  0.1250 -0.0981
  172loPI   C2A 2744   4.839   5.163   9.096 -0.1413  0.1916 -0.2705
  172loPI   C3A 2745   4.875   5.191   8.777  0.0175 -0.1006  0.2392
  172loPI   C4A 2746   4.810   5.109   8.352  0.0507 -0.2997  0.0520
  172loPI   C5A 2747   5.219   5.118   7.969  0.2726 -0.0216 -0.3495
  172loPI   C6A 2748   5.609   5.001   7.776  0.3970 -0.1056  0.1359
  172loPI   C1B 2749   4.044   5.330   9.547  0.0897  0.1138  0.1634
  172loPI   C2B 2750   3.862   5.314   9.169 -0.2654  0.1053  0.0505
  172loPI   C3B 2751   3.933   5.369   8.757 -0.1709 -0.1114  0.0842
  172loPI   C4B 2752   3.926   5.393   8.309  0.1125 -0.1388  0.1862
  173loPI    C1 2753   4.979  17.139  10.382 -0.2241  0.0743  0.1956
  173loPI    C2 2754   4.982  17.132  10.781  0.1339  0.1325  0.1971
  173loPI    C3 2755   5.306  17.018  10.577 -0.1060 -0.0627 -0.0823
  173loPI   PO4 2756   4.724  16.986  10.233  0.0024  0.1130  0.0531
  173loPI   GL1 2757   4.653  16.793   9.844  0.0756  0.0568 -0.2339
  173loPI   GL2 2758   4.671  16.575   9.715  0.1228  0.0587  0.1656
  173loPI   C1A 2759   4.788  16.956   9.465 -0.0151  0.0961 -0.2226
  173loPI   C2A 2760   4.680  17.161   9.053  0.0311  0.3005  0.1277
  173loPI   C3A 2761   4.553  17.397   8.662 -0.0722  0.0956  0.0626
  173loPI   C4A 2762   4.356  17.525   8.299 -0.2038  0.2051 -0.2977
  173loPI   C5A 2763   4.024  17.687   8.150 -0.1481  0.0724 -0.0801
  173loPI   C6A 2764   3.606  17.767   8.018  0.1563  0.3748 -0.3431
  173loPI   C1B 2765   4.347  16.753   9.344 -0.1471 -0.2604 -0.2133
  173loPI   C2B 2766   4.177  16.965   9.028 -0.0065 -0.1604  0.2216
  173loPI   C3B 2767   4.058  17.241   8.661 -0.0262  0.0471 -0.3945
  173loPI   C4B 2768   3.951  17.124   8.295  0.2162  0.0410 -0.0055
  174loPI    C1 2769  18.288  11.112  10.427 -0.0839  0.0773 -0.1314
  174loPI    C2 2770  18.304  10.775  10.212  0.0653 -0.0062  0.0087
  174loPI    C3 2771  18.097  10.785  10.554  0.0614  0.0440  0.0050
  174loPI   PO4 2772  18.291  11.276  10.214 -0.1701  0.0789 -0.1954
  174loPI   GL1 2773  18.273  11.063   9.792  0.1172 -0.2759 -0.2301
  174loPI   GL2 2774  18.505  11.199   9.779 -0.1030 -0.0099  0.1329
  174loPI   C1A 2775  17.920  11.014   9.462  0.0091  0.4524  0.2022
  174loPI   C2A 2776  17.804  11.220   9.069 -0.1988  0.1584 -0.0962
  174loPI   C3A 2777  17.522  11.309   8.717  0.1397  0.1783  0.2327
  174loPI   C4A 2778  17.274  11.590   8.574  0.0384  0.0604  0.0041
  174loPI   C5A 2779  17.231  11.914   8.165  0.0577 -0.0561  0.0249
  174loPI   C6A 2780  17.084  12.260   8.031  0.1641 -0.2057  0.3087
  174loPI   C1B 2781  18.760  11.049   9.401  0.0499  0.1917  0.0678
  174loPI   C2B 2782  19.112  11.190   9.148  0.1710  0.4549 -0.3141
  174loPI   C3B 2783  19.406  11.151   8.908 -0.0485  0.0371 -0.2388
  174loPI   C4B 2784  19.660  10.930   8.821  0.3009  0.0284  0.0462
  175loPI    C1 2785  16.875   2.940  10.575 -0.1523 -0.0795  0.0471
  175loPI    C2 2786  17.178   2.858  10.823 -0.0678 -0.2727 -0.1178
  175loPI    C3 2787  16.962   3.190  10.875  0.0052 -0.2666  0.1598
  175loPI   PO4 2788  16.979   2.953  10.310  0.0991  0.1839 -0.1810
  175loPI   GL1 2789  16.883   2.673   9.936  0.0542 -0.0379  0.2403
  175loPI   GL2 2790  16.746   2.874   9.870 -0.2962 -0.1065  0.1250
  175loPI   C1A 2791  16.929   2.327   9.596  0.0641 -0.0391 -0.0658
  175loPI   C2A 2792  17.048   2.275   9.191  0.1249 -0.1247  0.2055
  175loPI   C3A 2793  17.160   2.151   8.727  0.0589  0.1914  0.3089
  175loPI   C4A 2794  17.113   2.054   8.300 -0.2790 -0.0084  0.0658
  175loPI   C5A 2795  17.078   1.702   8.087 -0.0572  0.2229 -0.0799
  175loPI   C6A 2796  16.852   1.330   8.023  0.1207  0.3683  0.1073
  175loPI   C1B 2797  16.553   3.010   9.533  0.5206 -0.3540  0.0502
  175loPI   C2B 2798  16.263   2.906   9.113 -0.3570 -0.2069  0.0307
  175loPI   C3B 2799  16.231   2.963   8.685 -0.0488  0.1769 -0.3261
  175loPI   C4B 2800  16.378   2.777   8.335 -0.2842  0.0900 -0.3361
  176loPI    C1 2801  12.918   4.247  10.176  0.0151 -0.4119  0.0100
  176loPI    C2 2802  12.567   4.407  10.283  0.2923  0.1086  0.1759
  176loPI    C3 2803  12.732   4.119  10.506 -0.0546 -0.1888  0.0592
  176loPI   PO4 2804  13.034   4.429  10.033  0.1107  0.0634 -0.1180
  176loPI   GL1 2805  13.083   4.404   9.671 -0.1747  0.1316  0.2607
  176loPI   GL2 2806  13.098   4.108   9.689  0.1061  0.1330 -0.1901
  176loPI   C1A 2807  13.114   4.561   9.297  0.2320 -0.0558  0.1462
  176loPI   C2A 2808  13.058   4.597   8.883 -0.0466 -0.3213 -0.1876
  176loPI   C3A 2809  12.933   4.725   8.582  0.1292  0.0433 -0.2782
  176loPI   C4A 2810  12.834   5.049   8.299 -0.1135 -0.0567  0.0140
  176loPI   C5A 2811  12.635   5.024   7.919  0.0656  0.2525  0.1083
  176loPI   C6A 2812  12.461   5.331   7.557 -0.1314  0.4150 -0.1249
  176loPI   C1B 2813  13.045   4.085   9.249 -0.0458 -0.1968 -0.3427
  176loPI   C2B 2814  12.990   4.046   8.852  0.3262 -0.0915 -0.1900
  176loPI   C3B 2815  12.756   4.048   8.465  0.2891 -0.0502  0.1470
  176loPI   C4B 2816  12.563   4.089   7.987  0.1802 -0.0478 -0.0822
  177loPI    C1 2817   4.777  10.493  10.609  0.1220 -0.2052  0.1132
  177loPI    C2 2818   5.096  10.381  10.395  0.1818 -0.0301  0.1090
  177loPI    C3 2819   5.122  10.693  10.643  0.0161 -0.0219  0.1171
  177loPI   PO4 2820   4.494  10.613  10.395 -0.1945 -0.0673  0.0252
  177loPI   GL1 2821   4.443  10.600   9.995  0.2011 -0.0323 -0.0785
  177loPI   GL2 2822   4.774  10.252   9.969 -0.0563 -0.0377 -0.1049
  177loPI   C1A 2823   4.470  10.810   9.557  0.0518  0.0251  0.3926
  177loPI   C2A 2824   4.646  10.767   9.180 -0.2202 -0.2039 -0.1587
  177loPI   C3A 2825   4.510  10.784   8.741  0.1428  0.0593 -0.4206
  177loPI   C4A 2826   4.493  10.854   8.291  0.1980 -0.2265  0.2333
  177loPI   C5A 2827   4.552  11.151   7.873  0.2064  0.1561 -0.0753
  177loPI   C6A 2828   4.304  10.971   7.511 -0.1944  0.0052 -0.2911
  177loPI   C1B 2829   4.945  10.575   9.636  0.1427 -0.1378 -0.1025
  177loPI   C2B 2830   5.232  10.794   9.333 -0.2901  0.2176  0.0888
  177loPI   C3B 2831   5.628  11.043   9.266 -0.3803  0.0056 -0.1161
  177loPI   C4B 2832   5.771  11.486   9.146 -0.2522 -0.0381  0.0004
  178loPI    C1 2833   5.523  14.290  10.475  0.0298  0.1041  0.0899
  178loPI    C2 2834   5.279  14.604  10.432  0.0690  0.1416  0.1405
  178loPI    C3 2835   5.515  14.577  10.754  0.1613  0.1257  0.0719
  178loPI   PO4 2836   5.498  14.219  10.199 -0.1325  0.0159  0.3136
  178loPI   GL1 2837   5.742  14.329   9.851  0.0503 -0.1752 -0.0709
  178loPI   GL2 2838   6.050  14.497   9.885  0.1431 -0.0666  0.1764
  178loPI   C1A 2839   5.549  14.469   9.470 -0.0221 -0.4889  0.0280
  178loPI   C2A 2840   5.739  14.499   9.050  0.2730 -0.0759 -0.1668
  178loPI   C3A 2841   5.808  14.519   8.679  0.0013  0.0428 -0.2209
  178loPI   C4A 2842   5.974  14.538   8.239 -0.3413 -0.1409  0.0795
  178loPI   C5A 2843   6.101  14.653   7.839  0.1452 -0.1636  0.1660
  178loPI   C6A 2844   5.775  14.768   7.489 -0.1500 -0.0329 -0.2581
  178loPI   C1B 2845   6.069  14.625   9.439 -0.2729  0.1997  0.1970
  178loPI   C2B 2846   6.161  14.940   9.205  0.0889 -0.0706  0.2241
  178loPI   C3B 2847   6.057  14.970   8.814  0.2431 -0.1107  0.0199
  178loPI   C4B 2848   6.118  15.042   8.373  0.0230 -0.1146  0.2409
  179loPI    C1 2849   6.021  10.322  10.502  0.0211 -0.0173 -0.3147
  179loPI    C2 2850   6.051  10.257  10.896  0.0326  0.1222 -0.2921
  179loPI    C3 2851   5.865   9.990  10.663  0.1026 -0.0034 -0.2055
  179loPI   PO4 2852   5.926  10.511  10.416 -0.1556 -0.0897 -0.1706
  179loPI   GL1 2853   5.980  10.686   9.954 -0.1025 -0.0514  0.0915
  179loPI   GL2 2854   6.307  10.660  10.118 -0.1726  0.1857  0.0727
  179loPI   C1A 2855   5.952  10.628   9.492 -0.1123  0.1041  0.3241
  179loPI   C2A 2856   5.859  10.728   8.990 -0.1458 -0.1678  0.0868
  179loPI   C3A 2857   5.890  10.598   8.644  0.0568  0.0821  0.0965
  179loPI   C4A 2858   5.807  10.644   8.273  0.1687  0.3043  0.3147
  179loPI   C5A 2859   5.694  10.378   7.946  0.1707  0.1656 -0.0526
  179loPI   C6A 2860   5.462  10.380   7.622 -0.0017  0.0659  0.0200
  179loPI   C1B 2861   6.360  10.839   9.721 -0.2667  0.0650 -0.4323
  179loPI   C2B 2862   6.412  10.832   9.163 -0.1235  0.1978  0.0753
  179loPI   C3B 2863   6.630  10.876   8.779 -0.1887  0.3410  0.0805
  179loPI   C4B 2864   6.613  10.926   8.287 -0.0586 -0.0335 -0.3387
  180loPI    C1 2865   1.339   7.383  10.287  0.0173  0.0278  0.0567
  180loPI    C2 2866   1.116   7.528  10.585  0.1576 -0.0013  0.1766
  180loPI    C3 2867   1.460   7.341  10.665  0.1102 -0.1637  0.0070
  180loPI   PO4 2868   1.343   7.436  10.113  0.3441  0.2891  0.3280
  180loPI   GL1 2869   1.487   7.755   9.893 -0.2425  0.4485 -0.0115
  180loPI   GL2 2870   1.239   7.820   9.709  0.2442 -0.1260  0.1149
  180loPI   C1A 2871   1.693   8.055   9.681 -0.2857 -0.1441  0.1970
  180loPI   C2A 2872   1.778   8.201   9.430 -0.3957 -0.0822  0.2534
  180loPI   C3A 2873   1.737   8.569   9.120  0.2212 -0.5192 -0.0745
  180loPI   C4A 2874   1.843   8.681   8.821 -0.0921 -0.0807 -0.0453
  180loPI   C5A 2875   1.812   8.724   8.390  0.0989  0.0104 -0.2931
  180loPI   C6A 2876   1.759   8.941   8.105  0.0383  0.3129 -0.0295
  180loPI   C1B 2877   1.179   7.749   9.291 -0.4016  0.2538 -0.4706
  180loPI   C2B 2878   1.106   7.622   8.966  0.3501  0.0537  0.0032
  180loPI   C3B 2879   1.351   7.888   8.645 -0.3150  0.3322  0.1491
  180loPI   C4B 2880   1.522   8.334   8.581 -0.2465 -0.0627  0.1694
  181loPI    C1 2881   0.644  11.225  10.636  0.0163 -0.1553  0.2033
  181loPI    C2 2882   0.961  11.086  10.836  0.0133 -0.2620  0.1344
  181loPI    C3 2883   0.690  10.831  10.689  0.0655 -0.1912 -0.0890
  181loPI   PO4 2884   0.698  11.381  10.520  0.0876  0.0342 -0.0645
  181loPI   GL1 2885   0.630  11.422  10.084  0.1812 -0.1414 -0.1415
  181loPI   GL2 2886   0.356  11.533  10.040 -0.0637  0.2197  0.0192
  181loPI   C1A 2887   0.822  11.223   9.758  0.0061 -0.0114  0.1446
  181loPI   C2A 2888   1.174  11.108   9.354  0.0295 -0.1180 -0.1754
  181loPI   C3A 2889   1.444  11.296   9.030  0.2158  0.0422  0.0616
  181loPI   C4A 2890   1.816  11.181   8.675 -0.0345 -0.4628  0.2082
  181loPI   C5A 2891   1.696  10.834   8.411 -0.2335  0.1059 -0.4694
  181loPI   C6A 2892   1.442  10.422   8.518 -0.1773 -0.0951 -0.2037
  181loPI   C1B 2893   0.423  11.549   9.633 -0.1769  0.0872 -0.0561
  181loPI   C2B 2894   0.376  11.546   9.225  0.0914 -0.0598 -0.2671
  181loPI   C3B 2895   0.280  11.505   8.860 -0.1073  0.1343  0.0970
  181loPI   C4B 2896   0.551  11.356   8.636  0.3740 -0.0704 -0.2004
  182loPI    C1 2897  16.489   2.129  10.735 -0.3937  0.0433 -0.1511
  182loPI    C2 2898  16.108   2.215  10.817 -0.3139  0.2599 -0.0002
  182loPI    C3 2899  16.397   2.329  11.069 -0.1695 -0.1185  0.0109
  182loPI   PO4 2900  16.481   2.176  10.444  0.1048 -0.1501  0.1321
  182loPI   GL1 2901  16.332   2.152  10.030  0.2543  0.0156 -0.0784
  182loPI   GL2 2902  16.209   2.090   9.749 -0.0201  0.3862  0.0896
  182loPI   C1A 2903  16.642   1.880   9.747  0.0755  0.3070 -0.0427
  182loPI   C2A 2904  16.643   1.871   9.345 -0.0427 -0.0886  0.0922
  182loPI   C3A 2905  16.793   1.883   8.942  0.0777 -0.2108 -0.2732
  182loPI   C4A 2906  16.666   1.844   8.540  0.1739 -0.3595 -0.1742
  182loPI   C5A 2907  16.446   1.751   8.133  0.0515  0.0684 -0.1774
  182loPI   C6A 2908  15.963   1.828   8.011  0.1539  0.1415 -0.0429
  182loPI   C1B 2909  16.243   2.154   9.290 -0.0570  0.1305 -0.1499
  182loPI   C2B 2910  16.294   2.300   8.860 -0.1497  0.0183 -0.0770
  182loPI   C3B 2911  16.409   2.230   8.325  0.0107  0.3132  0.4993
  182loPI   C4B 2912  16.136   2.252   7.977  0.2172 -0.0170  0.2019
  183loPI    C1 2913   9.042   0.426  10.990  0.0125  0.0570  0.0604
  183loPI    C2 2914   9.181   0.143  11.235 -0.0318 -0.2164 -0.2242
  183loPI    C3 2915   9.408   0.460  11.147  0.1174 -0.2869 -0.0993
  183loPI   PO4 2916   9.009   0.239  10.677 -0.1832 -0.0913  0.1805
  183loPI   GL1 2917   8.943   0.264  10.261 -0.3751  0.4020  0.0420
  183loPI   GL2 2918   8.681   0.198  10.156 -0.0540 -0.1151 -0.0059
  183loPI   C1A 2919   9.118   0.300   9.826  0.1170  0.3737 -0.0952
  183loPI   C2A 2920   9.231   0.240   9.405 -0.2084 -0.1204  0.2871
  183loPI   C3A 2921   9.117   0.162   9.003 -0.1478  0.1633 -0.0501
  183loPI   C4A 2922   8.937   0.012   8.641 -0.0033 -0.1732  0.0738
  183loPI   C5A 2923   8.780   0.123   8.211 -0.1154  0.2785  0.2563
  183loPI   C6A 2924   8.643   0.460   7.978  0.0664  0.2617 -0.2570
  183loPI   C1B 2925   8.541   0.250   9.776 -0.0763 -0.1742  0.0920
  183loPI   C2B 2926   8.562   0.271   9.393 -0.1747  0.1560  0.0334
  183loPI   C3B 2927   8.561   0.146   8.988 -0.3366  0.1370  0.2376
  183loPI   C4B 2928   8.450   0.201   8.628  0.0694 -0.2393 -0.0084
  184loPI    C1 2929   6.859  14.978  10.641 -0.2579 -0.0453  0.0546
  184loPI    C2 2930   6.568  15.071  10.899 -0.1013 -0.3248  0.3393
  184loPI    C3 2931   6.916  14.926  11.034  0.1339 -0.0958 -0.0046
  184loPI   PO4 2932   6.664  14.877  10.437  0.3509 -0.2463  0.0794
  184loPI   GL1 2933   6.774  14.846  10.020  0.0413 -0.4012 -0.0009
  184loPI   GL2 2934   6.545  14.623   9.791 -0.3781 -0.0739  0.0802
  184loPI   C1A 2935   7.095  14.702   9.620  0.0219  0.2199 -0.0090
  184loPI   C2A 2936   7.209  14.778   9.219 -0.0219  0.0092 -0.3446
  184loPI   C3A 2937   7.320  14.957   8.834  0.1008  0.3421  0.0453
  184loPI   C4A 2938   7.350  15.152   8.391  0.1271  0.0826 -0.5009
  184loPI   C5A 2939   7.265  15.304   8.066 -0.0656  0.3446  0.3146
  184loPI   C6A 2940   7.054  15.504   7.725 -0.2240  0.0656 -0.2972
  184loPI   C1B 2941   6.675  14.839   9.442  0.0066 -0.1116  0.0921
  184loPI   C2B 2942   6.631  14.852   9.075 -0.0312 -0.1678 -0.2385
  184loPI   C3B 2943   6.865  14.863   8.748  0.1046 -0.0240  0.1337
  184loPI   C4B 2944   6.886  14.851   8.331  0.1476 -0.0545 -0.1250
  185loPI    C1 2945  10.268  11.147  10.569  0.2732 -0.0068 -0.0602
  185loPI    C2 2946  10.048  11.170  10.902 -0.2110  0.1562 -0.3815
  185loPI    C3 2947  10.238  10.830  10.812  0.1844  0.2047  0.2104
  185loPI   PO4 2948  10.360  11.389  10.450  0.1004 -0.0890 -0.1403
  185loPI   GL1 2949  10.602  11.586  10.086 -0.1073  0.0766 -0.0457
  185loPI   GL2 2950  10.601  11.855  10.028 -0.3976  0.1142  0.0089
  185loPI   C1A 2951  10.303  11.484   9.746 -0.2258  0.2059  0.0512
  185loPI   C2A 2952  10.248  11.517   9.291 -0.0518  0.1696 -0.1880
  185loPI   C3A 2953  10.713  11.499   9.087 -0.1914  0.2984  0.0922
  185loPI   C4A 2954  11.050  11.498   8.747 -0.1051 -0.2492  0.1460
  185loPI   C5A 2955  11.209  11.354   8.290 -0.0050  0.0778  0.1926
  185loPI   C6A 2956  11.507  11.244   8.049  0.0227  0.0268 -0.1698
  185loPI   C1B 2957  10.674  11.876   9.633  0.3607  0.3370 -0.1203
  185loPI   C2B 2958  10.534  11.926   9.233  0.1648  0.0261 -0.1302
  185loPI   C3B 2959  10.450  11.758   8.738  0.0071  0.0010 -0.2942
  185loPI   C4B 2960  10.115  11.625   8.472 -0.0584  0.1556 -0.1365
  186loPI    C1 2961   4.250   2.445  10.580 -0.0421 -0.0289 -0.1314
  186loPI    C2 2962   3.959   2.426  10.853  0.1737  0.1037  0.1127
  186loPI    C3 2963   4.330   2.311  10.949  0.1705 -0.2231 -0.2452
  186loPI   PO4 2964   4.159   2.347  10.306 -0.0731 -0.1213 -0.0049
  186loPI   GL1 2965   4.385   2.341   9.923 -0.1879  0.1776  0.1213
  186loPI   GL2 2966   4.464   2.096   9.733 -0.1451  0.3635  0.1810
  186loPI   C1A 2967   3.980   2.216   9.721 -0.0205 -0.1685  0.1336
  186loPI   C2A 2968   3.841   2.217   9.326 -0.0913  0.0017  0.3040
  186loPI   C3A 2969   3.916   2.209   8.841 -0.0260 -0.1110  0.1714
  186loPI   C4A 2970   3.933   2.323   8.450 -0.0796 -0.0122 -0.0444
  186loPI   C5A 2971   3.892   2.368   8.062  0.2957 -0.2156 -0.1328
  186loPI   C6A 2972   3.627   2.405   7.717  0.1179 -0.0303  0.3382
  186loPI   C1B 2973   4.358   2.182   9.331 -0.0604 -0.0674  0.2605
  186loPI   C2B 2974   4.452   2.323   8.990 -0.2138  0.0928  0.2692
  186loPI   C3B 2975   4.405   2.433   8.538 -0.0217 -0.3421 -0.3976
  186loPI   C4B 2976   4.620   2.495   8.195  0.0153  0.0879 -0.1083
  187loPI    C1 2977  12.714  13.303  11.111 -0.3125  0.1955 -0.0628
  187loPI    C2 2978  12.633  12.929  10.996 -0.0018  0.1803 -0.2425
  187loPI    C3 2979  12.589  13.035  11.379 -0.3208  0.0266 -0.2335
  187loPI   PO4 2980  12.613  13.419  10.777  0.1470  0.0354  0.4063
  187loPI   GL1 2981  12.454  13.338  10.402  0.0391  0.2271 -0.1899
  187loPI   GL2 2982  12.547  13.043  10.498  0.0128 -0.1101  0.0775
  187loPI   C1A 2983  12.408  13.374   9.996  0.0853 -0.1783 -0.2106
  187loPI   C2A 2984  12.373  13.338   9.553  0.1155 -0.1546  0.2734
  187loPI   C3A 2985  12.188  13.358   9.180 -0.0648 -0.1953  0.3016
  187loPI   C4A 2986  12.063  13.595   8.808  0.0315  0.1775  0.0778
  187loPI   C5A 2987  11.993  13.780   8.432  0.0022 -0.1405 -0.2780
  187loPI   C6A 2988  11.655  14.200   8.272  0.0826 -0.1535  0.2662
  187loPI   C1B 2989  12.484  12.850  10.126  0.1824 -0.1460 -0.1728
  187loPI   C2B 2990  12.491  12.858   9.642  0.3373 -0.0081  0.0772
  187loPI   C3B 2991  12.298  12.846   9.229  0.1710  0.0937  0.3224
  187loPI   C4B 2992  12.347  12.914   8.826 -0.3269 -0.3093 -0.0094
  188loPI    C1 2993  11.840   3.993  10.511 -0.2330  0.1039  0.2928
  188loPI    C2 2994  12.154   4.135  10.309 -0.2158 -0.1661  0.1245
  188loPI    C3 2995  12.068   4.279  10.672  0.1061 -0.0949  0.1754
  188loPI   PO4 2996  11.735   3.893  10.315  0.1892 -0.1379  0.0633
  188loPI   GL1 2997  11.874   3.844   9.951  0.1678  0.4009 -0.0084
  188loPI   GL2 2998  12.133   3.939   9.780  0.3167 -0.2363  0.1104
  188loPI   C1A 2999  11.859   3.436   9.711  0.0555 -0.2922 -0.1632
  188loPI   C2A 3000  12.109   3.332   9.349  0.2400  0.0259  0.2282
  188loPI   C3A 3001  12.175   3.189   8.880 -0.0390 -0.0471 -0.0125
  188loPI   C4A 3002  12.141   3.097   8.499 -0.2375 -0.1251 -0.0947
  188loPI   C5A 3003  11.891   2.968   8.247 -0.2459  0.1245  0.0996
  188loPI   C6A 3004  11.787   2.604   7.939 -0.3604  0.1328  0.1243
  188loPI   C1B 3005  11.981   3.791   9.333 -0.1226  0.0408 -0.0449
  188loPI   C2B 3006  12.045   3.696   8.936 -0.0170  0.0851 -0.1293
  188loPI   C3B 3007  11.918   3.633   8.606  0.2000  0.0234  0.2625
  188loPI   C4B 3008  12.021   3.472   8.152 -0.0769  0.0166 -0.1400
  189loPI    C1 3009  17.097   7.925   9.975  0.0783  0.2290 -0.0505
  189loPI    C2 3010  17.229   7.688  10.269  0.1387  0.0525 -0.2176
  189loPI    C3 3011  16.854   7.652  10.136  0.0559  0.2528 -0.0443
  189loPI   PO4 3012  17.295   7.912   9.738 -0.4544 -0.0804  0.0209
  189loPI   GL1 3013  17.232   7.628   9.384  0.1941  0.1117  0.0313
  189loPI   GL2 3014  16.936   7.520   9.448 -0.0264  0.3434 -0.2067
  189loPI   C1A 3015  17.306   7.742   8.953 -0.0427 -0.1700  0.1820
  189loPI   C2A 3016  17.133   7.912   8.711  0.2271 -0.0622 -0.0572
  189loPI   C3A 3017  16.879   8.157   8.472  0.2518 -0.3684  0.0037
  189loPI   C4A 3018  16.697   8.520   8.240 -0.0165  0.1021  0.1734
  189loPI   C5A 3019  16.352   8.790   8.237 -0.0374  0.1864 -0.2862
  189loPI   C6A 3020  15.875   8.712   8.075 -0.0906 -0.0581  0.1170
  189loPI   C1B 3021  16.620   7.442   9.074  0.0322  0.0411 -0.1548
  189loPI   C2B 3022  16.311   7.257   8.870 -0.4087 -0.0034  0.1657
  189loPI   C3B 3023  16.182   7.275   8.351 -0.1634  0.2236  0.2345
  189loPI   C4B 3024  16.111   7.342   7.920 -0.1622 -0.0093  0.0702
  190loPI    C1 3025   0.534  10.071  10.439 -0.2751 -0.0987  0.3672
  190loPI    C2 3026   0.602  10.364  10.702  0.3314 -0.0975  0.2244
  190loPI    C3 3027   0.694   9.987  10.796  0.2359 -0.1430  0.1370
  190loPI   PO4 3028   0.665  10.099  10.219 -0.0522  0.0729  0.3121
  190loPI   GL1 3029   0.761  10.338   9.769 -0.1396  0.0885 -0.1227
  190loPI   GL2 3030   0.917  10.604   9.851 -0.0155  0.1183  0.1661
  190loPI   C1A 3031   1.060  10.343   9.439  0.0386 -0.1420  0.0150
  190loPI   C2A 3032   1.118   9.998   9.100 -0.0922  0.0834  0.3281
  190loPI   C3A 3033   1.207  10.037   8.673 -0.0367  0.2840  0.2804
  190loPI   C4A 3034   1.299   9.890   8.257  0.3299  0.1641 -0.0263
  190loPI   C5A 3035   1.623   9.870   8.005  0.3927  0.0088  0.1820
  190loPI   C6A 3036   2.017   9.790   7.799  0.2602 -0.0607  0.0640
  190loPI   C1B 3037   0.722  10.703   9.449 -0.4075 -0.0602 -0.2461
  190loPI   C2B 3038   0.825  10.656   9.070 -0.1558 -0.0352 -0.0624
  190loPI   C3B 3039   0.982  10.583   8.675 -0.1255  0.2541 -0.1815
  190loPI   C4B 3040   1.065  10.330   8.253  0.1190  0.1427  0.0192
  191loPI    C1 3041  14.236  10.360  10.748  0.0251  0.0502  0.0772
  191loPI    C2 3042  14.097  10.468  11.107  0.0140  0.0381  0.0766
  191loPI    C3 3043  14.491  10.471  11.036  0.0176  0.0182  0.0960
  191loPI   PO4 3044  14.076  10.154  10.634 -0.1539  0.2244  0.0067
  191loPI   GL1 3045  13.766  10.251  10.388  0.0776  0.0073 -0.1698
  191loPI   GL2 3046  13.929  10.449  10.301  0.1504  0.2228 -0.3107
  191loPI   C1A 3047  13.660  10.051  10.087  0.1142  0.1851 -0.0920
  191loPI   C2A 3048  13.488   9.837   9.661 -0.3119  0.2567 -0.0441
  191loPI   C3A 3049  13.310   9.748   9.332  0.3024 -0.1800 -0.0674
  191loPI   C4A 3050  13.558   9.653   9.018  0.1236  0.1627  0.0029
  191loPI   C5A 3051  13.613   9.757   8.594 -0.1180  0.1743 -0.0382
  191loPI   C6A 3052  13.929   9.998   8.404 -0.2479 -0.0363 -0.3140
  191loPI   C1B 3053  13.754  10.367   9.757 -0.3363 -0.3971 -0.0908
  191loPI   C2B 3054  13.267  10.302   9.617  0.0564  0.0796  0.0890
  191loPI   C3B 3055  12.850  10.163   9.526 -0.0886  0.2319  0.1547
  191loPI   C4B 3056  12.527   9.956   9.744 -0.0709 -0.1500 -0.2195
  192loPI    C1 3057   2.255   0.259  10.374  0.1697  0.0139 -0.0567
  192loPI    C2 3058   2.618   0.172  10.232  0.0277 -0.2033 -0.2967
  192loPI    C3 3059   2.492   0.005  10.573  0.1421 -0.1465 -0.2259
  192loPI   PO4 3060   2.112   0.248  10.085 -0.0964 -0.0997 -0.0466
  192loPI   GL1 3061   2.302   0.204   9.636 -0.1019 -0.0386  0.1560
  192loPI   GL2 3062   2.321  -0.096   9.824  0.2041  0.0410 -0.2695
  192loPI   C1A 3063   2.368   0.214   9.254  0.1392 -0.2509  0.1748
  192loPI   C2A 3064   2.541   0.357   8.854 -0.0755 -0.2948 -0.0487
  192loPI   C3A 3065   2.792   0.255   8.578  0.3246 -0.1578 -0.1829
  192loPI   C4A 3066   2.789   0.249   8.107  0.2948  0.0491  0.0815
  192loPI   C5A 3067   2.728   0.042   7.620  0.1346 -0.2320 -0.0788
  192loPI   C6A 3068   3.072  -0.033   7.334 -0.0103 -0.2991  0.2157
  192loPI   C1B 3069   2.364  -0.274   9.473 -0.0487 -0.2995  0.1928
  192loPI   C2B 3070   2.424  -0.248   9.141  0.1039 -0.2673 -0.0816
  192loPI   C3B 3071   2.560  -0.204   8.650 -0.3394 -0.3075 -0.0139
  192loPI   C4B 3072   2.558  -0.185   8.272 -0.1569  0.0359 -0.5819
  193loPI    C1 3073  13.409   4.105  10.259 -0.0524  0.0544  0.0429
  193loPI    C2 3074  13.684   4.241  10.515 -0.2378  0.0893  0.2263
  193loPI    C3 3075  13.615   3.848  10.486 -0.0421  0.0662  0.0470
  193loPI   PO4 3076  13.481   4.161  10.025  0.0813 -0.0248  0.0654
  193loPI   GL1 3077  13.661   3.909   9.660 -0.1506 -0.1471 -0.1477
  193loPI   GL2 3078  13.404   3.763   9.527 -0.1853 -0.2591 -0.0288
  193loPI   C1A 3079  13.528   4.209   9.376 -0.1749  0.0618  0.1146
  193loPI   C2A 3080  13.449   4.313   8.986 -0.0584  0.1301  0.0204
  193loPI   C3A 3081  13.458   4.159   8.662  0.1697 -0.0277 -0.0569
  193loPI   C4A 3082  13.351   3.905   8.282 -0.3423 -0.0573  0.1426
  193loPI   C5A 3083  13.516   3.667   7.814  0.1837  0.0516  0.0108
  193loPI   C6A 3084  13.662   3.614   7.306  0.0778 -0.0645 -0.0187
  193loPI   C1B 3085  13.517   3.784   9.084  0.2271  0.0530 -0.2763
  193loPI   C2B 3086  13.565   3.641   8.681 -0.0336  0.1072  0.0452
  193loPI   C3B 3087  13.703   3.534   8.504  0.1723  0.1291 -0.3204
  193loPI   C4B 3088  13.833   3.409   8.134 -0.1458  0.2313 -0.2699
  194loPI    C1 3089   2.410   8.239  10.826  0.1979 -0.1937 -0.1864
  194loPI    C2 3090   2.558   8.610  10.840  0.3167 -0.2343 -0.3398
  194loPI    C3 3091   2.642   8.350  11.132  0.1865 -0.1245 -0.2027
  194loPI   PO4 3092   2.409   8.177  10.552  0.0415 -0.2553 -0.3217
  194loPI   GL1 3093   2.694   8.153  10.193 -0.1343 -0.1085  0.0177
  194loPI   GL2 3094   2.750   8.369   9.903 -0.1259 -0.1878  0.0392
  194loPI   C1A 3095   2.846   7.847   9.919  0.0742  0.0473  0.2576
  194loPI   C2A 3096   2.698   7.805   9.517  0.2675  0.1439 -0.0155
  194loPI   C3A 3097   2.643   8.032   9.203 -0.0656 -0.2232 -0.3671
  194loPI   C4A 3098   2.680   8.306   8.807  0.3238 -0.1559 -0.1279
  194loPI   C5A 3099   2.827   8.411   8.469 -0.0143  0.0932 -0.1725
  194loPI   C6A 3100   3.114   8.109   8.235 -0.0989 -0.1046 -0.0706
  194loPI   C1B 3101   2.844   8.283   9.539 -0.3087  0.0524 -0.1871
  194loPI   C2B 3102   3.073   8.310   9.094 -0.0543 -0.1901  0.0432
  194loPI   C3B 3103   3.202   8.282   8.714  0.1369 -0.1129 -0.3216
  194loPI   C4B 3104   3.622   8.327   8.544 -0.0455  0.0768  0.4078
  195loPI    C1 3105   0.767  16.322  10.451 -0.3375 -0.0390 -0.0176
  195loPI    C2 3106   0.643  16.546  10.758 -0.2313 -0.3649  0.2689
  195loPI    C3 3107   1.028  16.551  10.650 -0.3142 -0.0554 -0.0291
  195loPI   PO4 3108   0.695  16.372  10.253  0.0939 -0.0581  0.1417
  195loPI   GL1 3109   0.502  16.301   9.958 -0.1804 -0.0871  0.1315
  195loPI   GL2 3110   0.464  15.981   9.739  0.0690  0.1649 -0.2471
  195loPI   C1A 3111   0.385  16.456   9.486  0.1652  0.2301 -0.0859
  195loPI   C2A 3112   0.351  16.694   9.211 -0.0049 -0.1248  0.0228
  195loPI   C3A 3113   0.223  16.629   8.861  0.3470  0.2296 -0.0608
  195loPI   C4A 3114   0.067  16.607   8.422  0.4340  0.1146  0.0922
  195loPI   C5A 3115  -0.187  16.546   8.036  0.2226 -0.0028  0.2703
  195loPI   C6A 3116  -0.047  16.515   7.589  0.2347 -0.2243  0.1118
  195loPI   C1B 3117   0.339  15.942   9.513  0.1995 -0.1660  0.0016
  195loPI   C2B 3118   0.293  16.026   9.108  0.0653 -0.1810  0.1219
  195loPI   C3B 3119   0.133  16.137   8.684  0.0214  0.0812  0.4597
  195loPI   C4B 3120   0.125  16.134   8.233 -0.1504  0.2462  0.0137
  196loPI    C1 3121   1.711  17.872  10.335  0.2157 -0.0015  0.2145
  196loPI    C2 3122   1.409  17.726  10.552  0.0426 -0.1030 -0.0879
  196loPI    C3 3123   1.778  17.582  10.601 -0.0992 -0.5485 -0.2778
  196loPI   PO4 3124   1.596  17.916  10.096 -0.0576 -0.0058 -0.0340
  196loPI   GL1 3125   1.479  17.960   9.768  0.1211  0.0805 -0.0158
  196loPI   GL2 3126   1.229  18.185   9.911  0.1932  0.0748  0.2702
  196loPI   C1A 3127   1.474  17.960   9.326  0.1713 -0.0730  0.1447
  196loPI   C2A 3128   1.501  18.232   8.982 -0.2781 -0.0530 -0.1017
  196loPI   C3A 3129   1.623  18.212   8.663 -0.3152  0.0815 -0.0723
  196loPI   C4A 3130   1.747  18.304   8.330 -0.4164 -0.2858  0.1694
  196loPI   C5A 3131   1.605  18.318   8.001  0.1711 -0.1532 -0.2088
  196loPI   C6A 3132   1.675  18.316   7.601 -0.2423 -0.1050 -0.2591
  196loPI   C1B 3133   0.971  18.217   9.543 -0.1197  0.0181 -0.3616
  196loPI   C2B 3134   1.013  18.138   9.133  0.1205  0.1558  0.2085
  196loPI   C3B 3135   1.070  18.220   8.727  0.1454  0.3576  0.2902
  196loPI   C4B 3136   1.237  18.160   8.314  0.0679 -0.3206 -0.2197
  197loPI    C1 3137   4.965   7.184  10.671 -0.2136 -0.4926  0.0043
  197loPI    C2 3138   5.334   7.056  10.590  0.0398  0.1396  0.0999
  197loPI    C3 3139   5.202   7.057  10.967  0.0258  0.1295  0.0949
  197loPI   PO4 3140   4.843   7.064  10.481 -0.0287 -0.4692  0.3934
  197loPI   GL1 3141   4.622   7.018  10.127 -0.1909  0.2301  0.1914
  197loPI   GL2 3142   4.334   6.797   9.954 -0.0377 -0.0845  0.0391
  197loPI   C1A 3143   4.525   7.248   9.746 -0.1461 -0.0677  0.1434
  197loPI   C2A 3144   4.604   7.296   9.382 -0.1285  0.0971  0.4964
  197loPI   C3A 3145   4.567   7.197   8.992 -0.2453 -0.0930 -0.0829
  197loPI   C4A 3146   4.522   7.136   8.646  0.1569  0.2151 -0.0258
  197loPI   C5A 3147   4.466   7.156   8.112 -0.1889  0.0973 -0.2108
  197loPI   C6A 3148   3.998   7.244   7.941  0.1707  0.0930  0.0575
  197loPI   C1B 3149   4.510   6.828   9.540 -0.1935  0.0507 -0.1376
  197loPI   C2B 3150   4.542   6.758   9.152 -0.3729 -0.1314 -0.0165
  197loPI   C3B 3151   4.626   6.604   8.697 -0.2049  0.0475 -0.0152
  197loPI   C4B 3152   4.913   6.705   8.332  0.4678  0.0620 -0.1325
  198loPI    C1 3153  17.047  14.577  10.393 -0.2073  0.2933  0.0549
  198loPI    C2 3154  16.890  14.630  10.757 -0.1541  0.0387  0.1170
  198loPI    C3 3155  16.938  14.260  10.612  0.0058  0.1311 -0.0697
  198loPI   PO4 3156  16.822  14.647  10.261  0.0337 -0.0963  0.3451
  198loPI   GL1 3157  16.614  14.469   9.949  0.0731  0.5489  0.0277
  198loPI   GL2 3158  16.359  14.501  10.043  0.3092 -0.1550 -0.2111
  198loPI   C1A 3159  16.423  14.219   9.622 -0.0793  0.0061  0.0738
  198loPI   C2A 3160  16.218  13.842   9.477  0.4766  0.3322 -0.0639
  198loPI   C3A 3161  16.157  13.822   9.105 -0.1097 -0.0919  0.2543
  198loPI   C4A 3162  15.909  13.659   8.808 -0.1351  0.1520  0.1171
  198loPI   C5A 3163  15.854  13.787   8.462  0.0196  0.2856  0.0445
  198loPI   C6A 3164  15.752  14.166   8.213 -0.2271  0.1706 -0.2187
  198loPI   C1B 3165  16.317  14.736   9.582  0.0512 -0.1013  0.0400
  198loPI   C2B 3166  16.360  15.171   9.429  0.0931  0.1149 -0.1183
  198loPI   C3B 3167  16.234  15.667   9.286 -0.3477  0.1416 -0.4771
  198loPI   C4B 3168  16.276  16.008   9.018  0.2776  0.1335 -0.0542
  199loPI    C1 3169  11.634  12.955  11.052 -0.0566  0.0547 -0.1476
  199loPI    C2 3170  11.552  13.283  10.838  0.1444  0.2119  0.0123
  199loPI    C3 3171  11.492  13.282  11.234  0.1666  0.0630  0.0158
  199loPI   PO4 3172  11.855  12.876  10.967  0.1888 -0.2638  0.1366
  199loPI   GL1 3173  12.030  12.829  10.496 -0.0813  0.0553  0.0466
  199loPI   GL2 3174  11.772  12.931  10.441  0.1678  0.0074  0.3437
  199loPI   C1A 3175  11.883  12.907   9.947 -0.1337 -0.0511  0.1508
  199loPI   C2A 3176  11.868  12.893   9.525 -0.1142 -0.2445  0.1544
  199loPI   C3A 3177  11.878  13.047   9.016  0.1429  0.1612 -0.1892
  199loPI   C4A 3178  11.843  13.195   8.680  0.1457  0.0171 -0.2033
  199loPI   C5A 3179  11.782  13.373   8.263  0.2550 -0.1001 -0.0544
  199loPI   C6A 3180  11.658  13.689   8.031 -0.3088 -0.2209 -0.0554
  199loPI   C1B 3181  11.468  12.686  10.145  0.0664  0.0840 -0.0638
  199loPI   C2B 3182  11.471  12.562   9.755 -0.0110  0.0320  0.3291
  199loPI   C3B 3183  11.436  12.683   9.355  0.1510  0.1492  0.1692
  199loPI   C4B 3184  11.384  12.794   8.919  0.2345  0.1586 -0.1916
  200loPI    C1 3185   2.695   9.060  10.796  0.1493 -0.0987 -0.0868
  200loPI    C2 3186   2.490   9.300  11.041  0.2998 -0.0156 -0.0416
  200loPI    C3 3187   2.612   8.941  11.169 -0.2175 -0.2629 -0.2155
  200loPI   PO4 3188   2.618   9.032  10.484  0.1166 -0.0841 -0.0227
  200loPI   GL1 3189   2.707   8.917  10.031  0.1162 -0.2731  0.0849
  200loPI   GL2 3190   2.364   8.971   9.899 -0.1647 -0.0966  0.4489
  200loPI   C1A 3191   2.990   9.018   9.645 -0.3358  0.2221  0.0323
  200loPI   C2A 3192   2.997   9.071   9.226  0.2513 -0.0457 -0.4715
  200loPI   C3A 3193   3.116   9.227   8.804  0.3982 -0.4535 -0.0532
  200loPI   C4A 3194   3.120   9.585   8.618  0.4363  0.0021 -0.1965
  200loPI   C5A 3195   3.122   9.721   8.246  0.0040  0.0804  0.1509
  200loPI   C6A 3196   3.339   9.578   7.863  0.2913  0.0258 -0.1531
  200loPI   C1B 3197   2.592   8.730   9.596  0.3497  0.1450 -0.0547
  200loPI   C2B 3198   2.675   8.659   9.193 -0.2065  0.2182 -0.1271
  200loPI   C3B 3199   2.873   8.768   8.829 -0.2054  0.0065 -0.1565
  200loPI   C4B 3200   2.828   8.947   8.427  0.6798 -0.3088 -0.1271
  201loPI    C1 3201   5.786   0.187  10.602  0.2778  0.0793  0.0149
  201loPI    C2 3202   5.418   0.303  10.708  0.2142 -0.1035 -0.0014
  201loPI    C3 3203   5.734   0.408  10.931  0.1319 -0.1006  0.1145
  201loPI   PO4 3204   5.767   0.167  10.340 -0.1159  0.1383 -0.2239
  201loPI   GL1 3205   5.737  -0.088   9.966  0.2263 -0.1288  0.1922
  201loPI   GL2 3206   5.944  -0.316   9.981 -0.0904  0.0813 -0.2429
  201loPI   C1A 3207   5.741  -0.286   9.500  0.3135  0.1018 -0.1981
  201loPI   C2A 3208   5.687  -0.247   9.071  0.0707 -0.1446 -0.3067
  201loPI   C3A 3209   5.667  -0.321   8.728 -0.0294 -0.3178  0.3080
  201loPI   C4A 3210   6.011  -0.030   8.509  0.0890 -0.2556 -0.1656
  201loPI   C5A 3211   6.386   0.086   8.382  0.2454 -0.0566 -0.1974
  201loPI   C6A 3212   6.507   0.383   8.174 -0.3494 -0.1064  0.2118
  201loPI   C1B 3213   6.200  -0.180   9.675 -0.0957 -0.1297  0.0751
  201loPI   C2B 3214   6.221  -0.114   9.318 -0.1728  0.1108 -0.1462
  201loPI   C3B 3215   5.973   0.284   9.065  0.1824  0.0998  0.0058
  201loPI   C4B 3216   5.796   0.579   8.872 -0.3277 -0.2133  0.1551
  202loPI    C1 3217   5.746   9.852  10.210 -0.1158  0.0301  0.3144
  202loPI    C2 3218   5.771  10.191   9.999  0.0542 -0.1685  0.0080
  202loPI    C3 3219   5.540  10.175  10.324  0.0064  0.2254 -0.0016
  202loPI   PO4 3220   6.106   9.836  10.119  0.0458 -0.1019  0.0597
  202loPI   GL1 3221   6.270  10.234   9.857 -0.0406  0.0546  0.1038
  202loPI   GL2 3222   6.054  10.073   9.648 -0.0319  0.3865 -0.2028
  202loPI   C1A 3223   6.345  10.356   9.359  0.0440 -0.1105  0.0819
  202loPI   C2A 3224   6.248  10.398   9.002  0.1552 -0.1367  0.1053
  202loPI   C3A 3225   6.474  10.338   8.606  0.1467  0.0281 -0.1193
  202loPI   C4A 3226   6.894  10.395   8.388  0.1287 -0.0943 -0.6211
  202loPI   C5A 3227   7.066  10.795   8.286 -0.0764  0.2240 -0.1727
  202loPI   C6A 3228   6.898  11.235   8.075  0.1344 -0.2755  0.0958
  202loPI   C1B 3229   5.848  10.193   9.325  0.3625 -0.1893 -0.0248
  202loPI   C2B 3230   5.744  10.115   8.956 -0.2170 -0.1101  0.1850
  202loPI   C3B 3231   5.920  10.140   8.518  0.1345 -0.1332 -0.2915
  202loPI   C4B 3232   6.114  10.093   8.263 -0.0155 -0.0905 -0.0564
  203loPI    C1 3233   6.741  12.974  10.653  0.1537  0.0383 -0.0318
  203loPI    C2 3234   6.539  12.840  10.971  0.2720  0.1841  0.1064
  203loPI    C3 3235   6.477  13.212  10.837  0.1489  0.0891 -0.1038
  203loPI   PO4 3236   6.652  12.807  10.479 -0.1119 -0.0655 -0.1540
  203loPI   GL1 3237   6.763  12.698  10.009 -0.5976  0.3454  0.1575
  203loPI   GL2 3238   6.887  12.956  10.079 -0.1364 -0.2178  0.2072
  203loPI   C1A 3239   6.602  12.665   9.659 -0.3065  0.3431  0.1864
  203loPI   C2A 3240   6.434  12.687   9.289 -0.0674  0.0365  0.2236
  203loPI   C3A 3241   6.525  12.764   8.909  0.2104  0.2355  0.1361
  203loPI   C4A 3242   6.423  12.620   8.517  0.0788  0.2998  0.0874
  203loPI   C5A 3243   6.246  12.469   8.258  0.3156 -0.5719 -0.2401
  203loPI   C6A 3244   6.243  12.303   7.766 -0.1605 -0.0201  0.1077
  203loPI   C1B 3245   7.048  12.948   9.621 -0.3569 -0.1059 -0.0757
  203loPI   C2B 3246   7.081  12.885   9.173  0.0102 -0.0352 -0.0166
  203loPI   C3B 3247   7.182  12.881   8.855  0.1126 -0.0405 -0.1207
  203loPI   C4B 3248   7.266  12.977   8.370  0.0317  0.2639  0.2408
  204loPI    C1 3249   9.192  11.081  10.793 -0.0287  0.0153 -0.0801
  204loPI    C2 3250   8.916  10.798  10.857  0.1066 -0.0792  0.0942
  204loPI    C3 3251   8.849  11.174  10.977 -0.0692 -0.0369 -0.1284
  204loPI   PO4 3252   9.277  11.114  10.613 -0.2257 -0.3747  0.1930
  204loPI   GL1 3253   9.296  11.118  10.177  0.0241 -0.1527 -0.0253
  204loPI   GL2 3254   9.515  11.008  10.081  0.1500  0.1118 -0.0296
  204loPI   C1A 3255   9.009  11.045   9.917  0.1847  0.2416 -0.4306
  204loPI   C2A 3256   8.931  11.055   9.527 -0.2193 -0.2100  0.1866
  204loPI   C3A 3257   8.916  11.225   9.180 -0.1963 -0.1733  0.2218
  204loPI   C4A 3258   9.016  11.304   8.833  0.0032 -0.1868  0.0999
  204loPI   C5A 3259   9.287  11.410   8.504 -0.0532  0.2018  0.0652
  204loPI   C6A 3260   9.591  11.616   8.513 -0.2261  0.0095  0.1751
  204loPI   C1B 3261   9.414  11.066   9.621 -0.0264  0.2399 -0.0172
  204loPI   C2B 3262   9.509  11.135   9.164 -0.2186 -0.5008  0.2331
  204loPI   C3B 3263   9.312  10.898   8.781  0.0262  0.1908 -0.0372
  204loPI   C4B 3264   9.498  10.720   8.454  0.1031  0.4575  0.1052
  205loPI    C1 3265  16.302  16.039  10.736  0.0035  0.0768 -0.0650
  205loPI    C2 3266  16.030  15.875  10.979  0.2101  0.0381  0.1441
  205loPI    C3 3267  16.323  16.101  11.131  0.2110  0.2004 -0.0941
  205loPI   PO4 3268  16.116  16.199  10.427  0.3906 -0.1103  0.1689
  205loPI   GL1 3269  15.943  15.982  10.142  0.1718  0.0649  0.0308
  205loPI   GL2 3270  15.637  16.216  10.143  0.1256  0.1645  0.4150
  205loPI   C1A 3271  15.866  15.943   9.664  0.3153 -0.2419  0.0403
  205loPI   C2A 3272  15.798  16.001   9.203  0.3235  0.0712  0.1201
  205loPI   C3A 3273  15.601  16.157   8.835  0.2526 -0.0247 -0.2585
  205loPI   C4A 3274  15.261  16.267   8.557  0.0206  0.0586  0.0744
  205loPI   C5A 3275  15.125  16.368   8.097 -0.1398  0.2028 -0.3649
  205loPI   C6A 3276  14.769  16.542   8.007 -0.0543 -0.1313 -0.0828
  205loPI   C1B 3277  15.416  16.249   9.808 -0.0476  0.2666  0.3673
  205loPI   C2B 3278  15.196  16.207   9.502  0.2501 -0.0777  0.1464
  205loPI   C3B 3279  15.160  16.112   9.041  0.2229 -0.1422 -0.2552
  205loPI   C4B 3280  14.880  15.902   8.815  0.0278 -0.2351  0.0443
  206loPI    C1 3281  16.820  16.751  10.570  0.0541 -0.1567  0.2266
  206loPI    C2 3282  17.122  17.007  10.628 -0.1079  0.0094  0.3500
  206loPI    C3 3283  17.012  16.758  10.921 -0.2390  0.1093  0.3864
  206loPI   PO4 3284  16.720  16.842  10.384  0.3061 -0.2488  0.3010
  206loPI   GL1 3285  16.774  16.809   9.982 -0.0921  0.0123 -0.0439
  206loPI   GL2 3286  16.527  16.954   9.895  0.0275 -0.1685 -0.0090
  206loPI   C1A 3287  16.938  16.979   9.479 -0.3285 -0.0308 -0.1292
  206loPI   C2A 3288  16.777  17.041   9.108 -0.0397 -0.0732  0.1315
  206loPI   C3A 3289  16.865  16.825   8.746 -0.0576  0.0559 -0.1673
  206loPI   C4A 3290  17.038  16.855   8.368 -0.0036  0.0689  0.0933
  206loPI   C5A 3291  17.189  17.158   8.025  0.3350 -0.1233 -0.0208
  206loPI   C6A 3292  17.376  17.385   7.904 -0.0163  0.4355  0.2099
  206loPI   C1B 3293  16.385  16.953   9.453 -0.1175 -0.0507 -0.2637
  206loPI   C2B 3294  16.188  16.959   8.959 -0.2189  0.1182  0.1574
  206loPI   C3B 3295  16.416  16.963   8.550 -0.1396 -0.0938  0.0214
  206loPI   C4B 3296  16.665  17.043   8.141 -0.2844 -0.2442  0.0641
  207loPI    C1 3297   7.383   8.015  10.198 -0.3637 -0.0233  0.1123
  207loPI    C2 3298   7.740   8.013  10.380 -0.1880  0.0786 -0.2232
  207loPI    C3 3299   7.409   8.094  10.590 -0.0163 -0.0195  0.0918
  207loPI   PO4 3300   7.472   8.190  10.016  0.2460  0.1002  0.1760
  207loPI   GL1 3301   7.321   8.329   9.623  0.0548 -0.4695 -0.1039
  207loPI   GL2 3302   7.733   8.422   9.580 -0.1060 -0.1510 -0.0912
  207loPI   C1A 3303   7.411   8.290   9.192  0.2118 -0.1722  0.1890
  207loPI   C2A 3304   7.546   8.238   8.718 -0.0285 -0.2033  0.3636
  207loPI   C3A 3305   7.851   8.182   8.400  0.3250 -0.1090 -0.1913
  207loPI   C4A 3306   7.671   8.057   8.040 -0.1099  0.1343 -0.0157
  207loPI   C5A 3307   7.411   8.289   7.666  0.2628  0.1553  0.0555
  207loPI   C6A 3308   6.992   8.482   7.496  0.0587  0.0246 -0.2404
  207loPI   C1B 3309   7.939   8.253   9.199 -0.2328  0.0439  0.1775
  207loPI   C2B 3310   8.138   8.337   8.858  0.0490 -0.0268  0.1906
  207loPI   C3B 3311   8.217   8.553   8.472 -0.0695  0.1153 -0.2282
  207loPI   C4B 3312   8.614   8.476   8.123  0.4205  0.0329  0.2775
  208loPI    C1 3313   0.731   6.338  10.198  0.1327 -0.2013 -0.0071
  208loPI    C2 3314   0.746   6.662  10.432 -0.4014 -0.0653 -0.1479
  208loPI    C3 3315   0.807   6.299  10.589 -0.0363  0.0792  0.0564
  208loPI   PO4 3316   0.644   6.439   9.980  0.2667 -0.1353 -0.0273
  208loPI   GL1 3317   0.807   6.442   9.574  0.0780 -0.1246 -0.4491
  208loPI   GL2 3318   0.912   6.721   9.507 -0.3687 -0.0198 -0.0059
  208loPI   C1A 3319   0.672   6.185   9.261 -0.1872 -0.0558 -0.1138
  208loPI   C2A 3320   0.900   5.882   8.988  0.5488  0.1657  0.1641
  208loPI   C3A 3321   1.054   5.749   8.537 -0.1156  0.1690  0.1272
  208loPI   C4A 3322   1.134   5.429   8.159 -0.4373  0.1906 -0.0270
  208loPI   C5A 3323   1.204   5.251   7.798 -0.0803  0.0682 -0.2664
  208loPI   C6A 3324   1.132   5.280   7.284 -0.1037 -0.2047 -0.1079
  208loPI   C1B 3325   0.832   6.662   9.146 -0.1722 -0.2523 -0.1557
  208loPI   C2B 3326   0.804   6.651   8.631  0.0398 -0.1674 -0.0682
  208loPI   C3B 3327   0.997   6.704   8.239 -0.0850 -0.1566  0.0740
  208loPI   C4B 3328   1.206   6.728   7.784  0.2212 -0.1475  0.0331
  209loPI    C1 3329   5.230   9.667  10.386  0.1928 -0.0870 -0.0133
  209loPI    C2 3330   5.088   9.854  10.709  0.1139 -0.4214  0.1505
  209loPI    C3 3331   5.466   9.726  10.703  0.2213 -0.1078 -0.0306
  209loPI   PO4 3332   5.126   9.904  10.164  0.3022 -0.0981  0.3033
  209loPI   GL1 3333   5.350   9.889   9.820  0.0534  0.0760 -0.0659
  209loPI   GL2 3334   5.246   9.565   9.677  0.3091 -0.1816 -0.5809
  209loPI   C1A 3335   5.372  10.269   9.483 -0.1354 -0.3322  0.3116
  209loPI   C2A 3336   5.428  10.412   9.094  0.0263  0.1932  0.4487
  209loPI   C3A 3337   5.389  10.260   8.655 -0.3987 -0.1378 -0.0995
  209loPI   C4A 3338   5.374  10.077   8.308 -0.0317  0.0846  0.0064
  209loPI   C5A 3339   5.245   9.867   7.922  0.2340 -0.2482  0.2862
  209loPI   C6A 3340   4.825   9.651   7.896  0.1483  0.1568 -0.0984
  209loPI   C1B 3341   5.195   9.346   9.303  0.0394 -0.4141  0.1667
  209loPI   C2B 3342   5.092   9.508   8.936  0.1038  0.2665  0.1452
  209loPI   C3B 3343   5.130   9.613   8.479  0.2268  0.1473 -0.1800
  209loPI   C4B 3344   5.219   9.318   8.151  0.0780  0.0395  0.1313
  210loPI    C1 3345   0.047  10.322  10.501 -0.0482  0.0229 -0.0608
  210loPI    C2 3346   0.185  10.680  10.615  0.1426 -0.0645 -0.0129
  210loPI    C3 3347  -0.066  10.478  10.852  0.2192 -0.0658  0.0677
  210loPI   PO4 3348   0.092  10.306  10.268 -0.0068  0.1383  0.1080
  210loPI   GL1 3349   0.203  10.356   9.891  0.0241  0.1581 -0.0295
  210loPI   GL2 3350  -0.141  10.460   9.781  0.2898  0.0976  0.2591
  210loPI   C1A 3351   0.324  10.346   9.449  0.0140 -0.0718 -0.2099
  210loPI   C2A 3352   0.270  10.641   9.107  0.1863  0.1754  0.2467
  210loPI   C3A 3353   0.470  10.840   8.739  0.0050  0.1074 -0.1540
  210loPI   C4A 3354   0.811  10.999   8.429  0.1774 -0.2236  0.1114
  210loPI   C5A 3355   1.204  10.934   8.286  0.1837  0.1372 -0.0301
  210loPI   C6A 3356   1.459  10.643   8.068 -0.0052  0.0039  0.2269
  210loPI   C1B 3357  -0.091  10.722   9.427 -0.1757 -0.1554  0.1687
  210loPI   C2B 3358  -0.076  11.021   9.008 -0.1341  0.3972 -0.2491
  210loPI   C3B 3359   0.052  11.064   8.631 -0.0201  0.0968  0.0617
  210loPI   C4B 3360   0.209  10.968   8.248  0.3061  0.0087 -0.1792
  211loPI    C1 3361   0.212   5.788  10.060  0.1948  0.0916 -0.2020
  211loPI    C2 3362   0.130   5.706  10.443  0.1922 -0.1943 -0.2617
  211loPI    C3 3363   0.469   5.897  10.347  0.0803  0.0932 -0.0991
  211loPI   PO4 3364   0.208   5.590   9.881  0.0541 -0.1929 -0.2791
  211loPI   GL1 3365   0.050   5.728   9.415  0.1547  0.2453 -0.2296
  211loPI   GL2 3366  -0.128   5.579   9.270 -0.2081 -0.0192  0.5384
  211loPI   C1A 3367   0.293   5.888   9.099  0.1801  0.1052 -0.0201
  211loPI   C2A 3368   0.495   5.986   8.684 -0.1026 -0.0672  0.0506
  211loPI   C3A 3369   0.742   6.193   8.432  0.1723 -0.2162  0.3916
  211loPI   C4A 3370   0.597   6.458   8.141  0.2749  0.1226  0.0373
  211loPI   C5A 3371   0.569   6.580   7.761  0.1116 -0.0591 -0.0128
  211loPI   C6A 3372   0.821   6.591   7.481  0.1571  0.0596  0.1278
  211loPI   C1B 3373   0.029   5.450   8.898  0.0485  0.2559  0.0481
  211loPI   C2B 3374   0.187   5.135   8.595 -0.2011 -0.0206  0.1816
  211loPI   C3B 3375   0.369   4.949   8.258 -0.0660 -0.1960 -0.1106
  211loPI   C4B 3376   0.388   4.881   7.829 -0.0902 -0.2015 -0.2692
  212loPI    C1 3377   0.829  13.807  10.130 -0.0762 -0.0981 -0.2748
  212loPI    C2 3378   0.517  13.711  10.360 -0.0815  0.2429 -0.1346
  212loPI    C3 3379   0.550  13.555   9.994 -0.2003 -0.1145  0.0025
  212loPI   PO4 3380   0.745  14.120  10.101  0.1040  0.0438 -0.2343
  212loPI   GL1 3381   0.569  14.275   9.723 -0.1007  0.1388 -0.0379
  212loPI   GL2 3382   0.652  13.947   9.631 -0.1022  0.1187 -0.0245
  212loPI   C1A 3383   0.604  14.307   9.293 -0.1663 -0.0710  0.1608
  212loPI   C2A 3384   0.769  14.213   8.886 -0.3203 -0.0853 -0.0206
  212loPI   C3A 3385   0.788  14.161   8.502 -0.0190  0.1897 -0.2052
  212loPI   C4A 3386   0.566  14.236   8.075  0.2781 -0.1451 -0.3521
  212loPI   C5A 3387   0.628  14.190   7.655  0.1684  0.1322 -0.2001
  212loPI   C6A 3388   0.460  14.039   7.300 -0.2013  0.1395 -0.0165
  212loPI   C1B 3389   0.657  13.829   9.273 -0.0964  0.2547 -0.3660
  212loPI   C2B 3390   0.708  13.719   8.818  0.2134  0.3059 -0.2467
  212loPI   C3B 3391   0.910  13.577   8.540  0.0572  0.0136  0.2084
  212loPI   C4B 3392   0.915  13.403   8.149  0.2164 -0.2377 -0.1589
  213loPI    C1 3393   8.433  11.361  10.484  0.0894 -0.0622 -0.1381
  213loPI    C2 3394   8.715  11.087  10.410  0.2086 -0.0204  0.1473
  213loPI    C3 3395   8.461  11.035  10.714  0.0299  0.0355  0.0091
  213loPI   PO4 3396   8.486  11.642  10.524 -0.0065  0.0692  0.0560
  213loPI   GL1 3397   8.373  11.941  10.145 -0.1435  0.0703  0.1767
  213loPI   GL2 3398   8.682  12.011  10.197  0.1890  0.0000 -0.2182
  213loPI   C1A 3399   8.200  11.868   9.700  0.3022  0.0809  0.0369
  213loPI   C2A 3400   8.087  11.964   9.356 -0.1065  0.0189  0.2086
  213loPI   C3A 3401   8.359  12.036   8.977  0.1448 -0.0030 -0.3166
  213loPI   C4A 3402   8.270  12.037   8.577 -0.1664  0.0087  0.1288
  213loPI   C5A 3403   8.151  11.784   8.257 -0.3791  0.2315  0.1233
  213loPI   C6A 3404   7.766  11.476   8.243 -0.2261  0.0673 -0.0325
  213loPI   C1B 3405   8.664  12.262   9.735  0.1190  0.1803 -0.4802
  213loPI   C2B 3406   8.573  12.412   9.273 -0.2051  0.0638  0.3077
  213loPI   C3B 3407   8.609  12.570   8.881 -0.0944  0.1298 -0.3928
  213loPI   C4B 3408   8.600  12.489   8.363  0.2574 -0.1437 -0.0241
  214loPI    C1 3409   3.318  16.250  10.160  0.1098 -0.1547  0.2212
  214loPI    C2 3410   3.018  16.343  10.408  0.0063 -0.0919  0.0739
  214loPI    C3 3411   3.210  15.994  10.449 -0.0247 -0.0918  0.2274
  214loPI   PO4 3412   3.163  16.287   9.931 -0.1226  0.0874 -0.1881
  214loPI   GL1 3413   3.271  16.118   9.556 -0.1326 -0.3857 -0.1069
  214loPI   GL2 3414   2.986  16.251   9.374  0.1464  0.2791 -0.4554
  214loPI   C1A 3415   3.386  16.097   9.133  0.1302  0.1531  0.1016
  214loPI   C2A 3416   3.338  16.243   8.700 -0.0800 -0.1993 -0.1755
  214loPI   C3A 3417   3.146  16.465   8.399  0.0312 -0.2902 -0.2144
  214loPI   C4A 3418   2.770  16.420   8.328 -0.1222  0.1081  0.0052
  214loPI   C5A 3419   2.656  16.558   8.653  0.0573 -0.0866 -0.0868
  214loPI   C6A 3420   2.706  16.577   9.142  0.1731  0.0973  0.1567
  214loPI   C1B 3421   2.925  16.090   8.933 -0.0968 -0.0602  0.1668
  214loPI   C2B 3422   2.949  15.983   8.527  0.2984  0.0548  0.1620
  214loPI   C3B 3423   2.918  15.749   8.102  0.3654  0.0241  0.0634
  214loPI   C4B 3424   2.843  15.635   7.768  0.2255  0.3286 -0.2189
  215loPI    C1 3425  13.621   1.008  10.699  0.0947  0.0016  0.1562
  215loPI    C2 3426  13.406   0.852  10.998  0.0360  0.0234  0.1257
  215loPI    C3 3427  13.804   0.810  10.995  0.0042 -0.3012  0.0144
  215loPI   PO4 3428  13.461   0.917  10.488 -0.0582  0.0155  0.0276
  215loPI   GL1 3429  13.139   0.929  10.269 -0.0388  0.1936 -0.1456
  215loPI   GL2 3430  13.229   1.239  10.110 -0.2261 -0.1673  0.0529
  215loPI   C1A 3431  13.265   0.787   9.843  0.0197 -0.0485  0.0444
  215loPI   C2A 3432  13.230   0.840   9.536 -0.3879 -0.0837 -0.0936
  215loPI   C3A 3433  13.184   0.831   9.128 -0.3770 -0.0261  0.2788
  215loPI   C4A 3434  13.008   0.927   8.708 -0.3198  0.1046  0.3415
  215loPI   C5A 3435  12.936   0.916   8.276 -0.1474 -0.0257 -0.2567
  215loPI   C6A 3436  12.876   0.575   7.988 -0.0463 -0.1445  0.0413
  215loPI   C1B 3437  13.414   1.412   9.858  0.2265  0.0724 -0.2204
  215loPI   C2B 3438  13.322   1.280   9.401 -0.1068 -0.1250  0.0790
  215loPI   C3B 3439  13.328   1.290   8.948 -0.0411 -0.0544 -0.1474
  215loPI   C4B 3440  13.160   1.328   8.477 -0.1297  0.4033  0.0353
  216loPI    C1 3441   4.045  11.825  10.443 -0.1375 -0.1988 -0.1175
  216loPI    C2 3442   4.004  11.757  10.835 -0.0360 -0.0385 -0.0782
  216loPI    C3 3443   4.369  11.790  10.675 -0.0780 -0.0481 -0.1766
  216loPI   PO4 3444   3.774  11.959  10.438  0.2783  0.5396 -0.1668
  216loPI   GL1 3445   3.632  11.909  10.066  0.1047 -0.1869  0.0398
  216loPI   GL2 3446   3.709  12.206   9.925 -0.1800  0.1770 -0.1879
  216loPI   C1A 3447   3.354  11.844   9.715  0.2696  0.1648 -0.2925
  216loPI   C2A 3448   3.445  11.795   9.381  0.2073  0.0059 -0.1543
  216loPI   C3A 3449   3.518  11.758   8.987 -0.1714 -0.1558 -0.0871
  216loPI   C4A 3450   3.551  11.956   8.571 -0.0731 -0.2713  0.0577
  216loPI   C5A 3451   3.565  11.792   8.080  0.0296  0.1271 -0.4657
  216loPI   C6A 3452   3.227  11.942   7.766 -0.0306 -0.2102  0.2066
  216loPI   C1B 3453   3.866  12.060   9.581 -0.0843 -0.0243 -0.3291
  216loPI   C2B 3454   3.836  12.184   9.198  0.2332 -0.2181  0.3189
  216loPI   C3B 3455   3.972  12.032   8.805 -0.0244 -0.0259 -0.1132
  216loPI   C4B 3456   3.960  12.134   8.256  0.0739  0.0653 -0.2673
  217loPI    C1 3457  11.291   5.049  10.187  0.0947 -0.1536 -0.2751
  217loPI    C2 3458  11.203   4.734  10.417  0.0861  0.0728  0.0381
  217loPI    C3 3459  11.487   4.991  10.531  0.3299 -0.0009 -0.3807
  217loPI   PO4 3460  11.366   4.966   9.872  0.2725 -0.0620  0.4356
  217loPI   GL1 3461  11.529   4.642   9.590 -0.4012 -0.2115  0.1986
  217loPI   GL2 3462  11.739   4.758   9.539 -0.1983  0.2349  0.1665
  217loPI   C1A 3463  11.437   4.897   9.148 -0.3565 -0.0947 -0.2788
  217loPI   C2A 3464  11.513   4.778   8.707 -0.2116  0.3529 -0.0255
  217loPI   C3A 3465  11.506   4.638   8.367  0.0471 -0.0329  0.1236
  217loPI   C4A 3466  11.584   4.423   8.029  0.2358 -0.0835 -0.1022
  217loPI   C5A 3467  11.228   4.354   7.672 -0.0025  0.1472  0.2433
  217loPI   C6A 3468  10.974   4.300   7.219 -0.3421 -0.6683 -0.4093
  217loPI   C1B 3469  11.665   4.475   9.133  0.0245 -0.0181 -0.4097
  217loPI   C2B 3470  11.711   4.348   8.753  0.1122  0.1209  0.3580
  217loPI   C3B 3471  11.754   4.073   8.398 -0.0381  0.2708 -0.0579
  217loPI   C4B 3472  11.745   3.924   7.981  0.0263 -0.1777 -0.2368
  218loPI    C1 3473  14.782   4.928  10.055  0.1698 -0.1833 -0.2897
  218loPI    C2 3474  15.043   4.629  10.007  0.2355 -0.1930  0.0900
  218loPI    C3 3475  14.968   4.771  10.373 -0.0341  0.0440 -0.0532
  218loPI   PO4 3476  14.808   5.026   9.799  0.2187 -0.1749 -0.2116
  218loPI   GL1 3477  14.889   5.393   9.524  0.0925  0.0287  0.0571
  218loPI   GL2 3478  15.127   5.052   9.441  0.1546 -0.5022  0.1620
  218loPI   C1A 3479  14.922   5.336   9.093  0.2233  0.3033 -0.3696
  218loPI   C2A 3480  14.819   5.208   8.686 -0.0718 -0.1357  0.0797
  218loPI   C3A 3481  14.710   5.023   8.234 -0.3524 -0.1665 -0.1479
  218loPI   C4A 3482  14.578   4.892   7.779 -0.2655  0.0770 -0.2401
  218loPI   C5A 3483  14.761   4.903   7.336  0.2700  0.0028  0.4966
  218loPI   C6A 3484  15.027   5.161   7.134 -0.0636 -0.1721 -0.0494
  218loPI   C1B 3485  15.084   4.849   9.135 -0.1565 -0.0567  0.2968
  218loPI   C2B 3486  15.073   4.817   8.653 -0.1766 -0.0690 -0.4660
  218loPI   C3B 3487  15.078   4.735   8.199  0.1476  0.0652 -0.3105
  218loPI   C4B 3488  15.050   4.892   7.737  0.0742  0.0451 -0.2420
  219loPI    C1 3489   0.473   8.471  10.206 -0.1051  0.1166 -0.1449
  219loPI    C2 3490   0.846   8.331  10.172 -0.1565 -0.0374 -0.0847
  219loPI    C3 3491   0.554   8.091  10.301 -0.3094  0.0348 -0.2907
  219loPI   PO4 3492   0.403   8.568  10.038  0.2105 -0.1249  0.1617
  219loPI   GL1 3493   0.600   8.409   9.690 -0.1097  0.1662 -0.0375
  219loPI   GL2 3494   0.954   8.230   9.705 -0.0264 -0.2508 -0.4919
  219loPI   C1A 3495   0.840   8.750   9.319  0.0545  0.2621  0.0816
  219loPI   C2A 3496   1.046   9.046   9.237  0.1738 -0.3314  0.1196
  219loPI   C3A 3497   0.996   9.109   8.841  0.2010 -0.0276  0.1013
  219loPI   C4A 3498   0.839   8.856   8.438 -0.0806 -0.0401 -0.0091
  219loPI   C5A 3499   0.528   8.696   8.093 -0.3136  0.1182 -0.2211
  219loPI   C6A 3500   0.447   8.713   7.730  0.0545  0.0391  0.2989
  219loPI   C1B 3501   0.943   8.256   9.227  0.0189  0.0484 -0.0796
  219loPI   C2B 3502   0.974   8.062   8.869 -0.1112  0.0720  0.2517
  219loPI   C3B 3503   0.798   7.730   8.605  0.1353  0.1749  0.1538
  219loPI   C4B 3504   0.420   7.483   8.410  0.0134  0.0216 -0.0112
  220loPI    C1 3505   1.514   5.691  10.360 -0.2100  0.0323 -0.0682
  220loPI    C2 3506   1.908   5.666  10.425 -0.1625  0.0732 -0.3305
  220loPI    C3 3507   1.652   5.634  10.731  0.0408 -0.0288 -0.1693
  220loPI   PO4 3508   1.470   5.461  10.088 -0.0576 -0.3424 -0.0629
  220loPI   GL1 3509   1.479   5.464   9.735 -0.0904 -0.0364 -0.2083
  220loPI   GL2 3510   1.351   5.799   9.627  0.0431 -0.0171  0.0263
  220loPI   C1A 3511   1.379   5.443   9.334 -0.1705 -0.2044  0.1012
  220loPI   C2A 3512   1.377   5.424   8.965  0.0909  0.4460  0.1492
  220loPI   C3A 3513   1.319   5.119   8.609 -0.2523  0.3435  0.3617
  220loPI   C4A 3514   1.052   4.973   8.348  0.0631  0.3526  0.0329
  220loPI   C5A 3515   0.795   5.083   8.036  0.2619  0.1340 -0.0334
  220loPI   C6A 3516   0.592   5.331   7.881 -0.1981 -0.3567 -0.0366
  220loPI   C1B 3517   1.461   5.918   9.164 -0.2637 -0.0897 -0.1196
  220loPI   C2B 3518   1.519   5.796   8.759  0.1459  0.4000  0.3356
  220loPI   C3B 3519   1.583   5.548   8.416 -0.1294  0.0202 -0.1988
  220loPI   C4B 3520   1.591   5.555   8.014  0.0434 -0.1900  0.3817
  221loPI    C1 3521   2.496   2.687  10.293 -0.0744 -0.0060 -0.3077
  221loPI    C2 3522   2.794   2.423  10.323 -0.1985 -0.1209 -0.0557
  221loPI    C3 3523   2.634   2.582  10.653  0.0927  0.5223 -0.2092
  221loPI   PO4 3524   2.534   2.793  10.102 -0.2067 -0.0271  0.0102
  221loPI   GL1 3525   2.699   2.515   9.759  0.0942 -0.4008  0.1079
  221loPI   GL2 3526   2.557   2.263   9.912 -0.0715  0.4591 -0.0418
  221loPI   C1A 3527   2.702   2.570   9.253  0.1765 -0.0249  0.0241
  221loPI   C2A 3528   2.498   2.737   8.919  0.3012  0.0569  0.0784
  221loPI   C3A 3529   2.217   2.633   8.612 -0.1056  0.4303  0.1704
  221loPI   C4A 3530   2.144   2.657   8.185  0.0979 -0.4052  0.4431
  221loPI   C5A 3531   1.953   2.801   7.687 -0.1925  0.1350  0.3908
  221loPI   C6A 3532   1.509   2.913   7.670 -0.0002  0.1850 -0.0943
  221loPI   C1B 3533   2.344   2.252   9.478  0.1967  0.2219  0.0769
  221loPI   C2B 3534   2.408   2.247   9.104 -0.1645  0.0340 -0.3686
  221loPI   C3B 3535   2.474   2.169   8.704 -0.2829  0.2229  0.0130
  221loPI   C4B 3536   2.548   2.233   8.259  0.0055 -0.1183 -0.0041
  222loPI    C1 3537   5.056   4.539  10.363  0.2458  0.2018 -0.3001
  222loPI    C2 3538   5.091   4.903  10.526  0.0506  0.0703  0.0460
  222loPI    C3 3539   5.230   4.582  10.721  0.2672 -0.0392 -0.2798
  222loPI   PO4 3540   5.135   4.523  10.173  0.2219 -0.0414  0.0879
  222loPI   GL1 3541   4.943   4.558   9.852 -0.1556  0.1206  0.0005
  222loPI   GL2 3542   4.749   4.729   9.905 -0.0825  0.0503  0.1240
  222loPI   C1A 3543   4.799   4.225   9.569 -0.0550 -0.2179  0.2640
  222loPI   C2A 3544   4.561   4.279   9.278  0.3297 -0.0093  0.2138
  222loPI   C3A 3545   4.691   4.230   8.917 -0.1496  0.1145 -0.3313
  222loPI   C4A 3546   4.660   4.149   8.577 -0.1866  0.0779  0.4374
  222loPI   C5A 3547   4.628   3.748   8.301  0.0531 -0.7618 -0.1792
  222loPI   C6A 3548   4.527   3.654   7.779 -0.3165 -0.0471  0.2373
  222loPI   C1B 3549   4.907   4.686   9.361 -0.1364 -0.3857 -0.1218
  222loPI   C2B 3550   4.908   4.709   8.940 -0.1357  0.2474  0.1100
  222loPI   C3B 3551   4.832   4.608   8.537 -0.1233  0.2198 -0.0074
  222loPI   C4B 3552   4.826   4.730   8.084  0.2476 -0.2700 -0.1048
  223loPI    C1 3553   7.410   6.201  10.278  0.1643 -0.2287 -0.1630
  223loPI    C2 3554   7.532   6.359  10.625 -0.1944  0.1119 -0.1858
  223loPI    C3 3555   7.428   5.973  10.607  0.2620 -0.0253 -0.0255
  223loPI   PO4 3556   7.648   6.258  10.082 -0.0111 -0.2503  0.4034
  223loPI   GL1 3557   7.602   6.298   9.692  0.0305  0.1116  0.0239
  223loPI   GL2 3558   7.822   6.313   9.482  0.0505  0.3717  0.0415
  223loPI   C1A 3559   7.244   6.441   9.392  0.0066 -0.0371 -0.0383
  223loPI   C2A 3560   7.015   6.442   8.995  0.1842  0.1529  0.2231
  223loPI   C3A 3561   6.755   6.648   8.712  0.2734  0.1822  0.0119
  223loPI   C4A 3562   6.741   6.564   8.253  0.0012 -0.3041  0.0402
  223loPI   C5A 3563   6.863   6.888   7.992  0.3141  0.3048 -0.1516
  223loPI   C6A 3564   6.918   7.170   7.685 -0.0981  0.1557 -0.0580
  223loPI   C1B 3565   7.602   6.269   9.050 -0.0325 -0.1307 -0.0562
  223loPI   C2B 3566   7.402   6.394   8.733 -0.5272 -0.1402  0.2052
  223loPI   C3B 3567   7.227   6.590   8.311 -0.3152 -0.0708  0.2379
  223loPI   C4B 3568   7.079   6.319   7.970  0.1969 -0.2500  0.0313
  224loPI    C1 3569  15.502   4.730  10.294 -0.2092  0.1745 -0.0508
  224loPI    C2 3570  15.439   4.568  10.655  0.3155 -0.2712 -0.1453
  224loPI    C3 3571  15.681   4.884  10.617  0.1465 -0.1340 -0.0938
  224loPI   PO4 3572  15.552   4.507  10.165  0.1359 -0.0417 -0.0617
  224loPI   GL1 3573  15.832   4.350   9.905  0.1880  0.0642  0.1842
  224loPI   GL2 3574  16.001   4.026   9.878 -0.1470 -0.0492  0.0738
  224loPI   C1A 3575  15.800   4.408   9.482 -0.2628  0.0935 -0.3999
  224loPI   C2A 3576  16.061   4.363   9.096 -0.1623 -0.2404  0.0884
  224loPI   C3A 3577  15.926   4.269   8.671  0.0570  0.0806 -0.1398
  224loPI   C4A 3578  15.851   4.481   8.353 -0.0249 -0.0147  0.0908
  224loPI   C5A 3579  15.982   4.499   7.908  0.0303 -0.0687  0.0836
  224loPI   C6A 3580  16.078   4.464   7.513  0.1311 -0.1435  0.0160
  224loPI   C1B 3581  16.066   4.026   9.405  0.0524  0.2644  0.1219
  224loPI   C2B 3582  16.184   3.856   8.971  0.3656 -0.0721  0.1231
  224loPI   C3B 3583  16.321   3.825   8.636 -0.1249 -0.3443 -0.2412
  224loPI   C4B 3584  16.610   3.807   8.308  0.1587 -0.0778  0.2186
  225loPI    C1 3585  13.719  17.292  10.708 -0.0094  0.0627  0.0895
  225loPI    C2 3586  13.809  17.051  11.014  0.1681  0.1881  0.1381
  225loPI    C3 3587  13.582  17.376  11.074 -0.2583 -0.0817  0.0316
  225loPI   PO4 3588  13.609  17.185  10.526 -0.1668 -0.0646 -0.0300
  225loPI   GL1 3589  13.379  16.884  10.363  0.1505  0.2395 -0.4528
  225loPI   GL2 3590  12.992  16.760  10.299  0.0886 -0.1902  0.1196
  225loPI   C1A 3591  13.469  16.705  10.048 -0.1567  0.1368  0.1599
  225loPI   C2A 3592  13.536  16.796   9.789  0.0307 -0.4519 -0.0932
  225loPI   C3A 3593  13.688  17.113   9.527 -0.0255 -0.0098  0.2179
  225loPI   C4A 3594  13.742  17.145   8.992 -0.0513 -0.1165 -0.4714
  225loPI   C5A 3595  13.584  17.016   8.564 -0.0285 -0.3716  0.1357
  225loPI   C6A 3596  13.650  16.529   8.468  0.0885  0.0311  0.0957
  225loPI   C1B 3597  13.055  16.931   9.875 -0.1977 -0.4078 -0.0249
  225loPI   C2B 3598  13.222  16.928   9.418 -0.1334  0.1853 -0.4440
  225loPI   C3B 3599  13.143  17.055   9.058  0.0234 -0.2311 -0.1638
  225loPI   C4B 3600  13.108  17.042   8.688  0.4232 -0.0701 -0.0132
  226loPI    C1 3601  11.968   9.359  10.711  0.0785  0.0685  0.0906
  226loPI    C2 3602  12.323   9.521  10.799  0.1778 -0.1673  0.1325
  226loPI    C3 3603  12.243   9.144  10.907 -0.0283 -0.1668 -0.0129
  226loPI   PO4 3604  11.952   9.516  10.489  0.0571 -0.1126 -0.2786
  226loPI   GL1 3605  11.993   9.809  10.169 -0.1678 -0.1475  0.0810
  226loPI   GL2 3606  11.747   9.548  10.045  0.0899  0.1581 -0.1892
  226loPI   C1A 3607  12.121   9.694   9.744 -0.0186  0.1152 -0.2389
  226loPI   C2A 3608  12.187   9.630   9.283  0.1419 -0.1774  0.1748
  226loPI   C3A 3609  12.114   9.679   8.892 -0.0371  0.0385  0.2938
  226loPI   C4A 3610  12.117   9.843   8.448 -0.1618  0.2601 -0.0138
  226loPI   C5A 3611  12.024  10.114   8.150  0.0475 -0.0763 -0.0987
  226loPI   C6A 3612  11.636  10.376   8.146 -0.3527  0.0349  0.2491
  226loPI   C1B 3613  11.687   9.434   9.692 -0.2120 -0.0947  0.0248
  226loPI   C2B 3614  11.673   9.333   9.213 -0.0535 -0.1697 -0.1294
  226loPI   C3B 3615  11.540   9.527   8.823  0.1621 -0.1571  0.0644
  226loPI   C4B 3616  11.566   9.716   8.365 -0.1069 -0.0484  0.1789
  227loPI    C1 3617   1.611   1.716  10.496 -0.0068 -0.1698  0.0679
  227loPI    C2 3618   1.371   1.748  10.813  0.1643  0.0557  0.1773
  227loPI    C3 3619   1.768   1.760  10.861  0.1949 -0.0952 -0.0259
  227loPI   PO4 3620   1.616   1.901  10.307 -0.0875  0.1423 -0.1941
  227loPI   GL1 3621   1.640   1.918   9.887 -0.3602  0.0418  0.4385
  227loPI   GL2 3622   1.322   2.000   9.849  0.0981  0.1437 -0.1602
  227loPI   C1A 3623   1.585   1.716   9.453  0.3360  0.2243  0.3818
  227loPI   C2A 3624   1.733   1.619   9.005 -0.0122  0.1022 -0.0712
  227loPI   C3A 3625   1.841   1.490   8.611 -0.2054  0.1278 -0.1520
  227loPI   C4A 3626   1.747   1.138   8.502 -0.2040  0.1142  0.1161
  227loPI   C5A 3627   1.963   0.867   8.101  0.0145  0.2274 -0.2506
  227loPI   C6A 3628   2.278   0.869   7.922 -0.3079 -0.0271 -0.1476
  227loPI   C1B 3629   1.325   2.138   9.364 -0.3425  0.2326 -0.0571
  227loPI   C2B 3630   1.499   2.017   8.947 -0.0018  0.0790  0.2168
  227loPI   C3B 3631   1.593   1.890   8.584 -0.0514  0.1265  0.2251
  227loPI   C4B 3632   1.735   1.916   8.152 -0.1169  0.1402 -0.1682
  228loPI    C1 3633  16.053  15.147  10.518 -0.1697 -0.0813  0.2075
  228loPI    C2 3634  16.352  14.947  10.343 -0.4365 -0.2210 -0.1006
  228loPI    C3 3635  16.309  14.935  10.741  0.0302 -0.1057 -0.0403
  228loPI   PO4 3636  15.795  15.039  10.493  0.5024  0.0051 -0.2950
  228loPI   GL1 3637  15.531  14.875  10.310  0.1648 -0.0502  0.2871
  228loPI   GL2 3638  15.835  14.896  10.030  0.0677  0.1967 -0.0362
  228loPI   C1A 3639  15.355  14.692   9.925 -0.1388 -0.0064 -0.3215
  228loPI   C2A 3640  15.305  14.717   9.508 -0.0345 -0.1324 -0.2486
  228loPI   C3A 3641  15.505  14.620   9.147 -0.1396 -0.0359  0.2140
  228loPI   C4A 3642  15.793  14.616   8.847  0.0641  0.1358 -0.4598
  228loPI   C5A 3643  16.079  14.632   8.452 -0.2065 -0.2554 -0.0638
  228loPI   C6A 3644  16.106  14.557   8.050  0.1461 -0.1090 -0.0759
  228loPI   C1B 3645  15.782  14.972   9.600  0.0306  0.1973 -0.0635
  228loPI   C2B 3646  15.903  14.983   9.199 -0.0483 -0.0043 -0.0858
  228loPI   C3B 3647  15.748  15.087   8.790  0.3461  0.3144  0.1124
  228loPI   C4B 3648  15.390  15.263   8.495  0.1904  0.0969  0.2707
  229loPI    C1 3649  18.093   4.429  10.224 -0.0346  0.0241  0.1107
  229loPI    C2 3650  17.823   4.425  10.519 -0.1117  0.2245  0.0452
  229loPI    C3 3651  18.061   4.743  10.470 -0.1041  0.1954 -0.1130
  229loPI   PO4 3652  18.016   4.404   9.995  0.1995  0.0581 -0.0785
  229loPI   GL1 3653  18.130   4.708   9.531  0.0275 -0.0886 -0.0370
  229loPI   GL2 3654  18.405   4.533   9.662 -0.1381 -0.0083  0.1332
  229loPI   C1A 3655  18.059   4.489   9.180 -0.1269 -0.3332  0.0835
  229loPI   C2A 3656  18.128   4.365   8.721 -0.0549  0.0630 -0.0465
  229loPI   C3A 3657  17.971   4.422   8.290  0.1517 -0.0438 -0.3185
  229loPI   C4A 3658  17.954   4.505   7.943  0.2940  0.1108  0.5044
  229loPI   C5A 3659  17.574   4.702   7.681 -0.3566  0.3011  0.0860
  229loPI   C6A 3660  17.286   5.034   7.816 -0.0574  0.1617 -0.0536
  229loPI   C1B 3661  18.553   4.502   9.203 -0.1562 -0.1302 -0.0168
  229loPI   C2B 3662  18.665   4.339   8.800  0.0435  0.1748  0.1086
  229loPI   C3B 3663  18.512   4.210   8.397  0.2009  0.0551 -0.2923
  229loPI   C4B 3664  18.434   4.029   8.073 -0.1258  0.0443  0.0374
  230loPI    C1 3665   9.342   9.548  10.348  0.1546 -0.1108  0.0432
  230loPI    C2 3666   9.431   9.195  10.182  0.0053 -0.0637 -0.1404
  230loPI    C3 3667   9.365   9.220  10.575  0.2514 -0.1967 -0.0890
  230loPI   PO4 3668   9.237   9.723  10.271 -0.1460  0.1257  0.0237
  230loPI   GL1 3669   9.239   9.999   9.931 -0.0019 -0.1818  0.1778
  230loPI   GL2 3670   9.574  10.067  10.064  0.2164 -0.0702 -0.1138
  230loPI   C1A 3671   9.243   9.977   9.463  0.0152  0.0151  0.0807
  230loPI   C2A 3672   9.167   9.908   9.024  0.2654  0.1995 -0.0516
  230loPI   C3A 3673   9.172  10.153   8.616 -0.3232  0.0627  0.2146
  230loPI   C4A 3674   9.088  10.530   8.454  0.0240  0.0771  0.1773
  230loPI   C5A 3675   9.202  10.700   8.015  0.2180  0.1429 -0.2665
  230loPI   C6A 3676   9.016  10.792   7.608  0.0561  0.0835  0.3764
  230loPI   C1B 3677   9.577  10.316   9.646  0.0542  0.1515  0.0505
  230loPI   C2B 3678   9.697   9.970   9.195 -0.2758 -0.0032  0.1363
  230loPI   C3B 3679   9.716   9.913   8.823 -0.3983 -0.1621  0.0864
  230loPI   C4B 3680   9.679  10.238   8.537 -0.2718 -0.1353 -0.0755
  231loPI    C1 3681   0.587   3.304  10.282 -0.0903  0.1506  0.0258
  231loPI    C2 3682   0.532   2.968  10.492  0.1657 -0.0425 -0.2093
  231loPI    C3 3683   0.338   3.302  10.595  0.0311 -0.2193  0.1249
  231loPI   PO4 3684   0.519   3.317   9.998 -0.2295  0.2947  0.1409
  231loPI   GL1 3685   0.501   3.510   9.586 -0.2490  0.2618 -0.0108
  231loPI   GL2 3686   0.143   3.649   9.684 -0.0907  0.0782 -0.0865
  231loPI   C1A 3687   0.560   3.379   9.179  0.2200  0.3527 -0.0316
  231loPI   C2A 3688   0.680   3.066   8.780 -0.1952  0.1031  0.4105
  231loPI   C3A 3689   0.868   3.084   8.413 -0.2247 -0.5209 -0.2284
  231loPI   C4A 3690   0.761   3.358   8.114  0.2748  0.1289 -0.0816
  231loPI   C5A 3691   0.488   3.140   7.796 -0.2479  0.0943  0.0645
  231loPI   C6A 3692   0.454   2.821   7.491  0.0101  0.1562 -0.2193
  231loPI   C1B 3693   0.085   3.536   9.249  0.0384  0.1340  0.1440
  231loPI   C2B 3694   0.204   3.399   8.789  0.0694  0.1907 -0.1721
  231loPI   C3B 3695   0.317   3.241   8.380  0.2999  0.3023 -0.1414
  231loPI   C4B 3696   0.494   2.857   8.166  0.2205 -0.2458 -0.0834
  232loPI    C1 3697   0.268  13.951  10.015 -0.1192  0.3869 -0.0988
  232loPI    C2 3698   0.018  14.261  10.045 -0.1137  0.3582  0.3023
  232loPI    C3 3699   0.260  14.170  10.350 -0.2129 -0.1241  0.2449
  232loPI   PO4 3700   0.153  13.774   9.894  0.0411 -0.0072  0.0007
  232loPI   GL1 3701   0.358  13.428   9.554  0.1216  0.1569 -0.2985
  232loPI   GL2 3702   0.643  13.384   9.531 -0.1569  0.3804 -0.4488
  232loPI   C1A 3703   0.332  13.428   9.062 -0.0926  0.0427 -0.1150
  232loPI   C2A 3704   0.378  13.364   8.671 -0.1055  0.0830 -0.2572
  232loPI   C3A 3705   0.342  13.263   8.269 -0.3093  0.0856  0.0508
  232loPI   C4A 3706  -0.006  13.171   7.995 -0.1135 -0.3152 -0.0160
  232loPI   C5A 3707  -0.218  12.789   7.936 -0.2474  0.0309  0.1327
  232loPI   C6A 3708  -0.544  12.643   7.580 -0.0816  0.0074 -0.0501
  232loPI   C1B 3709   0.851  13.280   9.061 -0.1822 -0.0329 -0.2385
  232loPI   C2B 3710   0.784  13.062   8.717 -0.0533 -0.1085  0.2169
  232loPI   C3B 3711   0.666  12.889   8.353 -0.1915  0.0499 -0.3005
  232loPI   C4B 3712   0.677  12.961   7.984  0.1185 -0.2118  0.2153
  233loPI    C1 3713   3.079  15.429  10.223  0.2071 -0.1596 -0.0019
  233loPI    C2 3714   2.826  15.231  10.462  0.0624 -0.0075 -0.0267
  233loPI    C3 3715   3.098  15.480  10.620 -0.1860  0.2709 -0.0288
  233loPI   PO4 3716   2.982  15.185   9.930  0.1495  0.1488 -0.2295
  233loPI   GL1 3717   3.082  14.962   9.507  0.1834  0.3135 -0.1404
  233loPI   GL2 3718   2.963  14.679   9.374 -0.0623  0.0887  0.3034
  233loPI   C1A 3719   3.217  15.071   9.207  0.1112 -0.1557 -0.3731
  233loPI   C2A 3720   3.093  15.209   8.769  0.0481 -0.3474 -0.4641
  233loPI   C3A 3721   3.160  15.438   8.421  0.2489 -0.1353 -0.1259
  233loPI   C4A 3722   3.238  15.284   8.065  0.0174  0.2350 -0.0778
  233loPI   C5A 3723   3.351  15.393   7.713  0.0670  0.0422 -0.0905
  233loPI   C6A 3724   3.258  15.858   7.605  0.3206 -0.0704 -0.1071
  233loPI   C1B 3725   2.919  14.724   8.936 -0.0461 -0.2021 -0.0808
  233loPI   C2B 3726   2.923  14.832   8.537 -0.0078 -0.1275 -0.3763
  233loPI   C3B 3727   3.038  14.863   8.155  0.3125  0.3356  0.1746
  233loPI   C4B 3728   2.891  14.609   7.820  0.1262 -0.2669  0.3403
  234loPI    C1 3729  12.619   1.038  10.796  0.0146 -0.0402  0.0078
  234loPI    C2 3730  12.261   0.860  10.791  0.0451 -0.0992 -0.0910
  234loPI    C3 3731  12.409   1.001  11.134 -0.0303 -0.1607 -0.0330
  234loPI   PO4 3732  12.718   0.871  10.536  0.1833  0.2370 -0.1405
  234loPI   GL1 3733  12.787   0.520  10.127 -0.2830  0.1247  0.0133
  234loPI   GL2 3734  13.077   0.443  10.114  0.1350  0.0387  0.2086
  234loPI   C1A 3735  12.710   0.639   9.653 -0.0549  0.2344 -0.1051
  234loPI   C2A 3736  12.727   0.710   9.281  0.3829  0.0878 -0.2466
  234loPI   C3A 3737  12.601   0.704   8.892  0.2833 -0.1013 -0.0927
  234loPI   C4A 3738  12.450   0.694   8.482  0.2658  0.1842  0.2106
  234loPI   C5A 3739  12.491   0.324   8.231  0.4644  0.0594 -0.1959
  234loPI   C6A 3740  12.711  -0.057   8.285  0.1146 -0.0702  0.0771
  234loPI   C1B 3741  13.096   0.309   9.723  0.0137  0.0273  0.2476
  234loPI   C2B 3742  13.110   0.371   9.384 -0.0102  0.2243  0.0498
  234loPI   C3B 3743  13.024   0.405   8.942  0.3683 -0.1414 -0.2145
  234loPI   C4B 3744  12.904   0.405   8.518 -0.0819  0.0422 -0.3986
  235loPI    C1 3745  14.565  13.196  11.047 -0.0209  0.0432  0.0895
  235loPI    C2 3746  14.706  12.825  10.996  0.0703  0.1114 -0.1689
  235loPI    C3 3747  14.696  12.987  11.361  0.2663 -0.0519 -0.0894
  235loPI   PO4 3748  14.489  13.197  10.746  0.1951 -0.2187  0.2966
  235loPI   GL1 3749  14.383  13.449  10.383  0.0915 -0.2071 -0.0989
  235loPI   GL2 3750  14.507  13.113  10.238  0.3717  0.1690  0.0820
  235loPI   C1A 3751  14.168  13.513  10.049  0.4790  0.0300  0.1520
  235loPI   C2A 3752  14.144  13.422   9.596  0.0414 -0.0225  0.1239
  235loPI   C3A 3753  14.095  13.386   9.108 -0.4715 -0.1670 -0.0873
  235loPI   C4A 3754  14.164  13.531   8.681 -0.1580  0.1390 -0.1670
  235loPI   C5A 3755  14.384  13.542   8.291 -0.0287  0.0314  0.0436
  235loPI   C6A 3756  14.895  13.571   8.354  0.0556  0.4176  0.0717
  235loPI   C1B 3757  14.565  13.071   9.791  0.5760 -0.0900 -0.1757
  235loPI   C2B 3758  14.378  13.058   9.341 -0.1681 -0.0336  0.1689
  235loPI   C3B 3759  14.475  13.128   8.790  0.1233 -0.0590 -0.1517
  235loPI   C4B 3760  14.260  13.074   8.341 -0.1964 -0.3280 -0.0553
  236loPI    C1 3761   5.720   6.326  10.672 -0.1421 -0.0749  0.2069
  236loPI    C2 3762   5.690   6.699  10.812 -0.0245  0.0790 -0.1679
  236loPI    C3 3763   5.837   6.410  11.045  0.1343  0.3212  0.0372
  236loPI   PO4 3764   5.468   6.222  10.492  0.2222  0.1115  0.2270
  236loPI   GL1 3765   5.430   6.301  10.085  0.1308 -0.1532  0.1479
  236loPI   GL2 3766   5.231   6.265   9.845  0.3816 -0.3196 -0.0281
  236loPI   C1A 3767   5.705   6.236   9.719  0.2192 -0.3498 -0.0706
  236loPI   C2A 3768   5.762   6.142   9.283  0.2901 -0.2826 -0.3791
  236loPI   C3A 3769   5.988   6.198   8.973  0.3670  0.2701 -0.2475
  236loPI   C4A 3770   6.271   5.947   8.624 -0.0758 -0.2538  0.1153
  236loPI   C5A 3771   6.530   6.068   8.163 -0.2389  0.0414  0.0812
  236loPI   C6A 3772   6.754   5.988   7.735  0.0974  0.0150  0.2859
  236loPI   C1B 3773   5.112   6.033   9.514 -0.3644  0.2218  0.0796
  236loPI   C2B 3774   5.285   5.992   9.127 -0.0517  0.0559  0.1657
  236loPI   C3B 3775   5.496   6.087   8.705 -0.0844 -0.1626 -0.1575
  236loPI   C4B 3776   5.799   6.276   8.478  0.1324 -0.4448 -0.1264
  237loPI    C1 3777   3.187   3.616  10.484 -0.0564 -0.0946  0.0308
  237loPI    C2 3778   3.268   3.906  10.747 -0.0540 -0.0647 -0.0028
  237loPI    C3 3779   3.282   3.523  10.862  0.0470 -0.0560  0.0147
  237loPI   PO4 3780   3.003   3.725  10.338 -0.1398 -0.1607 -0.0679
  237loPI   GL1 3781   2.941   4.023   9.946  0.0039  0.0950 -0.1469
  237loPI   GL2 3782   2.780   4.201  10.069  0.1082  0.1181 -0.1354
  237loPI   C1A 3783   2.774   3.973   9.517 -0.0226 -0.1207 -0.2302
  237loPI   C2A 3784   2.784   3.894   9.189 -0.0673  0.2730  0.0886
  237loPI   C3A 3785   2.965   3.885   8.754 -0.2934  0.2106 -0.1244
  237loPI   C4A 3786   3.059   3.860   8.352  0.3450  0.0717 -0.0118
  237loPI   C5A 3787   3.066   3.904   7.932 -0.1864 -0.0654  0.1954
  237loPI   C6A 3788   3.489   3.735   7.648 -0.2108  0.0221 -0.4487
  237loPI   C1B 3789   2.705   4.419   9.697 -0.3475 -0.0620  0.0244
  237loPI   C2B 3790   2.725   4.405   9.249  0.0271  0.0974 -0.0387
  237loPI   C3B 3791   2.880   4.361   8.862  0.2336  0.4340  0.2134
  237loPI   C4B 3792   2.876   4.337   8.349  0.3474  0.1277 -0.1252
  238loPI    C1 3793   6.491  17.585  10.250 -0.1901 -0.1163  0.1141
  238loPI    C2 3794   6.547  17.912  10.474  0.0722 -0.0372 -0.0620
  238loPI    C3 3795   6.176  17.782  10.398 -0.0325  0.1956  0.0422
  238loPI   PO4 3796   6.698  17.383  10.314  0.0773 -0.0467 -0.2355
  238loPI   GL1 3797   6.719  17.124  10.034  0.2198 -0.2921  0.2363
  238loPI   GL2 3798   6.464  17.165   9.885 -0.0424 -0.2384 -0.0374
  238loPI   C1A 3799   6.842  17.073   9.572  0.4693 -0.0045  0.0970
  238loPI   C2A 3800   6.882  17.180   9.125  0.2625  0.3638 -0.0489
  238loPI   C3A 3801   6.719  17.318   8.634  0.0347 -0.1985 -0.0340
  238loPI   C4A 3802   6.493  17.545   8.296  0.1477  0.2036 -0.3311
  238loPI   C5A 3803   6.462  17.801   8.057  0.1715  0.2249 -0.1485
  238loPI   C6A 3804   6.544  18.270   7.933 -0.2242  0.0588  0.1189
  238loPI   C1B 3805   6.393  17.320   9.479  0.1774  0.0774 -0.1502
  238loPI   C2B 3806   6.452  17.486   9.130 -0.0279  0.1971  0.0047
  238loPI   C3B 3807   6.477  17.720   8.780  0.0370 -0.1701 -0.0822
  238loPI   C4B 3808   6.485  18.028   8.544 -0.4001 -0.1212 -0.0232
  239loPI    C1 3809  11.943  15.317  11.061 -0.0065  0.0543 -0.1740
  239loPI    C2 3810  11.982  15.496  11.417 -0.2013 -0.1434 -0.0505
  239loPI    C3 3811  11.945  15.098  11.396 -0.1029 -0.1414 -0.2993
  239loPI   PO4 3812  12.191  15.422  10.835  0.3891 -0.3090  0.0898
  239loPI   GL1 3813  12.191  15.470  10.365 -0.0544 -0.3457 -0.1137
  239loPI   GL2 3814  12.484  15.457  10.362  0.1307 -0.1856 -0.3250
  239loPI   C1A 3815  12.185  15.304  10.000  0.1125  0.1045  0.0130
  239loPI   C2A 3816  12.418  15.276   9.578  0.0661 -0.0952  0.1701
  239loPI   C3A 3817  12.718  15.228   9.162  0.1326 -0.1318 -0.0348
  239loPI   C4A 3818  12.559  15.251   8.765  0.0435  0.2489 -0.0582
  239loPI   C5A 3819  12.316  15.469   8.547 -0.0094 -0.0026 -0.1334
  239loPI   C6A 3820  12.072  15.771   8.276 -0.3365 -0.2374 -0.0418
  239loPI   C1B 3821  12.532  15.604   9.886 -0.0266  0.0398 -0.2876
  239loPI   C2B 3822  12.720  15.674   9.419 -0.1634  0.0055  0.2013
  239loPI   C3B 3823  12.791  15.912   9.057 -0.1080 -0.0216  0.2043
  239loPI   C4B 3824  13.092  16.101   8.770  0.0125  0.0009  0.1124
  240loPI    C1 3825  18.144   6.000  10.138  0.0229  0.1118 -0.0348
  240loPI    C2 3826  17.826   5.761  10.177  0.0757  0.0383 -0.0524
  240loPI    C3 3827  17.992   5.928  10.501  0.2481 -0.2227 -0.0029
  240loPI   PO4 3828  18.076   6.203   9.916 -0.1914  0.1229 -0.1403
  240loPI   GL1 3829  18.273   6.169   9.580 -0.0892  0.0913  0.1549
  240loPI   GL2 3830  17.943   6.008   9.426  0.0178  0.0936 -0.3132
  240loPI   C1A 3831  18.188   6.247   9.098 -0.1708 -0.2672  0.1309
  240loPI   C2A 3832  18.278   6.000   8.728  0.1025 -0.0448 -0.2679
  240loPI   C3A 3833  18.361   5.699   8.496 -0.3245  0.0743  0.3718
  240loPI   C4A 3834  18.185   5.452   8.303 -0.0152  0.2436  0.2521
  240loPI   C5A 3835  17.911   5.334   8.184 -0.2141  0.2928 -0.1510
  240loPI   C6A 3836  17.800   5.199   7.899  0.1633 -0.0624  0.0024
  240loPI   C1B 3837  17.737   6.023   8.974 -0.5189  0.1726  0.1507
  240loPI   C2B 3838  17.792   6.173   8.529  0.2299 -0.1580  0.1685
  240loPI   C3B 3839  17.689   6.365   8.142 -0.1509 -0.1276 -0.0629
  240loPI   C4B 3840  17.706   6.508   7.700  0.0453 -0.1976  0.0439
  241loPI    C1 3841  13.117   8.251  10.667  0.1833 -0.2957 -0.2727
  241loPI    C2 3842  13.303   8.310  11.016  0.0536  0.0402 -0.2566
  241loPI    C3 3843  13.412   8.519  10.694 -0.0998  0.0278 -0.3177
  241loPI   PO4 3844  12.768   8.322  10.651 -0.0930  0.2449  0.0218
  241loPI   GL1 3845  12.498   8.246  10.319  0.0583  0.1264 -0.1221
  241loPI   GL2 3846  12.371   8.561  10.133 -0.2419  0.0679 -0.1366
  241loPI   C1A 3847  12.635   8.178   9.909 -0.1655 -0.1314  0.1240
  241loPI   C2A 3848  12.839   8.446   9.512  0.0575  0.2715  0.0645
  241loPI   C3A 3849  12.700   8.626   9.183 -0.0016  0.0501  0.0063
  241loPI   C4A 3850  12.724   8.863   8.824  0.3554 -0.1227 -0.0578
  241loPI   C5A 3851  12.928   9.301   8.640  0.0784  0.1896  0.5505
  241loPI   C6A 3852  13.069   9.529   8.314 -0.1088  0.1766  0.0922
  241loPI   C1B 3853  12.369   8.725   9.669 -0.0087  0.0159 -0.4444
  241loPI   C2B 3854  12.186   8.677   9.286 -0.0765 -0.0004  0.1264
  241loPI   C3B 3855  12.222   8.561   8.994 -0.1935 -0.0380  0.0047
  241loPI   C4B 3856  12.223   8.255   8.671  0.1105  0.0734 -0.0468
  242loPI    C1 3857   7.400  18.183  10.889 -0.1447 -0.1088 -0.3383
  242loPI    C2 3858   7.303  17.801  10.960 -0.0861 -0.0006  0.3959
  242loPI    C3 3859   7.640  17.954  11.112  0.1310  0.2283 -0.2811
  242loPI   PO4 3860   7.313  18.311  10.665 -0.1632 -0.1813  0.2082
  242loPI   GL1 3861   7.370  18.254  10.249 -0.3256  0.2648 -0.2769
  242loPI   GL2 3862   7.112  18.456  10.244 -0.0174  0.0967  0.1314
  242loPI   C1A 3863   7.540  18.395   9.947 -0.0838  0.0617  0.0658
  242loPI   C2A 3864   7.474  18.707   9.567  0.1006 -0.0044  0.1826
  242loPI   C3A 3865   7.451  19.146   9.255 -0.1899  0.0738 -0.0558
  242loPI   C4A 3866   7.485  19.504   8.966  0.2147 -0.0361 -0.2128
  242loPI   C5A 3867   7.519  19.833   8.696  0.2752  0.2599  0.1035
  242loPI   C6A 3868   7.702  20.204   8.514  0.0449  0.2960  0.2339
  242loPI   C1B 3869   7.102  18.692   9.949  0.2479 -0.2370 -0.0764
  242loPI   C2B 3870   6.968  18.836   9.507 -0.0806  0.1225 -0.0750
  242loPI   C3B 3871   6.909  18.868   9.101 -0.3082 -0.0923  0.0475
  242loPI   C4B 3872   6.744  18.820   8.668 -0.1728 -0.0947  0.2036
  243loPI    C1 3873   1.135  15.965  10.286 -0.0673 -0.2918  0.0276
  243loPI    C2 3874   1.325  15.720  10.539 -0.2412 -0.1523  0.2984
  243loPI    C3 3875   0.938  15.805  10.595 -0.2647 -0.0649  0.0220
  243loPI   PO4 3876   1.372  16.016  10.121 -0.0869  0.2145 -0.2243
  243loPI   GL1 3877   1.490  15.820   9.758  0.0885  0.0322  0.0282
  243loPI   GL2 3878   1.742  15.942   9.768  0.1126 -0.4471 -0.2001
  243loPI   C1A 3879   1.229  15.702   9.499 -0.2446 -0.0838 -0.0563
  243loPI   C2A 3880   1.090  15.642   9.011  0.0647 -0.0017 -0.1900
  243loPI   C3A 3881   1.004  15.621   8.576  0.1574 -0.1512 -0.1274
  243loPI   C4A 3882   1.113  15.612   8.124 -0.1246 -0.1665  0.4322
  243loPI   C5A 3883   0.915  15.320   7.878 -0.0819  0.1020  0.2939
  243loPI   C6A 3884   0.992  14.903   7.739 -0.1400 -0.1532 -0.1019
  243loPI   C1B 3885   1.494  16.107   9.366 -0.0516 -0.2511 -0.2310
  243loPI   C2B 3886   1.383  16.122   8.939 -0.1067  0.4536 -0.2212
  243loPI   C3B 3887   1.098  16.172   8.510  0.0373 -0.0330 -0.0340
  243loPI   C4B 3888   0.998  16.121   8.168 -0.0497 -0.2529 -0.1961
  244loPI    C1 3889   8.469  15.351  10.908 -0.6470 -0.1561  0.0426
  244loPI    C2 3890   8.530  14.956  10.899 -0.2040 -0.0913 -0.0076
  244loPI    C3 3891   8.465  15.141  11.248 -0.2429 -0.1843  0.0346
  244loPI   PO4 3892   8.545  15.266  10.504  0.0460  0.1202 -0.0940
  244loPI   GL1 3893   8.942  15.383  10.347  0.3221 -0.3122 -0.1172
  244loPI   GL2 3894   9.149  15.578  10.294 -0.0193  0.1377 -0.0999
  244loPI   C1A 3895   8.800  15.264   9.938  0.1001 -0.1817  0.0447
  244loPI   C2A 3896   8.885  15.249   9.585  0.0597  0.0577  0.4313
  244loPI   C3A 3897   9.147  15.346   9.198 -0.1668 -0.1227  0.0016
  244loPI   C4A 3898   9.070  15.057   8.828 -0.1553  0.0642 -0.2420
  244loPI   C5A 3899   9.111  15.082   8.436  0.0187 -0.1297 -0.2257
  244loPI   C6A 3900   8.942  15.576   8.282 -0.1853  0.1676 -0.1830
  244loPI   C1B 3901   9.213  15.504   9.934  0.0274 -0.0803  0.0536
  244loPI   C2B 3902   9.434  15.487   9.592  0.1173  0.0277  0.3400
  244loPI   C3B 3903   9.653  15.279   9.288  0.2340 -0.2065  0.0656
  244loPI   C4B 3904   9.755  15.013   9.113 -0.1706 -0.0101  0.0099
  245loPI    C1 3905   1.659   2.434  10.388 -0.1352 -0.0744 -0.0397
  245loPI    C2 3906   1.918   2.195  10.577  0.1124  0.1406 -0.1006
  245loPI    C3 3907   1.535   2.205  10.692  0.1052 -0.2567 -0.0756
  245loPI   PO4 3908   1.775   2.438  10.153 -0.0371  0.1605 -0.3517
  245loPI   GL1 3909   1.556   2.421   9.871 -0.2810  0.1191 -0.0191
  245loPI   GL2 3910   1.667   2.749   9.754 -0.2193  0.1696 -0.0852
  245loPI   C1A 3911   1.782   2.245   9.512  0.1303  0.2671  0.0499
  245loPI   C2A 3912   1.978   2.000   9.219 -0.1595  0.0134  0.0843
  245loPI   C3A 3913   2.034   2.044   8.843  0.0488  0.1024  0.3089
  245loPI   C4A 3914   2.032   2.197   8.409  0.0299 -0.3309 -0.1316
  245loPI   C5A 3915   2.162   2.114   8.011 -0.0375 -0.3118 -0.3149
  245loPI   C6A 3916   2.105   2.301   7.700  0.1328 -0.2669  0.1648
  245loPI   C1B 3917   1.437   2.657   9.422 -0.0620  0.0341 -0.0874
  245loPI   C2B 3918   1.312   2.525   8.994 -0.1683  0.0224  0.0342
  245loPI   C3B 3919   1.206   2.724   8.716 -0.1603 -0.0218  0.0149
  245loPI   C4B 3920   1.280   2.859   8.267 -0.3631  0.3850  0.1361
  246loPI    C1 3921   1.904   1.432  10.265 -0.3503 -0.1501  0.1805
  246loPI    C2 3922   2.095   1.695  10.498 -0.0624 -0.0619 -0.1464
  246loPI    C3 3923   2.023   1.325  10.632  0.1707 -0.0383  0.0531
  246loPI   PO4 3924   1.985   1.485  10.048  0.0323 -0.0905 -0.0373
  246loPI   GL1 3925   2.106   1.716   9.702 -0.0037  0.2166 -0.0595
  246loPI   GL2 3926   2.419   1.430   9.668  0.1828 -0.0582 -0.0192
  246loPI   C1A 3927   2.496   1.779   9.238  0.3478  0.0280 -0.4073
  246loPI   C2A 3928   2.805   1.813   8.892  0.1105  0.0913  0.2472
  246loPI   C3A 3929   2.841   1.895   8.480  0.2795  0.0357 -0.0899
  246loPI   C4A 3930   3.137   2.069   8.206 -0.3027  0.1036 -0.1430
  246loPI   C5A 3931   3.428   2.313   8.158  0.0983 -0.3273  0.4231
  246loPI   C6A 3932   3.541   2.684   8.142 -0.0512  0.3423 -0.2740
  246loPI   C1B 3933   2.140   1.413   9.265 -0.1977 -0.1900 -0.3706
  246loPI   C2B 3934   2.229   1.470   8.925 -0.0693 -0.0838  0.0964
  246loPI   C3B 3935   2.315   1.767   8.493 -0.0760 -0.0754  0.2241
  246loPI   C4B 3936   2.476   1.747   8.086  0.0094  0.1549  0.1477
  247loPI    C1 3937  11.373   1.238  10.758  0.1570 -0.1523  0.1537
  247loPI    C2 3938  11.440   1.399  11.119  0.0592  0.0813  0.0696
  247loPI    C3 3939  11.065   1.329  10.997  0.0982 -0.1453  0.0756
  247loPI   PO4 3940  11.481   1.406  10.560 -0.0610 -0.2283  0.1232
  247loPI   GL1 3941  11.330   1.360  10.144 -0.0443 -0.3649 -0.3274
  247loPI   GL2 3942  11.586   1.159  10.154 -0.1327  0.0782 -0.1657
  247loPI   C1A 3943  11.493   1.407   9.748  0.0291 -0.0582 -0.0640
  247loPI   C2A 3944  11.468   1.255   9.326  0.0392 -0.1628 -0.1892
  247loPI   C3A 3945  11.311   1.302   8.877  0.0265 -0.5126  0.1014
  247loPI   C4A 3946  11.286   1.101   8.394 -0.1009 -0.2738 -0.0848
  247loPI   C5A 3947  11.243   0.681   8.265 -0.1681 -0.0192  0.2330
  247loPI   C6A 3948  11.507   0.381   8.073  0.1841 -0.1607  0.0407
  247loPI   C1B 3949  11.891   1.019   9.848 -0.0660  0.1230  0.0221
  247loPI   C2B 3950  11.823   0.905   9.499 -0.0802 -0.0299 -0.0797
  247loPI   C3B 3951  11.891   0.912   9.055  0.1729 -0.2711 -0.0258
  247loPI   C4B 3952  11.538   0.871   8.748 -0.0249 -0.0154  0.0152
  248loPI    C1 3953   9.101   4.878  10.409  0.1024  0.0601  0.0875
  248loPI    C2 3954   9.296   4.673  10.127  0.1621 -0.0178  0.1845
  248loPI    C3 3955   9.465   4.732  10.484  0.0870  0.0807  0.2042
  248loPI   PO4 3956   8.946   5.060  10.227  0.3225  0.0352 -0.2314
  248loPI   GL1 3957   9.032   4.991   9.846  0.1830 -0.2027 -0.0892
  248loPI   GL2 3958   9.233   4.789   9.620  0.0534 -0.0119 -0.1076
  248loPI   C1A 3959   9.378   5.247   9.648 -0.2192 -0.0437  0.0665
  248loPI   C2A 3960   9.219   5.483   9.569  0.2440 -0.3145  0.0940
  248loPI   C3A 3961   9.252   5.508   9.142 -0.0672 -0.0073  0.2194
  248loPI   C4A 3962   9.125   5.420   8.679 -0.0689  0.0036 -0.3046
  248loPI   C5A 3963   9.111   5.392   8.280 -0.1807 -0.0967 -0.3065
  248loPI   C6A 3964   9.195   5.216   7.867 -0.2655  0.5427  0.1877
  248loPI   C1B 3965   9.345   5.003   9.160  0.3634 -0.1077  0.0459
  248loPI   C2B 3966   9.224   4.933   8.684  0.0073  0.0037 -0.3236
  248loPI   C3B 3967   9.248   4.905   8.265  0.1645  0.1091 -0.3483
  248loPI   C4B 3968   8.934   4.792   8.069  0.0893  0.1695 -0.0962
  249loPI    C1 3969   6.904  10.294  10.746  0.1105  0.2667 -0.2248
  249loPI    C2 3970   6.509  10.249  10.706  0.1537 -0.0958 -0.2710
  249loPI    C3 3971   6.671  10.269  11.071  0.0685  0.3153 -0.2511
  249loPI   PO4 3972   6.996  10.172  10.525 -0.0056  0.0819  0.2156
  249loPI   GL1 3973   7.009  10.200  10.120 -0.0260  0.0304  0.0231
  249loPI   GL2 3974   7.176  10.203   9.849  0.0111  0.5565  0.2872
  249loPI   C1A 3975   6.811  10.489   9.732  0.2437  0.3566  0.0144
  249loPI   C2A 3976   6.856  10.665   9.370 -0.2404  0.0168 -0.0623
  249loPI   C3A 3977   7.010  11.048   9.077 -0.0799  0.2980  0.0383
  249loPI   C4A 3978   7.046  11.193   8.586  0.0867 -0.2232 -0.0144
  249loPI   C5A 3979   7.211  11.497   8.340 -0.1378 -0.1192  0.0195
  249loPI   C6A 3980   7.427  11.797   8.221  0.0605  0.2015  0.3336
  249loPI   C1B 3981   7.063  10.169   9.397 -0.0640 -0.0584 -0.4605
  249loPI   C2B 3982   7.185  10.187   9.043 -0.1576  0.1342 -0.4349
  249loPI   C3B 3983   7.148   9.989   8.613 -0.4111  0.0148 -0.3510
  249loPI   C4B 3984   7.271   9.822   8.213 -0.0722  0.0742 -0.4815
  250loPI    C1 3985   1.703  14.239   9.983 -0.0370  0.1081  0.0458
  250loPI    C2 3986   1.703  13.895  10.188 -0.1674  0.0950  0.0247
  250loPI    C3 3987   2.043  14.101  10.143 -0.0596 -0.1047 -0.0859
  250loPI   PO4 3988   1.598  14.106   9.740 -0.4069  0.0175  0.0830
  250loPI   GL1 3989   1.341  13.851   9.607 -0.0697 -0.1463  0.0693
  250loPI   GL2 3990   1.106  13.680   9.691  0.0043 -0.0385  0.1193
  250loPI   C1A 3991   1.703  13.716   9.303  0.1965 -0.3144  0.4070
  250loPI   C2A 3992   2.097  13.736   9.155 -0.3321  0.0822 -0.0421
  250loPI   C3A 3993   2.479  14.031   9.158 -0.2840  0.2002 -0.2952
  250loPI   C4A 3994   2.595  14.428   9.098  0.1017 -0.1724  0.2381
  250loPI   C5A 3995   2.467  14.526   8.660 -0.1229 -0.0239 -0.0180
  250loPI   C6A 3996   2.510  14.659   8.180 -0.0523  0.1806  0.2382
  250loPI   C1B 3997   1.165  13.646   9.171 -0.3394 -0.1835 -0.2947
  250loPI   C2B 3998   1.363  13.621   8.771  0.0061  0.2573  0.0346
  250loPI   C3B 3999   1.576  13.520   8.429  0.0342 -0.1715 -0.0747
  250loPI   C4B 4000   1.452  13.516   8.012  0.2245  0.1801 -0.0512
  251loPI    C1 4001   2.206  17.681  10.269  0.0143  0.1220  0.3082
  251loPI    C2 4002   2.464  17.413  10.122 -0.1662  0.1199 -0.0130
  251loPI    C3 4003   2.144  17.290  10.327 -0.2459  0.0871 -0.1552
  251loPI   PO4 4004   2.115  17.801   9.972  0.0693  0.1519 -0.0257
  251loPI   GL1 4005   1.984  17.766   9.605 -0.0034 -0.0373 -0.0619
  251loPI   GL2 4006   1.890  18.150   9.651 -0.1670 -0.0260 -0.0282
  251loPI   C1A 4007   1.838  17.493   9.213  0.0335  0.1022  0.1283
  251loPI   C2A 4008   1.684  17.244   8.846  0.0464 -0.3385 -0.0438
  251loPI   C3A 4009   1.768  16.979   8.480  0.0270  0.0543  0.0092
  251loPI   C4A 4010   2.017  17.006   8.159 -0.1266 -0.0233 -0.0758
  251loPI   C5A 4011   2.014  17.103   7.711  0.4459  0.0062  0.0619
  251loPI   C6A 4012   2.017  16.751   7.407 -0.2199  0.1892 -0.1226
  251loPI   C1B 4013   1.956  18.018   9.194 -0.0362  0.1289  0.2816
  251loPI   C2B 4014   2.083  17.890   8.725  0.2781  0.0861 -0.3041
  251loPI   C3B 4015   2.103  17.998   8.279 -0.2309 -0.3910  0.2241
  251loPI   C4B 4016   2.147  18.325   7.972  0.2584  0.0765 -0.0719
  252loPI    C1 4017   4.573  14.042  10.182  0.0170  0.0468  0.1485
  252loPI    C2 4018   4.565  13.642  10.193  0.1316  0.0381 -0.0437
  252loPI    C3 4019   4.705  13.848  10.506  0.4072 -0.0857 -0.0821
  252loPI   PO4 4020   4.412  14.042   9.972  0.0663  0.0977 -0.1672
  252loPI   GL1 4021   4.340  14.099   9.533 -0.1080 -0.0957 -0.2651
  252loPI   GL2 4022   4.433  14.362   9.465 -0.2863 -0.1336  0.0306
  252loPI   C1A 4023   4.246  13.657   9.310  0.2435  0.0411  0.1517
  252loPI   C2A 4024   4.333  13.717   8.834  0.0871  0.2473  0.0527
  252loPI   C3A 4025   4.680  13.546   8.585 -0.1401  0.0586 -0.0548
  252loPI   C4A 4026   4.672  13.151   8.384  0.1907 -0.1724  0.2295
  252loPI   C5A 4027   4.441  12.982   8.070  0.1577 -0.3101  0.2813
  252loPI   C6A 4028   4.661  12.740   7.794 -0.1546 -0.0406 -0.1152
  252loPI   C1B 4029   4.423  14.317   8.972 -0.1233 -0.2731 -0.1199
  252loPI   C2B 4030   4.519  14.165   8.573  0.0131  0.0940  0.2782
  252loPI   C3B 4031   4.508  13.995   8.244  0.0755  0.1306 -0.4212
  252loPI   C4B 4032   4.687  13.890   8.047  0.1355  0.0909  0.0525
  253loPI    C1 4033  12.131   4.700  10.125 -0.1033  0.1180  0.0533
  253loPI    C2 4034  11.758   4.841  10.096 -0.1055  0.0925 -0.0439
  253loPI    C3 4035  12.006   4.987  10.374 -0.1832  0.1194  0.0116
  253loPI   PO4 4036  12.181   4.606   9.862  0.2143 -0.5822  0.1610
  253loPI   GL1 4037  12.293   4.814   9.609  0.2572 -0.0609 -0.0632
  253loPI   GL2 4038  12.606   4.712   9.407 -0.0474  0.0717  0.0790
  253loPI   C1A 4039  12.108   4.822   9.249  0.0250 -0.1931  0.1831
  253loPI   C2A 4040  12.107   4.635   8.861  0.0334  0.0601 -0.0826
  253loPI   C3A 4041  12.001   4.521   8.404  0.1294 -0.1743 -0.0559
  253loPI   C4A 4042  12.072   4.390   7.987 -0.1066  0.1510  0.0526
  253loPI   C5A 4043  12.120   3.995   7.670 -0.0293  0.0073  0.0126
  253loPI   C6A 4044  12.077   3.523   7.665  0.0910 -0.1988 -0.0744
  253loPI   C1B 4045  12.680   4.431   9.181  0.1872 -0.0590 -0.0975
  253loPI   C2B 4046  12.568   4.451   8.786 -0.0149  0.1883  0.2059
  253loPI   C3B 4047  12.652   4.545   8.268 -0.1463 -0.0993  0.1384
  253loPI   C4B 4048  12.827   4.545   7.924  0.1659 -0.0878  0.0608
  254loPI    C1 4049   8.641   3.760  10.519  0.0865  0.1736 -0.0080
  254loPI    C2 4050   8.974   3.956  10.623  0.1099  0.0731  0.1091
  254loPI    C3 4051   8.843   3.651  10.847 -0.0219  0.0665  0.0240
  254loPI   PO4 4052   8.682   3.738  10.289  0.0230  0.0115  0.0993
  254loPI   GL1 4053   8.889   3.850   9.982  0.0509  0.0912  0.0818
  254loPI   GL2 4054   9.151   3.860  10.127 -0.1127  0.3895  0.3353
  254loPI   C1A 4055   8.853   3.890   9.570  0.1136  0.0831  0.1461
  254loPI   C2A 4056   8.978   3.956   9.102 -0.2695 -0.0451 -0.4429
  254loPI   C3A 4057   8.904   3.788   8.776  0.2195 -0.0667  0.1336
  254loPI   C4A 4058   8.623   3.680   8.517 -0.2858 -0.2708 -0.0678
  254loPI   C5A 4059   8.515   3.561   8.181  0.3129 -0.2381  0.2863
  254loPI   C6A 4060   8.510   3.509   7.765  0.0069 -0.0402  0.0942
  254loPI   C1B 4061   9.292   3.610   9.824 -0.1098 -0.0030 -0.0988
  254loPI   C2B 4062   9.267   3.608   9.323  0.0482  0.1453 -0.1295
  254loPI   C3B 4063   9.296   3.578   8.870 -0.0854  0.2178 -0.0382
  254loPI   C4B 4064   9.155   3.516   8.317  0.0583  0.2214  0.3402
  255loPI    C1 4065  16.565   5.847  10.016 -0.1657  0.1983 -0.2717
  255loPI    C2 4066  16.941   5.954   9.932 -0.0957  0.0316 -0.1742
  255loPI    C3 4067  16.813   5.954  10.311 -0.1256 -0.1274 -0.1836
  255loPI   PO4 4068  16.420   5.921   9.807  0.0968 -0.0538 -0.4242
  255loPI   GL1 4069  16.095   5.860   9.510 -0.1195  0.0157  0.1648
  255loPI   GL2 4070  15.841   5.833   9.846  0.2167  0.1897  0.0273
  255loPI   C1A 4071  15.933   5.651   9.071 -0.2494 -0.0093 -0.3364
  255loPI   C2A 4072  15.826   5.648   8.688  0.1666  0.0029  0.3379
  255loPI   C3A 4073  15.923   5.881   8.273 -0.0736  0.1406  0.2333
  255loPI   C4A 4074  15.952   5.957   7.892  0.3220  0.0020  0.1461
  255loPI   C5A 4075  15.534   5.963   7.590 -0.2022 -0.0084 -0.2248
  255loPI   C6A 4076  15.086   5.941   7.608  0.0300 -0.1264 -0.1492
  255loPI   C1B 4077  15.579   5.904   9.492 -0.1110  0.0225  0.1815
  255loPI   C2B 4078  15.531   5.881   9.000  0.1041  0.3409 -0.1831
  255loPI   C3B 4079  15.515   6.100   8.593  0.1775 -0.0936  0.0407
  255loPI   C4B 4080  15.451   6.117   8.124  0.1923  0.1806 -0.0513
  256loPI    C1 4081  10.135   2.906  10.880  0.0685  0.0561 -0.0583
  256loPI    C2 4082  10.291   3.246  11.022  0.1560  0.0111 -0.0458
  256loPI    C3 4083  10.033   3.035  11.244  0.1310  0.0495 -0.0384
  256loPI   PO4 4084  10.064   2.992  10.574  0.0452  0.1935 -0.2401
  256loPI   GL1 4085   9.596   2.908  10.232 -0.1480 -0.1700 -0.0154
  256loPI   GL2 4086   9.575   3.194  10.131 -0.0353 -0.2317  0.0013
  256loPI   C1A 4087   9.682   2.850   9.729 -0.1006 -0.1801  0.0095
  256loPI   C2A 4088   9.343   2.589   9.318 -0.0371 -0.2020  0.0697
  256loPI   C3A 4089   9.339   2.563   8.909 -0.3326  0.0068  0.0550
  256loPI   C4A 4090   9.540   2.485   8.563 -0.1280 -0.1173 -0.0221
  256loPI   C5A 4091  10.091   2.458   8.402 -0.1019 -0.0397  0.1782
  256loPI   C6A 4092  10.320   2.124   8.203 -0.2560 -0.0494 -0.0695
  256loPI   C1B 4093   9.683   3.345   9.696  0.0507 -0.1228  0.0449
  256loPI   C2B 4094   9.772   3.483   9.310  0.4679 -0.0254 -0.1406
  256loPI   C3B 4095  10.039   3.713   9.025 -0.0243 -0.0630 -0.0146
  256loPI   C4B 4096   9.966   3.870   8.549  0.1266  0.1474 -0.0863
  257loPI    C1 4097  17.025  16.259  10.673 -0.0923 -0.0539 -0.1011
  257loPI    C2 4098  16.707  16.275  10.431 -0.0767  0.3613 -0.1022
  257loPI    C3 4099  16.664  16.344  10.823 -0.0140  0.2383 -0.0728
  257loPI   PO4 4100  17.161  16.064  10.452 -0.1299  0.0794 -0.0927
  257loPI   GL1 4101  16.945  16.068  10.045  0.0022 -0.0303  0.3047
  257loPI   GL2 4102  16.824  16.327   9.909  0.0026 -0.3428  0.0874
  257loPI   C1A 4103  17.214  15.896   9.675  0.0181 -0.0684 -0.0763
  257loPI   C2A 4104  17.192  15.905   9.300  0.0439 -0.1055  0.0337
  257loPI   C3A 4105  17.179  16.085   8.875 -0.1491  0.0005  0.3727
  257loPI   C4A 4106  17.007  16.031   8.423  0.2682  0.0152 -0.0765
  257loPI   C5A 4107  16.716  16.020   7.989 -0.2052 -0.2055  0.1045
  257loPI   C6A 4108  16.654  16.302   7.611 -0.2048  0.0774  0.1800
  257loPI   C1B 4109  16.682  16.519   9.597 -0.1950 -0.0831  0.0489
  257loPI   C2B 4110  16.510  16.606   9.129  0.3346  0.1527 -0.2963
  257loPI   C3B 4111  16.265  16.465   8.768 -0.2247  0.0644  0.0933
  257loPI   C4B 4112  16.032  16.227   8.499  0.1264  0.2584  0.2076
  258loPI    C1 4113   7.237   8.546  10.332  0.3370  0.0638  0.0942
  258loPI    C2 4114   7.190   8.943  10.328 -0.0523  0.0221  0.1091
  258loPI    C3 4115   7.077   8.732  10.649 -0.1840 -0.1365 -0.0397
  258loPI   PO4 4116   7.041   8.520  10.069  0.1421 -0.0845  0.0096
  258loPI   GL1 4117   6.890   8.721   9.725  0.3176  0.0503  0.0282
  258loPI   GL2 4118   6.613   8.608   9.648  0.0196  0.4598 -0.1315
  258loPI   C1A 4119   7.054   8.600   9.249  0.3119  0.3116 -0.0309
  258loPI   C2A 4120   7.082   8.462   8.790  0.0110  0.0684  0.1141
  258loPI   C3A 4121   7.224   8.614   8.404 -0.0099  0.1181  0.1417
  258loPI   C4A 4122   7.273   8.738   7.948 -0.1740  0.1195 -0.2515
  258loPI   C5A 4123   7.438   8.783   7.615  0.3798  0.0642 -0.0147
  258loPI   C6A 4124   7.477   8.799   7.158 -0.0241  0.0072 -0.1007
  258loPI   C1B 4125   6.590   8.451   9.207 -0.0505  0.1840  0.1348
  258loPI   C2B 4126   6.544   8.389   8.827  0.0765 -0.0977  0.4152
  258loPI   C3B 4127   6.750   8.425   8.357  0.1051  0.1043  0.1373
  258loPI   C4B 4128   6.616   8.511   7.898  0.0023  0.0304  0.0237
  259loPI    C1 4129   7.624  10.302  10.473  0.1039 -0.0946  0.2267
  259loPI    C2 4130   7.751  10.419  10.834  0.0148 -0.0723  0.2510
  259loPI    C3 4131   7.404  10.224  10.798  0.0214 -0.0707  0.1767
  259loPI   PO4 4132   7.603  10.459  10.343 -0.3584  0.0258  0.0328
  259loPI   GL1 4133   7.672  10.517   9.857 -0.0175  0.0387 -0.2997
  259loPI   GL2 4134   7.664  10.234   9.889 -0.1756  0.3164  0.1234
  259loPI   C1A 4135   8.062  10.707   9.596  0.1652  0.0739  0.2321
  259loPI   C2A 4136   8.227  10.770   9.209  0.3680  0.4163 -0.4117
  259loPI   C3A 4137   8.377  10.719   8.860  0.1049 -0.2889 -0.1506
  259loPI   C4A 4138   8.409  10.659   8.344 -0.0612 -0.0910 -0.0884
  259loPI   C5A 4139   8.602  10.524   7.886  0.1723  0.2527 -0.1999
  259loPI   C6A 4140   8.962  10.304   7.759  0.2674  0.1789  0.2163
  259loPI   C1B 4141   7.572  10.270   9.426  0.0937  0.2410  0.1828
  259loPI   C2B 4142   7.851  10.436   9.159 -0.0850 -0.1317 -0.2405
  259loPI   C3B 4143   7.811  10.742   8.904 -0.0485  0.1443 -0.1858
  259loPI   C4B 4144   8.016  11.101   8.758  0.1901 -0.0445 -0.4751
  260loPI    C1 4145  16.729  17.366  10.456 -0.1174  0.0991  0.0505
  260loPI    C2 4146  16.570  17.634  10.707  0.1359  0.0628  0.2542
  260loPI    C3 4147  16.947  17.513  10.757  0.1113 -0.1284 -0.0015
  260loPI   PO4 4148  16.680  17.400  10.198  0.2617 -0.2619 -0.2617
  260loPI   GL1 4149  16.832  17.331   9.817  0.0966 -0.0724 -0.0708
  260loPI   GL2 4150  16.999  17.648   9.830 -0.0633  0.1894  0.0529
  260loPI   C1A 4151  16.591  17.403   9.396 -0.0164 -0.1289  0.1223
  260loPI   C2A 4152  16.475  17.425   8.916 -0.2137  0.0947 -0.1670
  260loPI   C3A 4153  16.482  17.509   8.499  0.1338  0.3325 -0.2729
  260loPI   C4A 4154  16.256  17.242   8.135  0.1727  0.0423 -0.0282
  260loPI   C5A 4155  16.290  17.089   7.784 -0.2947  0.0590 -0.1917
  260loPI   C6A 4156  16.524  16.757   7.769  0.3707  0.2207  0.2997
  260loPI   C1B 4157  17.143  17.497   9.406  0.0424  0.2612  0.0508
  260loPI   C2B 4158  17.025  17.495   8.984  0.0536  0.1851  0.1087
  260loPI   C3B 4159  17.205  17.737   8.648  0.3317  0.0483  0.0953
  260loPI   C4B 4160  17.495  17.804   8.217 -0.2781 -0.0464 -0.3139
  261loPI    C1 4161   8.968  12.585  11.008 -0.2202  0.1118 -0.1729
  261loPI    C2 4162   8.624  12.785  11.042 -0.3224 -0.1076  0.1340
  261loPI    C3 4163   8.829  12.685  11.370 -0.0242 -0.0818 -0.0416
  261loPI   PO4 4164   8.871  12.520  10.730 -0.2235  0.2162  0.0877
  261loPI   GL1 4165   8.993  12.594  10.321  0.0275  0.3203 -0.2469
  261loPI   GL2 4166   9.245  12.420  10.261 -0.0954 -0.1557  0.2460
  261loPI   C1A 4167   8.905  12.732   9.944 -0.4314  0.0286 -0.2560
  261loPI   C2A 4168   8.999  12.595   9.497  0.2157  0.1648 -0.0136
  261loPI   C3A 4169   9.141  12.610   9.107  0.1649  0.1169  0.1613
  261loPI   C4A 4170   9.010  12.732   8.686  0.0551  0.0626 -0.3129
  261loPI   C5A 4171   8.886  13.067   8.308 -0.0789  0.1914 -0.0739
  261loPI   C6A 4172   8.483  13.183   8.082  0.0083 -0.0426  0.0567
  261loPI   C1B 4173   9.182  12.150   9.973  0.0336  0.1816 -0.2461
  261loPI   C2B 4174   9.160  12.011   9.570  0.0822 -0.1367  0.2754
  261loPI   C3B 4175   8.985  12.153   9.162  0.1066  0.2522  0.2858
  261loPI   C4B 4176   8.894  12.245   8.694 -0.0187  0.4681  0.1362
  262loPI    C1 4177  11.230  14.639  10.938  0.0137  0.0243  0.0383
  262loPI    C2 4178  10.882  14.546  11.113 -0.0057  0.1468  0.0654
  262loPI    C3 4179  11.201  14.640  11.337 -0.0316  0.3068  0.0363
  262loPI   PO4 4180  11.242  14.444  10.802 -0.1399 -0.3857  0.0215
  262loPI   GL1 4181  11.161  14.523  10.343 -0.1718  0.2956 -0.1744
  262loPI   GL2 4182  11.508  14.532  10.246  0.0043 -0.0607 -0.0437
  262loPI   C1A 4183  11.030  14.151  10.082 -0.1385  0.1878 -0.1480
  262loPI   C2A 4184  11.005  13.921   9.725  0.3815  0.2595 -0.3103
  262loPI   C3A 4185  10.797  13.929   9.327 -0.5365 -0.0069  0.1319
  262loPI   C4A 4186  10.762  13.933   8.805 -0.1661 -0.2264  0.2432
  262loPI   C5A 4187  10.838  14.223   8.570 -0.1674  0.1000  0.0118
  262loPI   C6A 4188  10.782  14.452   8.328 -0.2032  0.0877  0.1137
  262loPI   C1B 4189  11.525  14.555   9.842 -0.0828 -0.1932  0.2050
  262loPI   C2B 4190  11.607  14.563   9.422 -0.0840 -0.5448  0.0172
  262loPI   C3B 4191  11.474  14.602   8.926 -0.1846 -0.1240 -0.2609
  262loPI   C4B 4192  11.598  14.647   8.463 -0.1015 -0.2458  0.1484
  263loPI    C1 4193  18.263   0.044  10.308 -0.0381 -0.0120  0.0182
  263loPI    C2 4194  18.047   0.106  10.639  0.0170  0.3755 -0.0139
  263loPI    C3 4195  18.442   0.050  10.666 -0.0347  0.0032  0.0163
  263loPI   PO4 4196  18.013  -0.115  10.145 -0.1247  0.1970  0.0766
  263loPI   GL1 4197  18.090  -0.377   9.805  0.0735  0.5671  0.0049
  263loPI   GL2 4198  17.728  -0.351   9.810  0.0551  0.2457  0.1775
  263loPI   C1A 4199  18.240  -0.050   9.498  0.1831 -0.0529  0.0089
  263loPI   C2A 4200  18.348   0.061   9.155  0.0668 -0.2017  0.3635
  263loPI   C3A 4201  18.429   0.261   8.762 -0.2492  0.0020  0.0368
  263loPI   C4A 4202  18.393   0.124   8.345 -0.1650  0.0296 -0.2942
  263loPI   C5A 4203  18.355  -0.053   8.004  0.1470  0.0614  0.2979
  263loPI   C6A 4204  18.061   0.142   7.656  0.0698 -0.2691  0.1672
  263loPI   C1B 4205  17.336  -0.432   9.511 -0.2072  0.0141  0.0602
  263loPI   C2B 4206  17.340  -0.577   9.102  0.0221  0.0398  0.1544
  263loPI   C3B 4207  17.565  -0.911   8.870 -0.0663 -0.0486 -0.0491
  263loPI   C4B 4208  17.507  -1.041   8.444 -0.1087  0.2179  0.2043
  264loPI    C1 4209  16.731   5.084  10.043 -0.1753 -0.1660  0.0804
  264loPI    C2 4210  16.795   5.449  10.194  0.0464 -0.1290 -0.0957
  264loPI    C3 4211  17.013   5.139  10.321 -0.2629 -0.2384  0.1841
  264loPI   PO4 4212  16.468   5.063   9.969 -0.2234 -0.2576  0.2176
  264loPI   GL1 4213  16.201   5.130   9.598 -0.0830 -0.2028  0.0152
  264loPI   GL2 4214  16.326   5.403   9.506 -0.0570 -0.0647  0.1108
  264loPI   C1A 4215  16.153   4.814   9.318 -0.0481  0.2727 -0.1845
  264loPI   C2A 4216  16.190   4.818   8.841 -0.2984 -0.1378  0.0436
  264loPI   C3A 4217  16.400   4.820   8.480  0.2645  0.0489 -0.0393
  264loPI   C4A 4218  16.442   4.607   8.132  0.4579 -0.0743 -0.0586
  264loPI   C5A 4219  16.575   4.297   7.893  0.0418  0.4108  0.0913
  264loPI   C6A 4220  16.632   3.889   7.817  0.0248  0.1503 -0.1180
  264loPI   C1B 4221  16.343   5.332   8.948  0.0828 -0.2446  0.0900
  264loPI   C2B 4222  16.476   5.312   8.537 -0.1197 -0.1544 -0.2698
  264loPI   C3B 4223  16.600   5.375   8.120  0.0212 -0.1461 -0.1301
  264loPI   C4B 4224  16.825   5.453   7.802  0.0094 -0.2427 -0.2322
  265loPI    C1 4225   4.391  12.190  10.383  0.0410 -0.2006 -0.0719
  265loPI    C2 4226   4.048  12.393  10.414  0.1327 -0.0806  0.1891
  265loPI    C3 4227   4.397  12.584  10.453  0.2310 -0.2030 -0.0702
  265loPI   PO4 4228   4.405  12.062  10.206  0.0175  0.0569  0.1356
  265loPI   GL1 4229   4.201  12.450   9.931  0.0334 -0.2116 -0.2549
  265loPI   GL2 4230   4.378  12.256   9.720  0.1266 -0.3039 -0.1415
  265loPI   C1A 4231   3.976  12.534   9.580 -0.2213  0.1770  0.0504
  265loPI   C2A 4232   4.032  12.692   9.167  0.0267  0.0360  0.0772
  265loPI   C3A 4233   4.109  12.697   8.693 -0.3172  0.0465 -0.4427
  265loPI   C4A 4234   3.884  12.639   8.287 -0.1575 -0.1696  0.1018
  265loPI   C5A 4235   3.959  12.693   7.885 -0.0244  0.2130  0.1601
  265loPI   C6A 4236   4.066  12.379   7.433 -0.5531 -0.3127 -0.1158
  265loPI   C1B 4237   4.333  12.246   9.360  0.2087 -0.3006  0.0425
  265loPI   C2B 4238   4.377  12.367   8.896  0.2263 -0.0478  0.0977
  265loPI   C3B 4239   4.384  12.255   8.525  0.1667  0.1749 -0.3945
  265loPI   C4B 4240   4.350  12.485   8.168 -0.0726 -0.2901  0.2457
  266loPI    C1 4241  15.555  15.478  11.074  0.4193  0.0783  0.2018
  266loPI    C2 4242  15.562  15.876  11.114  0.2454  0.0811  0.2102
  266loPI    C3 4243  15.247  15.667  11.244  0.2444 -0.0387  0.0194
  266loPI   PO4 4244  15.719  15.483  10.809  0.0070  0.1706  0.2026
  266loPI   GL1 4245  15.477  15.376  10.418  0.0079 -0.0647 -0.3719
  266loPI   GL2 4246  15.592  15.636  10.322  0.1240 -0.0275 -0.1401
  266loPI   C1A 4247  15.425  15.249   9.966 -0.0853 -0.2532 -0.3373
  266loPI   C2A 4248  15.293  15.259   9.548  0.2845  0.1869  0.0212
  266loPI   C3A 4249  15.343  15.102   9.103  0.1358  0.0755 -0.1634
  266loPI   C4A 4250  15.221  14.856   8.807 -0.1432 -0.3563 -0.4889
  266loPI   C5A 4251  15.077  14.858   8.358 -0.0099  0.0627  0.0967
  266loPI   C6A 4252  14.733  14.833   8.223  0.0348 -0.2546  0.0488
  266loPI   C1B 4253  15.413  15.797   9.956  0.0066  0.2607  0.1531
  266loPI   C2B 4254  15.360  15.710   9.504 -0.0955 -0.0181  0.4210
  266loPI   C3B 4255  15.330  15.654   8.970 -0.0953 -0.1512 -0.1561
  266loPI   C4B 4256  15.328  15.788   8.598  0.1737  0.0492  0.0240
  267loPI    C1 4257  17.590  14.282  10.575  0.2321  0.2361  0.0716
  267loPI    C2 4258  17.454  14.337  10.947  0.0808 -0.1062  0.0704
  267loPI    C3 4259  17.790  14.129  10.886 -0.0257 -0.2602  0.0028
  267loPI   PO4 4260  17.394  14.210  10.436  0.1088  0.1743 -0.1862
  267loPI   GL1 4261  17.243  14.237  10.096  0.2717  0.3460  0.1659
  267loPI   GL2 4262  17.422  14.044   9.839 -0.3220 -0.0458 -0.2839
  267loPI   C1A 4263  16.963  14.252   9.681 -0.0510 -0.0191  0.1481
  267loPI   C2A 4264  16.831  14.413   9.354  0.1923 -0.0249 -0.1747
  267loPI   C3A 4265  16.788  14.510   8.969 -0.1615  0.1385 -0.0656
  267loPI   C4A 4266  16.579  14.730   8.646 -0.2262  0.1252 -0.3495
  267loPI   C5A 4267  16.468  14.845   8.193  0.3186 -0.0028 -0.0919
  267loPI   C6A 4268  16.650  15.099   7.917  0.1970  0.3187 -0.0381
  267loPI   C1B 4269  17.367  13.986   9.492  0.1130 -0.3199  0.0747
  267loPI   C2B 4270  17.121  14.036   9.131 -0.0409  0.0927 -0.2398
  267loPI   C3B 4271  17.127  14.198   8.736  0.2132 -0.1229 -0.1571
  267loPI   C4B 4272  16.982  14.490   8.410 -0.2694 -0.1348  0.0567
  268loPI    C1 4273  12.490  12.441  10.987 -0.0166  0.1077 -0.0082
  268loPI    C2 4274  12.275  12.686  11.218  0.2638  0.3905 -0.0408
  268loPI    C3 4275  12.609  12.520  11.360  0.1693  0.1650 -0.0787
  268loPI   PO4 4276  12.408  12.514  10.756  0.1012 -0.2222 -0.0047
  268loPI   GL1 4277  12.538  12.413  10.308  0.0636  0.0005 -0.1332
  268loPI   GL2 4278  12.189  12.393  10.288  0.2360  0.0371  0.3565
  268loPI   C1A 4279  12.462  12.348   9.838 -0.1269 -0.0747 -0.0351
  268loPI   C2A 4280  12.488  12.419   9.426  0.0320 -0.3330  0.0046
  268loPI   C3A 4281  12.415  12.448   8.973 -0.2736  0.2499  0.2500
  268loPI   C4A 4282  12.512  12.510   8.580 -0.0634  0.0130  0.1452
  268loPI   C5A 4283  12.278  12.797   8.275 -0.3315  0.2940  0.3012
  268loPI   C6A 4284  12.237  12.998   7.896  0.3829  0.2795 -0.2168
  268loPI   C1B 4285  11.953  12.439   9.931  0.0033 -0.1805  0.1656
  268loPI   C2B 4286  11.858  12.428   9.501  0.0465 -0.1485  0.0695
  268loPI   C3B 4287  11.854  12.514   9.068 -0.3603  0.1118 -0.1680
  268loPI   C4B 4288  11.831  12.666   8.704 -0.0211  0.2523  0.3911
  269loPI    C1 4289  16.377  11.557  10.682 -0.1080 -0.0261  0.0803
  269loPI    C2 4290  16.278  11.610  11.066  0.0178 -0.0371  0.1146
  269loPI    C3 4291  16.473  11.280  10.953 -0.2703 -0.1693 -0.0067
  269loPI   PO4 4292  16.144  11.613  10.567  0.4097 -0.0142 -0.0238
  269loPI   GL1 4293  15.869  11.663  10.059 -0.2560 -0.1552  0.1339
  269loPI   GL2 4294  16.150  11.705  10.116  0.0715  0.2559 -0.0726
  269loPI   C1A 4295  15.602  11.450   9.775 -0.1794  0.0895 -0.0132
  269loPI   C2A 4296  15.557  11.321   9.319 -0.0098 -0.0772 -0.3909
  269loPI   C3A 4297  15.418  11.237   8.909 -0.2814 -0.1506 -0.0864
  269loPI   C4A 4298  15.212  11.017   8.621 -0.1576  0.0798  0.0786
  269loPI   C5A 4299  14.988  10.841   8.285  0.3755 -0.3658 -0.1888
  269loPI   C6A 4300  14.877  10.395   8.273 -0.3545  0.2828 -0.1148
  269loPI   C1B 4301  16.085  11.642   9.635 -0.3053  0.0766  0.4734
  269loPI   C2B 4302  16.033  11.596   9.292  0.0567  0.2134  0.0295
  269loPI   C3B 4303  15.933  11.503   8.852  0.1472 -0.1268 -0.0004
  269loPI   C4B 4304  15.979  11.208   8.605 -0.0403 -0.0681 -0.0589
  270loPI    C1 4305   8.375  13.984  10.739  0.2211  0.2037  0.0799
  270loPI    C2 4306   8.701  13.857  10.545  0.2015 -0.0293  0.1958
  270loPI    C3 4307   8.571  13.659  10.867  0.0078  0.1265  0.2149
  270loPI   PO4 4308   8.314  14.158  10.506  0.3401 -0.0464  0.3697
  270loPI   GL1 4309   8.219  14.114  10.024  0.0950 -0.2380 -0.2654
  270loPI   GL2 4310   8.295  14.410  10.054  0.0420 -0.4692 -0.3672
  270loPI   C1A 4311   8.221  13.806   9.696 -0.0081  0.1167 -0.1124
  270loPI   C2A 4312   8.352  13.897   9.276 -0.0903  0.0082  0.0943
  270loPI   C3A 4313   8.372  13.916   8.918  0.0796  0.1037  0.2694
  270loPI   C4A 4314   8.415  13.771   8.481 -0.0965  0.3581  0.1151
  270loPI   C5A 4315   8.818  13.545   8.213  0.2505 -0.1563 -0.0222
  270loPI   C6A 4316   9.287  13.405   7.983  0.7355 -0.0955 -0.0063
  270loPI   C1B 4317   8.360  14.465   9.583 -0.1982  0.2845  0.3328
  270loPI   C2B 4318   8.628  14.251   9.307 -0.4393 -0.3144 -0.0111
  270loPI   C3B 4319   8.759  14.198   8.901  0.0021 -0.1156 -0.0036
  270loPI   C4B 4320   8.864  14.004   8.534 -0.0280  0.1004  0.0429
  271loPI    C1 4321   8.849  17.150  10.682  0.0227 -0.0512 -0.2325
  271loPI    C2 4322   8.527  17.378  10.744  0.0721 -0.0459  0.0157
  271loPI    C3 4323   8.484  16.986  10.677  0.0121 -0.0384  0.0092
  271loPI   PO4 4324   8.961  17.293  10.509 -0.0949  0.0719  0.1085
  271loPI   GL1 4325   8.991  17.419  10.132 -0.1826  0.0226 -0.0733
  271loPI   GL2 4326   9.173  17.690  10.083 -0.1386 -0.2781 -0.0461
  271loPI   C1A 4327   9.058  17.265   9.719 -0.0711  0.1358  0.3035
  271loPI   C2A 4328   8.851  17.116   9.295 -0.1048  0.0049 -0.3039
  271loPI   C3A 4329   8.966  17.082   8.940 -0.0824  0.0392 -0.0995
  271loPI   C4A 4330   9.136  16.950   8.597  0.1150 -0.1535 -0.2841
  271loPI   C5A 4331   8.985  16.926   8.248  0.1844 -0.0637  0.2032
  271loPI   C6A 4332   8.619  17.216   8.026 -0.0952 -0.0201  0.0718
  271loPI   C1B 4333   9.152  17.777   9.694  0.3510 -0.0066 -0.2709
  271loPI   C2B 4334   9.205  18.056   9.436  0.0408 -0.1562  0.1539
  271loPI   C3B 4335   9.173  18.099   9.002  0.2891 -0.0771 -0.0427
  271loPI   C4B 4336   9.363  18.134   8.668  0.2937  0.0361 -0.1293
  272loPI    C1 4337  14.520  17.783  10.381  0.0545 -0.0951  0.1983
  272loPI    C2 4338  14.215  18.039  10.419  0.0123 -0.1087 -0.0339
  272loPI    C3 4339  14.312  17.797  10.722  0.0144  0.1376  0.1656
  272loPI   PO4 4340  14.676  17.906  10.243  0.1599 -0.1939  0.1777
  272loPI   GL1 4341  14.396  18.157   9.946  0.2413 -0.1352  0.2459
  272loPI   GL2 4342  14.682  18.377   9.934  0.0911  0.0614  0.0840
  272loPI   C1A 4343  14.287  17.988   9.650 -0.1160 -0.0108  0.0426
  272loPI   C2A 4344  14.160  17.687   9.364  0.0728  0.2928  0.1191
  272loPI   C3A 4345  14.135  17.589   8.851  0.1647 -0.5610 -0.3105
  272loPI   C4A 4346  14.256  17.646   8.381 -0.2123  0.1593 -0.1709
  272loPI   C5A 4347  14.599  17.898   8.212 -0.0065  0.1218  0.0198
  272loPI   C6A 4348  15.006  17.950   8.071 -0.0923  0.1636 -0.1003
  272loPI   C1B 4349  14.941  18.446   9.533  0.2038  0.0218 -0.1432
  272loPI   C2B 4350  15.140  18.219   9.259  0.2583  0.0771 -0.0113
  272loPI   C3B 4351  15.043  18.029   8.961 -0.3364 -0.1729  0.0567
  272loPI   C4B 4352  14.938  18.182   8.614 -0.0461  0.1263  0.1837
  273loPI    C1 4353  14.005  11.652  10.938  0.2154  0.0254  0.1673
  273loPI    C2 4354  14.191  11.354  10.746  0.1751  0.0638  0.0681
  273loPI    C3 4355  14.247  11.405  11.139 -0.2720 -0.4383  0.2093
  273loPI   PO4 4356  13.894  11.766  10.633 -0.0606 -0.1183 -0.2717
  273loPI   GL1 4357  14.147  11.681  10.241  0.2005 -0.3601  0.1045
  273loPI   GL2 4358  14.443  11.652  10.323 -0.0495 -0.3261  0.3259
  273loPI   C1A 4359  14.227  11.629   9.766  0.1592 -0.1564  0.2880
  273loPI   C2A 4360  14.270  11.703   9.359 -0.0974 -0.2092  0.0313
  273loPI   C3A 4361  14.205  11.874   8.988 -0.0339  0.2235  0.2792
  273loPI   C4A 4362  14.139  12.201   8.624 -0.0172  0.0622  0.0143
  273loPI   C5A 4363  13.799  12.351   8.309 -0.3685 -0.0676 -0.1827
  273loPI   C6A 4364  13.485  12.183   8.224 -0.1820 -0.1358 -0.0265
  273loPI   C1B 4365  14.444  12.034   9.988  0.2725  0.2305  0.3271
  273loPI   C2B 4366  14.496  12.218   9.557 -0.1577 -0.0929  0.2929
  273loPI   C3B 4367  14.445  12.338   9.156  0.2053 -0.0879  0.0935
  273loPI   C4B 4368  14.499  12.566   8.779 -0.1148  0.1293 -0.2103
  274loPI    C1 4369   7.658   4.230  10.179 -0.0575  0.1220 -0.2345
  274loPI    C2 4370   7.343   4.454  10.283  0.0929  0.1728  0.1295
  274loPI    C3 4371   7.559   4.270  10.565  0.2183 -0.0981 -0.1373
  274loPI   PO4 4372   7.502   4.026   9.945  0.0834  0.1200 -0.0644
  274loPI   GL1 4373   7.410   3.714   9.641 -0.1697  0.2202  0.2565
  274loPI   GL2 4374   7.552   3.940   9.410  0.0695  0.2164  0.2716
  274loPI   C1A 4375   7.320   3.452   9.124  0.0237 -0.0140  0.1034
  274loPI   C2A 4376   6.975   3.344   8.913 -0.2883  0.0719  0.2095
  274loPI   C3A 4377   6.919   3.435   8.455  0.0695 -0.0018 -0.0280
  274loPI   C4A 4378   6.882   3.636   8.076  0.3507 -0.0375 -0.3309
  274loPI   C5A 4379   6.935   3.669   7.664 -0.0009 -0.0222  0.0335
  274loPI   C6A 4380   6.749   3.818   7.409 -0.2215  0.1820 -0.0570
  274loPI   C1B 4381   7.605   3.897   8.993 -0.4672 -0.3386 -0.5533
  274loPI   C2B 4382   7.572   3.907   8.520 -0.1472 -0.2505 -0.2443
  274loPI   C3B 4383   7.718   4.196   8.199 -0.0089 -0.1497  0.1856
  274loPI   C4B 4384   8.079   4.380   7.973 -0.0755  0.1634  0.1412
  275loPI    C1 4385  11.214   5.513  10.688  0.2144 -0.0185 -0.0652
  275loPI    C2 4386  11.023   5.825  10.850  0.3760  0.1065 -0.1117
  275loPI    C3 4387  11.252   5.589  11.079  0.0777 -0.1131 -0.0329
  275loPI   PO4 4388  11.350   5.515  10.437  0.1942  0.0380  0.1678
  275loPI   GL1 4389  11.371   5.730   9.939  0.0786 -0.0368  0.1697
  275loPI   GL2 4390  11.363   5.399   9.735 -0.0943 -0.1189  0.0347
  275loPI   C1A 4391  11.087   5.803   9.490 -0.4038  0.0696  0.2195
  275loPI   C2A 4392  11.104   5.857   9.004  0.1209  0.2301 -0.1845
  275loPI   C3A 4393  11.210   5.751   8.616  0.0934  0.0449  0.2420
  275loPI   C4A 4394  10.925   5.899   8.334 -0.2148 -0.0652  0.1665
  275loPI   C5A 4395  10.849   6.350   8.270  0.0759 -0.0742 -0.1787
  275loPI   C6A 4396  10.745   6.538   7.965 -0.0119 -0.2020 -0.1087
  275loPI   C1B 4397  11.169   5.301   9.221 -0.1796 -0.1129 -0.0230
  275loPI   C2B 4398  11.073   5.027   8.844 -0.2063  0.0754 -0.0673
  275loPI   C3B 4399  11.067   4.820   8.420  0.0581 -0.0834 -0.0392
  275loPI   C4B 4400  11.122   4.697   7.941  0.2495 -0.0636 -0.0882
  276loPI    C1 4401   7.975  14.814  10.646 -0.2856  0.0424  0.0134
  276loPI    C2 4402   8.010  14.451  10.812 -0.0666  0.0291 -0.0583
  276loPI    C3 4403   7.668  14.655  10.847 -0.1122 -0.0853  0.1820
  276loPI   PO4 4404   8.052  14.795  10.373  0.2213  0.4674  0.1670
  276loPI   GL1 4405   8.204  14.985  10.034 -0.0990 -0.0213  0.3428
  276loPI   GL2 4406   7.955  15.198   9.917  0.0779 -0.4255 -0.1007
  276loPI   C1A 4407   8.465  14.928   9.694 -0.0938 -0.0978  0.2302
  276loPI   C2A 4408   8.514  14.933   9.274 -0.3278  0.0758 -0.1838
  276loPI   C3A 4409   8.612  14.822   8.870 -0.0866  0.0609  0.0629
  276loPI   C4A 4410   8.786  14.722   8.426 -0.0185 -0.1943  0.0097
  276loPI   C5A 4411   8.972  14.519   8.095  0.0423  0.0625  0.0232
  276loPI   C6A 4412   8.898  14.326   7.616 -0.0966 -0.1297 -0.2385
  276loPI   C1B 4413   8.038  15.011   9.564  0.2210 -0.1897  0.2611
  276loPI   C2B 4414   8.089  14.628   9.223  0.0271 -0.0389  0.1188
  276loPI   C3B 4415   8.223  14.510   8.831  0.3382  0.1329  0.0812
  276loPI   C4B 4416   8.484  14.308   8.525 -0.0422 -0.1112 -0.2924
  277loPI    C1 4417  14.243   3.526  10.219  0.2624 -0.0742  0.0765
  277loPI    C2 4418  14.075   3.766  10.492 -0.0882 -0.0707 -0.1361
  277loPI    C3 4419  13.889   3.430  10.380  0.2288 -0.2606 -0.1045
  277loPI   PO4 4420  14.388   3.700  10.100  0.1906  0.0098  0.1672
  277loPI   GL1 4421  14.533   3.900   9.811 -0.3445  0.2212  0.3414
  277loPI   GL2 4422  14.744   3.599   9.826  0.1792  0.0547  0.1954
  277loPI   C1A 4423  14.524   3.890   9.434  0.0240  0.1413  0.1759
  277loPI   C2A 4424  14.512   3.911   9.032 -0.1692 -0.0873  0.1009
  277loPI   C3A 4425  14.596   3.980   8.616  0.1358  0.2541  0.1248
  277loPI   C4A 4426  14.515   4.061   8.170  0.0320  0.3017 -0.0454
  277loPI   C5A 4427  14.768   4.170   7.907 -0.3013  0.0172 -0.5149
  277loPI   C6A 4428  15.210   4.378   7.798 -0.2479 -0.1060 -0.0560
  277loPI   C1B 4429  14.985   3.520   9.478 -0.0902 -0.0860  0.2601
  277loPI   C2B 4430  14.880   3.549   9.042  0.1599  0.0192  0.2838
  277loPI   C3B 4431  14.817   3.516   8.632 -0.2921 -0.0927  0.3048
  277loPI   C4B 4432  15.017   3.346   8.307  0.0163 -0.2599  0.0266
  278loPI    C1 4433   3.844  16.859  10.264 -0.0541 -0.0686 -0.1722
  278loPI    C2 4434   4.015  16.651  10.560 -0.1303  0.3261  0.1578
  278loPI    C3 4435   4.184  16.989  10.430 -0.1807  0.2370 -0.1459
  278loPI   PO4 4436   3.768  16.654  10.138  0.2748  0.0577 -0.1517
  278loPI   GL1 4437   3.847  16.246   9.861  0.2093  0.2845 -0.0554
  278loPI   GL2 4438   4.075  16.238   9.811 -0.2077 -0.0378 -0.0897
  278loPI   C1A 4439   3.710  16.330   9.397  0.0332 -0.0972  0.0223
  278loPI   C2A 4440   3.741  16.517   9.040  0.1703 -0.1208 -0.0877
  278loPI   C3A 4441   4.088  16.693   8.665  0.4545 -0.0557  0.1890
  278loPI   C4A 4442   4.193  16.705   8.242  0.1002  0.2337  0.0636
  278loPI   C5A 4443   4.408  16.638   7.936  0.0804 -0.0924  0.1009
  278loPI   C6A 4444   4.530  16.562   7.404  0.2140  0.4031 -0.0981
  278loPI   C1B 4445   4.178  16.225   9.359  0.1490 -0.4757 -0.0579
  278loPI   C2B 4446   4.258  16.394   9.006 -0.0764  0.0155 -0.2075
  278loPI   C3B 4447   4.325  16.290   8.462  0.0461 -0.1946 -0.1128
  278loPI   C4B 4448   4.634  15.956   8.310  0.2295 -0.1796  0.0312
  279loPI    C1 4449  15.040   7.591  10.427 -0.1693  0.0768  0.0171
  279loPI    C2 4450  15.132   7.801  10.755 -0.1641  0.0138  0.0561
  279loPI    C3 4451  15.062   7.408  10.782  0.1058 -0.0441 -0.0600
  279loPI   PO4 4452  15.268   7.606  10.245  0.0193 -0.3685  0.1391
  279loPI   GL1 4453  15.272   7.647   9.694  0.1508  0.2216 -0.1721
  279loPI   GL2 4454  15.543   7.460   9.889  0.4117  0.0089 -0.0082
  279loPI   C1A 4455  15.130   7.693   9.303  0.1677  0.2971  0.1462
  279loPI   C2A 4456  14.949   7.866   8.909 -0.3051 -0.3145  0.3600
  279loPI   C3A 4457  14.895   8.268   8.620 -0.0401 -0.0766  0.0707
  279loPI   C4A 4458  14.940   8.267   8.151 -0.2337  0.1625 -0.0419
  279loPI   C5A 4459  15.266   8.293   7.802  0.0480  0.3636 -0.2673
  279loPI   C6A 4460  15.672   8.254   8.015  0.2439 -0.0435 -0.0480
  279loPI   C1B 4461  15.555   7.203   9.633 -0.1895 -0.3273 -0.3658
  279loPI   C2B 4462  15.470   6.844   9.264  0.0495 -0.1355 -0.0773
  279loPI   C3B 4463  15.801   6.825   9.136  0.3826  0.1721 -0.0345
  279loPI   C4B 4464  16.028   6.830   8.729  0.1745 -0.1363  0.1967
  280loPI    C1 4465  17.715  10.992  10.304  0.1976  0.1881 -0.0852
  280loPI    C2 4466  17.736  11.336  10.508  0.0067  0.0543  0.1664
  280loPI    C3 4467  17.386  11.146  10.472  0.0660  0.0014 -0.1686
  280loPI   PO4 4468  17.837  11.061  10.083 -0.1486  0.1711  0.0448
  280loPI   GL1 4469  17.839  11.392   9.761 -0.1662  0.1202 -0.0249
  280loPI   GL2 4470  18.146  11.599   9.736  0.1315  0.3374 -0.3400
  280loPI   C1A 4471  17.833  11.590   9.373  0.1267 -0.0559  0.0602
  280loPI   C2A 4472  17.752  11.711   8.965  0.1150 -0.0508 -0.0928
  280loPI   C3A 4473  17.719  11.681   8.475 -0.1042 -0.1075  0.0586
  280loPI   C4A 4474  17.690  11.624   8.087 -0.0210 -0.4056  0.1518
  280loPI   C5A 4475  18.013  11.751   7.683 -0.3283  0.1194  0.0146
  280loPI   C6A 4476  18.431  11.927   7.780  0.0100 -0.1203 -0.0083
  280loPI   C1B 4477  18.311  11.384   9.375 -0.1100  0.3608 -0.0133
  280loPI   C2B 4478  18.211  11.516   9.082 -0.3244 -0.0002 -0.2929
  280loPI   C3B 4479  18.234  11.624   8.580 -0.0250 -0.2326 -0.1554
  280loPI   C4B 4480  18.133  11.859   8.187  0.0078  0.2714  0.0167
  281loPI    C1 4481  13.003  14.027  10.776  0.1082 -0.1533  0.1276
  281loPI    C2 4482  12.952  14.203  11.131 -0.1825 -0.0848  0.0544
  281loPI    C3 4483  12.883  13.811  11.090  0.0639 -0.1368  0.1222
  281loPI   PO4 4484  13.051  14.197  10.599 -0.0474  0.2917  0.0867
  281loPI   GL1 4485  13.104  14.265  10.222  0.1575  0.0488  0.1472
  281loPI   GL2 4486  13.170  13.851  10.280 -0.0744  0.3188 -0.3179
  281loPI   C1A 4487  13.035  14.108   9.810 -0.1897 -0.0407 -0.1792
  281loPI   C2A 4488  13.222  13.965   9.366  0.2131  0.2324 -0.0295
  281loPI   C3A 4489  13.426  14.013   8.937  0.3536 -0.1767 -0.2093
  281loPI   C4A 4490  13.705  14.265   8.698  0.0700  0.0449  0.1242
  281loPI   C5A 4491  13.768  14.657   8.391  0.0980  0.0459 -0.1918
  281loPI   C6A 4492  13.384  14.723   8.159 -0.1377  0.0487  0.2729
  281loPI   C1B 4493  13.470  13.858   9.992 -0.0387 -0.1622  0.2167
  281loPI   C2B 4494  13.636  14.226   9.785  0.0929  0.2284 -0.1022
  281loPI   C3B 4495  13.743  14.161   9.264 -0.0170  0.3013  0.1141
  281loPI   C4B 4496  13.894  13.806   9.031  0.1985 -0.1953  0.4365
  282loPI    C1 4497   9.919  12.353  10.852  0.1835 -0.3890  0.1726
  282loPI    C2 4498   9.744  12.543  11.157 -0.0091 -0.1056 -0.1088
  282loPI    C3 4499   9.647  12.164  11.076 -0.0408 -0.1457  0.1107
  282loPI   PO4 4500   9.898  12.554  10.559  0.1041 -0.3036  0.0905
  282loPI   GL1 4501   9.668  12.764  10.247 -0.2987 -0.0471  0.0007
  282loPI   GL2 4502   9.399  12.941  10.162  0.0043 -0.0785 -0.0753
  282loPI   C1A 4503   9.503  12.614   9.832 -0.1470 -0.2071  0.4245
  282loPI   C2A 4504   9.503  12.473   9.505 -0.3165 -0.3083 -0.0691
  282loPI   C3A 4505   9.678  12.532   9.107 -0.1833  0.2553  0.0653
  282loPI   C4A 4506   9.946  12.510   8.732 -0.2018  0.2653  0.0554
  282loPI   C5A 4507  10.077  12.808   8.319 -0.0329  0.4146 -0.0380
  282loPI   C6A 4508  10.240  12.582   7.928  0.0857  0.1299 -0.2349
  282loPI   C1B 4509   9.197  13.125   9.760 -0.1253  0.4137 -0.4270
  282loPI   C2B 4510   9.319  13.108   9.382  0.2331 -0.0721  0.0112
  282loPI   C3B 4511   9.387  13.411   8.972  0.2624 -0.4731  0.0504
  282loPI   C4B 4512   9.446  13.786   8.661  0.1125  0.0877  0.2186
  283loPI    C1 4513   8.870  16.384  11.022 -0.0153  0.0705  0.0176
  283loPI    C2 4514   8.820  16.657  10.733  0.1478 -0.0161 -0.0943
  283loPI    C3 4515   9.002  16.758  11.075  0.0761  0.0522 -0.0761
  283loPI   PO4 4516   9.001  16.078  10.877 -0.0762  0.0544 -0.0411
  283loPI   GL1 4517   9.096  16.087  10.464 -0.0181  0.0351  0.0045
  283loPI   GL2 4518   9.120  16.376  10.471  0.0380  0.2215 -0.0103
  283loPI   C1A 4519   8.794  15.993  10.104  0.2100 -0.1425 -0.2710
  283loPI   C2A 4520   8.756  15.824   9.788  0.2375  0.0954  0.1074
  283loPI   C3A 4521   8.770  15.808   9.366 -0.1102 -0.1428  0.0583
  283loPI   C4A 4522   8.752  15.425   9.003  0.1145 -0.0054 -0.1776
  283loPI   C5A 4523   8.661  15.307   8.634  0.0705  0.0426 -0.0449
  283loPI   C6A 4524   8.408  15.530   8.326 -0.0308 -0.2474 -0.2082
  283loPI   C1B 4525   8.973  16.450   9.989  0.4485 -0.2415  0.1139
  283loPI   C2B 4526   9.020  16.383   9.563 -0.1608  0.2647 -0.0359
  283loPI   C3B 4527   8.979  16.641   9.195  0.1979  0.0910 -0.1511
  283loPI   C4B 4528   9.295  16.626   8.899  0.0224 -0.0476  0.2227
  284loPI    C1 4529  17.204   3.906  10.292  0.0773 -0.1377 -0.0472
  284loPI    C2 4530  17.470   4.079  10.536  0.0890  0.1073 -0.2295
  284loPI    C3 4531  17.084   4.069  10.637  0.1602 -0.2323  0.0269
  284loPI   PO4 4532  17.381   3.826  10.120  0.2767  0.2359  0.0742
  284loPI   GL1 4533  17.394   3.913   9.697 -0.1362  0.1110  0.2243
  284loPI   GL2 4534  17.606   4.056   9.779  0.0609 -0.1449  0.0533
  284loPI   C1A 4535  17.311   3.727   9.314 -0.0191 -0.1037 -0.0213
  284loPI   C2A 4536  17.444   3.708   8.906  0.2856 -0.0720  0.0366
  284loPI   C3A 4537  17.412   3.830   8.461  0.2768  0.1751 -0.0639
  284loPI   C4A 4538  17.390   3.686   8.118 -0.1856 -0.1633  0.0559
  284loPI   C5A 4539  17.060   3.483   7.729  0.0704 -0.3469 -0.0718
  284loPI   C6A 4540  16.604   3.331   7.788 -0.2818  0.0198 -0.1357
  284loPI   C1B 4541  17.692   4.333   9.494  0.2049  0.2081 -0.0068
  284loPI   C2B 4542  17.588   4.628   9.142  0.1631  0.0340 -0.0977
  284loPI   C3B 4543  17.804   4.896   8.839 -0.0529 -0.0829 -0.0474
  284loPI   C4B 4544  18.047   5.034   8.531 -0.0782  0.2830 -0.0649
  285loPI    C1 4545   2.974   9.434  11.061 -0.0117 -0.1507  0.0307
  285loPI    C2 4546   3.166   9.784  11.085 -0.0839 -0.0931 -0.2064
  285loPI    C3 4547   2.768   9.772  11.117 -0.0826 -0.1523 -0.2109
  285loPI   PO4 4548   3.148   9.376  10.830  0.0510 -0.0841 -0.1080
  285loPI   GL1 4549   3.054   9.270  10.386  0.2678 -0.0493 -0.1278
  285loPI   GL2 4550   3.171   9.669  10.366  0.2155 -0.1078 -0.1192
  285loPI   C1A 4551   3.268   9.128  10.033 -0.0961 -0.2051 -0.0775
  285loPI   C2A 4552   3.475   9.092   9.637 -0.0769  0.1200 -0.0897
  285loPI   C3A 4553   3.508   9.084   9.290  0.0435 -0.0241 -0.1577
  285loPI   C4A 4554   3.616   9.138   8.843  0.3483 -0.2206  0.0721
  285loPI   C5A 4555   3.499   9.326   8.378 -0.2099 -0.1943  0.2728
  285loPI   C6A 4556   3.249   9.115   8.141  0.1413 -0.0168 -0.0540
  285loPI   C1B 4557   3.072   9.602   9.984 -0.0548  0.0942  0.0930
  285loPI   C2B 4558   3.020   9.565   9.524  0.3420 -0.3389  0.1098
  285loPI   C3B 4559   2.884   9.713   9.136 -0.1496 -0.2329 -0.1087
  285loPI   C4B 4560   2.865  10.070   8.870 -0.3929  0.1681  0.0247
  286loPI    C1 4561  13.779   2.903  10.386 -0.1324 -0.1228  0.1394
  286loPI    C2 4562  14.053   2.669  10.560  0.0352  0.1250  0.2148
  286loPI    C3 4563  13.905   2.985  10.756 -0.3848 -0.0639  0.2144
  286loPI   PO4 4564  13.860   3.002  10.184  0.2395 -0.1003 -0.2309
  286loPI   GL1 4565  14.129   3.061   9.796 -0.1675  0.0147  0.0395
  286loPI   GL2 4566  14.402   3.167   9.913 -0.1017  0.1114 -0.1669
  286loPI   C1A 4567  14.112   2.951   9.272  0.0033  0.0086  0.0120
  286loPI   C2A 4568  14.005   2.914   8.942 -0.0674 -0.0174 -0.0928
  286loPI   C3A 4569  13.954   3.090   8.545 -0.3404  0.2822 -0.3272
  286loPI   C4A 4570  14.174   2.902   8.147  0.0364  0.0484  0.0265
  286loPI   C5A 4571  14.229   3.235   7.823 -0.1738  0.3623 -0.1253
  286loPI   C6A 4572  13.911   3.289   7.509 -0.0399  0.2399  0.0891
  286loPI   C1B 4573  14.536   3.269   9.466 -0.1016 -0.1357  0.4599
  286loPI   C2B 4574  14.579   3.172   9.165  0.1309  0.2571 -0.1478
  286loPI   C3B 4575  14.511   3.116   8.758 -0.2019 -0.1427  0.3381
  286loPI   C4B 4576  14.551   3.153   8.269  0.0378  0.2721 -0.0903
  287loPI    C1 4577   3.762   0.618  10.535 -0.1508 -0.0909 -0.3075
  287loPI    C2 4578   3.856   0.433  10.877  0.0304 -0.0034 -0.3088
  287loPI    C3 4579   3.617   0.753  10.882 -0.2322 -0.1965 -0.2999
  287loPI   PO4 4580   4.034   0.637  10.411 -0.2929 -0.1712 -0.1085
  287loPI   GL1 4581   4.069   0.536  10.048 -0.4150  0.0374 -0.1335
  287loPI   GL2 4582   4.367   0.391   9.925  0.0519  0.1393 -0.2728
  287loPI   C1A 4583   4.074   0.764   9.727 -0.1807 -0.1840 -0.1410
  287loPI   C2A 4584   4.058   0.814   9.337  0.2250  0.0279  0.1138
  287loPI   C3A 4585   3.997   0.860   8.922 -0.2064 -0.2340 -0.0235
  287loPI   C4A 4586   3.907   0.900   8.565 -0.0584 -0.1028  0.4530
  287loPI   C5A 4587   3.743   0.925   8.120 -0.1932 -0.0857 -0.0048
  287loPI   C6A 4588   3.733   1.142   7.667 -0.0888  0.2270 -0.1719
  287loPI   C1B 4589   4.164   0.337   9.451 -0.1578  0.0662  0.0600
  287loPI   C2B 4590   4.019   0.390   9.044 -0.3001  0.0471  0.0876
  287loPI   C3B 4591   3.885   0.403   8.635  0.0724 -0.0149 -0.1706
  287loPI   C4B 4592   3.697   0.397   8.210 -0.0081 -0.2363 -0.0521
  288loPI    C1 4593  10.366  12.563  10.831 -0.0863 -0.0018 -0.0769
  288loPI    C2 4594  10.464  12.196  10.958 -0.0041  0.0059 -0.1168
  288loPI    C3 4595  10.320  12.466  11.216 -0.2740 -0.1233 -0.1288
  288loPI   PO4 4596  10.424  12.441  10.507  0.2231 -0.0967  0.1335
  288loPI   GL1 4597  10.696  12.358  10.197 -0.1257  0.1339  0.1150
  288loPI   GL2 4598  10.947  12.441  10.146  0.1379  0.1932  0.2006
  288loPI   C1A 4599  10.596  12.450   9.700  0.0928  0.3324  0.2199
  288loPI   C2A 4600  10.576  12.429   9.302 -0.0705 -0.0631 -0.2437
  288loPI   C3A 4601  10.492  12.265   8.876  0.0106 -0.0997 -0.0628
  288loPI   C4A 4602  10.359  12.296   8.442 -0.2292 -0.1764 -0.1158
  288loPI   C5A 4603  10.617  11.966   8.337 -0.4809  0.0079  0.1075
  288loPI   C6A 4604  10.728  11.538   8.344 -0.2013  0.1156 -0.1528
  288loPI   C1B 4605  11.016  12.708   9.824  0.0670  0.0123 -0.3856
  288loPI   C2B 4606  10.950  12.814   9.382 -0.3160  0.2622 -0.2391
  288loPI   C3B 4607  10.898  12.824   9.074 -0.0857  0.1318  0.1164
  288loPI   C4B 4608  10.820  12.546   8.629  0.2112  0.1867 -0.2847
  289loPI    C1 4609   8.026   9.921  10.449  0.1740  0.3192  0.2793
  289loPI    C2 4610   7.696   9.853  10.665  0.0703  0.1815  0.0810
  289loPI    C3 4611   8.027   9.640  10.734 -0.0585 -0.0835 -0.1044
  289loPI   PO4 4612   7.909   9.909  10.201 -0.0900  0.2467  0.0233
  289loPI   GL1 4613   8.161   9.981   9.829 -0.2368 -0.2032  0.0512
  289loPI   GL2 4614   8.385  10.346   9.788 -0.3421 -0.2013  0.0036
  289loPI   C1A 4615   7.891   9.861   9.482  0.0149 -0.2242  0.3072
  289loPI   C2A 4616   7.789   9.914   9.094  0.0327 -0.0285 -0.0684
  289loPI   C3A 4617   7.698   9.981   8.737  0.2270  0.2872 -0.2593
  289loPI   C4A 4618   7.897   9.929   8.323  0.2513 -0.0092  0.3725
  289loPI   C5A 4619   8.152   9.630   8.046 -0.1448  0.1435  0.0074
  289loPI   C6A 4620   8.235   9.219   7.839 -0.2141 -0.2976  0.2400
  289loPI   C1B 4621   8.330  10.283   9.339  0.0350  0.0482 -0.0048
  289loPI   C2B 4622   8.157  10.162   8.898  0.0167  0.1025 -0.0689
  289loPI   C3B 4623   8.058  10.323   8.628  0.2722  0.0556 -0.1685
  289loPI   C4B 4624   7.938  10.582   8.349 -0.1348  0.0592  0.0427
  290loPI    C1 4625   3.210  11.850  10.472  0.1027  0.0297 -0.0336
  290loPI    C2 4626   3.450  11.748  10.776  0.0334  0.0985  0.0446
  290loPI    C3 4627   3.187  12.047  10.820 -0.0424  0.0464 -0.0521
  290loPI   PO4 4628   3.148  11.665  10.324 -0.0262 -0.0776  0.0593
  290loPI   GL1 4629   2.933  11.548  10.011 -0.0151 -0.0434  0.2266
  290loPI   GL2 4630   2.910  11.125   9.948  0.0953  0.3011  0.1043
  290loPI   C1A 4631   2.783  11.767   9.597  0.3622 -0.0604  0.1052
  290loPI   C2A 4632   2.830  11.931   9.159  0.0855  0.1882  0.2074
  290loPI   C3A 4633   3.076  11.548   8.841 -0.3544 -0.1385  0.3200
  290loPI   C4A 4634   3.150  11.487   8.334  0.0174 -0.0756  0.1308
  290loPI   C5A 4635   3.372  11.331   7.892 -0.5627  0.0792 -0.2698
  290loPI   C6A 4636   3.566  11.081   7.701 -0.1652 -0.0935 -0.1346
  290loPI   C1B 4637   2.650  10.869   9.659 -0.0700 -0.1516 -0.0982
  290loPI   C2B 4638   2.429  10.776   9.372  0.0857 -0.5557  0.0193
  290loPI   C3B 4639   2.092  10.682   9.101 -0.1491  0.0324  0.3625
  290loPI   C4B 4640   1.801  10.742   8.886 -0.0635 -0.1033  0.1083
  291loPI    C1 4641   7.043  12.109  10.605  0.0805  0.1055 -0.1793
  291loPI    C2 4642   6.831  11.936  10.897  0.0683  0.0839 -0.2009
  291loPI    C3 4643   7.215  11.837  10.842  0.0899  0.1379 -0.1486
  291loPI   PO4 4644   6.895  12.022  10.392 -0.0544 -0.1169  0.1829
  291loPI   GL1 4645   6.765  12.030   9.974 -0.1665 -0.0901 -0.0974
  291loPI   GL2 4646   7.021  12.247   9.856  0.2187 -0.1841 -0.1195
  291loPI   C1A 4647   6.603  11.781   9.656  0.0234 -0.0078  0.3355
  291loPI   C2A 4648   6.637  11.875   9.260  0.1163 -0.1190  0.1210
  291loPI   C3A 4649   6.735  11.899   8.827  0.1606  0.0688  0.0396
  291loPI   C4A 4650   6.710  12.134   8.482 -0.0444  0.0914  0.1334
  291loPI   C5A 4651   7.052  12.206   8.067 -0.0007 -0.0140 -0.1363
  291loPI   C6A 4652   7.318  12.339   8.057  0.1784 -0.2466 -0.2544
  291loPI   C1B 4653   6.826  12.229   9.570 -0.0377 -0.0839 -0.2415
  291loPI   C2B 4654   6.835  12.432   9.194 -0.1621  0.0086 -0.1266
  291loPI   C3B 4655   6.906  12.471   8.750  0.1690 -0.1565 -0.3563
  291loPI   C4B 4656   6.960  12.589   8.413 -0.0868 -0.1507  0.1675
  292loPI    C1 4657   9.820   9.568  10.843 -0.2289  0.1698  0.0846
  292loPI    C2 4658   9.696   9.231  11.020 -0.3195  0.0884 -0.1303
  292loPI    C3 4659   9.960   9.469  11.204  0.0841 -0.3217 -0.1596
  292loPI   PO4 4660   9.851   9.438  10.547  0.0360  0.0476  0.1863
  292loPI   GL1 4661   9.782   9.612  10.249 -0.1548  0.1485 -0.3422
  292loPI   GL2 4662  10.061   9.718  10.151  0.0118  0.2005  0.0878
  292loPI   C1A 4663   9.730   9.480   9.889 -0.0297  0.2806 -0.0574
  292loPI   C2A 4664   9.599   9.611   9.503 -0.0390 -0.0247 -0.0059
  292loPI   C3A 4665   9.480   9.541   9.131 -0.1994  0.0221 -0.1377
  292loPI   C4A 4666   9.409   9.558   8.688  0.2608 -0.0620  0.3570
  292loPI   C5A 4667   9.468   9.784   8.302  0.0509  0.1015  0.0235
  292loPI   C6A 4668   9.283  10.176   8.149  0.0219 -0.1404  0.0814
  292loPI   C1B 4669   9.941   9.966   9.793 -0.0822 -0.0293 -0.1809
  292loPI   C2B 4670  10.023  10.238   9.437  0.0573 -0.2337  0.0490
  292loPI   C3B 4671   9.931  10.433   8.971 -0.0492  0.0454  0.0382
  292loPI   C4B 4672   9.781  10.779   8.875 -0.0421  0.1781  0.0936
  293loPI    C1 4673   7.010   6.383  10.516 -0.0837  0.2714  0.0143
  293loPI    C2 4674   7.086   6.482  10.896 -0.1522  0.1476  0.0608
  293loPI    C3 4675   6.857   6.164  10.814 -0.1627  0.1918 -0.0840
  293loPI   PO4 4676   7.026   6.647  10.370  0.1817  0.0128 -0.2094
  293loPI   GL1 4677   6.942   6.664   9.999 -0.1965 -0.2741  0.0593
  293loPI   GL2 4678   7.087   6.364   9.933 -0.1143  0.2691 -0.1316
  293loPI   C1A 4679   6.799   6.572   9.615 -0.4351  0.2577 -0.1653
  293loPI   C2A 4680   6.639   6.741   9.218 -0.1565 -0.1654 -0.1166
  293loPI   C3A 4681   6.337   6.769   8.883  0.3562  0.2744 -0.0692
  293loPI   C4A 4682   6.284   6.439   8.505 -0.1549 -0.0748  0.0415
  293loPI   C5A 4683   6.248   6.557   8.027 -0.1660  0.0623 -0.3259
  293loPI   C6A 4684   6.336   6.386   7.609 -0.0969  0.0819 -0.1612
  293loPI   C1B 4685   6.972   6.078   9.559  0.1772  0.1333 -0.0162
  293loPI   C2B 4686   7.073   5.984   9.083 -0.1117  0.0454  0.0871
  293loPI   C3B 4687   7.330   5.935   8.652  0.1548  0.2131 -0.0902
  293loPI   C4B 4688   7.398   6.147   8.312 -0.1131  0.1549  0.3591
  294loPI    C1 4689  17.238   7.259  10.608  0.0958 -0.0277  0.2655
  294loPI    C2 4690  17.557   7.248  10.367 -0.0928  0.0760  0.0063
  294loPI    C3 4691  17.594   7.382  10.743  0.1135  0.3527 -0.1088
  294loPI   PO4 4692  17.033   7.259  10.390 -0.5833  0.1283  0.1190
  294loPI   GL1 4693  16.835   7.248   9.895  0.0907  0.0393  0.0773
  294loPI   GL2 4694  16.868   7.009   9.669  0.2183 -0.0588  0.2242
  294loPI   C1A 4695  16.513   7.327   9.628 -0.2621 -0.2176  0.0195
  294loPI   C2A 4696  16.093   7.259   9.359 -0.0109  0.0178 -0.3124
  294loPI   C3A 4697  15.719   7.324   9.161 -0.2787 -0.1680 -0.0489
  294loPI   C4A 4698  15.687   7.193   8.812 -0.0057 -0.2690 -0.0285
  294loPI   C5A 4699  15.706   7.061   8.375 -0.2323 -0.1677  0.1833
  294loPI   C6A 4700  15.426   6.693   8.099 -0.2385 -0.1182  0.3405
  294loPI   C1B 4701  16.849   6.944   9.232 -0.2911 -0.1791  0.3436
  294loPI   C2B 4702  16.741   7.028   8.768 -0.1122  0.1986  0.0925
  294loPI   C3B 4703  16.707   7.095   8.355 -0.0415 -0.1787  0.1790
  294loPI   C4B 4704  16.612   7.417   7.900  0.0676  0.1634 -0.1278
  295loPI    C1 4705   0.890   9.224  10.558 -0.0399 -0.1282 -0.0066
  295loPI    C2 4706   0.934   9.498  10.847 -0.2511 -0.0156 -0.0785
  295loPI    C3 4707   0.595   9.288  10.820 -0.1876 -0.1074 -0.1762
  295loPI   PO4 4708   1.109   9.232  10.375  0.0623 -0.0981  0.0923
  295loPI   GL1 4709   1.082   9.258   9.969  0.1308  0.0558  0.4214
  295loPI   GL2 4710   1.477   9.307   9.897 -0.0600 -0.0284 -0.2366
  295loPI   C1A 4711   1.137   9.435   9.520 -0.2023 -0.1811  0.1674
  295loPI   C2A 4712   1.221   9.502   9.087 -0.4716 -0.0462  0.1488
  295loPI   C3A 4713   1.276   9.553   8.638  0.0709  0.1160 -0.1837
  295loPI   C4A 4714   1.059   9.431   8.322 -0.3367  0.0151 -0.3585
  295loPI   C5A 4715   0.780   9.256   7.998 -0.2156 -0.4204  0.1944
  295loPI   C6A 4716   0.512   9.660   7.989  0.0589 -0.0291  0.2028
  295loPI   C1B 4717   1.668   9.548   9.599  0.0302  0.0864 -0.3503
  295loPI   C2B 4718   1.904   9.824   9.443  0.2580  0.1160  0.0961
  295loPI   C3B 4719   2.048  10.140   9.120  0.2588  0.1121 -0.1046
  295loPI   C4B 4720   2.038  10.352   8.694  0.3199  0.0074  0.0951
  296loPI    C1 4721   8.325  16.456  10.888  0.1054 -0.0900 -0.0055
  296loPI    C2 4722   8.078  16.661  11.127  0.0749 -0.0734 -0.0514
  296loPI    C3 4723   8.463  16.767  11.099  0.1194 -0.1839  0.1251
  296loPI   PO4 4724   8.257  16.472  10.717  0.0311 -0.1146  0.2938
  296loPI   GL1 4725   8.189  16.606  10.431 -0.1946  0.2907 -0.1263
  296loPI   GL2 4726   8.528  16.643  10.322  0.1040 -0.1300  0.2488
  296loPI   C1A 4727   8.253  16.861   9.929  0.0868 -0.0209 -0.2424
  296loPI   C2A 4728   8.474  17.291   9.716 -0.0096 -0.0568 -0.1059
  296loPI   C3A 4729   8.423  17.336   9.341  0.0533  0.1000 -0.0356
  296loPI   C4A 4730   8.590  17.503   8.955 -0.1269  0.1412  0.0236
  296loPI   C5A 4731   8.520  17.625   8.585 -0.3615 -0.0984  0.3423
  296loPI   C6A 4732   8.149  17.889   8.323  0.2606 -0.0136  0.0610
  296loPI   C1B 4733   8.446  16.375  10.022 -0.1443 -0.1816 -0.1967
  296loPI   C2B 4734   8.529  16.267   9.704 -0.1009  0.1749 -0.0269
  296loPI   C3B 4735   8.551  16.219   9.247  0.0352  0.0188  0.1107
  296loPI   C4B 4736   8.492  16.265   8.897 -0.3568  0.1003 -0.2404
  297loPI    C1 4737  14.380   6.260  10.376 -0.0721 -0.0694  0.0303
  297loPI    C2 4738  14.208   6.441  10.689 -0.0132  0.2972 -0.1436
  297loPI    C3 4739  14.603   6.376  10.687 -0.0372  0.1433 -0.0724
  297loPI   PO4 4740  14.117   6.327  10.158 -0.0798  0.0831 -0.0530
  297loPI   GL1 4741  13.811   6.521   9.810  0.0441  0.1128 -0.1644
  297loPI   GL2 4742  14.084   6.755   9.749  0.1320  0.2082  0.1651
  297loPI   C1A 4743  13.615   6.799   9.680  0.4387 -0.0225  0.2439
  297loPI   C2A 4744  13.658   7.071   9.460 -0.0345  0.1235 -0.2638
  297loPI   C3A 4745  13.831   7.158   9.038 -0.0785  0.2124  0.3759
  297loPI   C4A 4746  13.828   6.959   8.580  0.0068  0.2016  0.0351
  297loPI   C5A 4747  13.649   7.107   8.212  0.1022 -0.0636 -0.2279
  297loPI   C6A 4748  13.195   7.180   8.068  0.2196  0.1174  0.2581
  297loPI   C1B 4749  14.023   6.815   9.302 -0.1725 -0.0386  0.0671
  297loPI   C2B 4750  13.935   6.640   8.954  0.0841  0.1826  0.0674
  297loPI   C3B 4751  13.943   6.189   8.841 -0.0124 -0.0681 -0.1446
  297loPI   C4B 4752  13.796   6.069   8.448  0.0861 -0.2229  0.2765
  298loPI    C1 4753   6.481  16.804  10.479 -0.2160  0.1497 -0.0280
  298loPI    C2 4754   6.258  16.778  10.147 -0.2088 -0.0581 -0.0178
  298loPI    C3 4755   6.088  16.735  10.507 -0.1461 -0.2656 -0.0116
  298loPI   PO4 4756   6.773  16.702  10.336  0.2289  0.5674 -0.0261
  298loPI   GL1 4757   6.716  16.608   9.896  0.2220 -0.1737  0.1438
  298loPI   GL2 4758   6.766  16.325   9.731 -0.1587  0.1863 -0.2154
  298loPI   C1A 4759   6.449  16.722   9.642  0.3240  0.2265  0.2701
  298loPI   C2A 4760   6.531  16.801   9.198 -0.2562  0.1088 -0.2234
  298loPI   C3A 4761   6.356  16.881   8.817  0.1104 -0.1559  0.1817
  298loPI   C4A 4762   6.089  16.713   8.552 -0.2672  0.1357 -0.1928
  298loPI   C5A 4763   6.064  16.695   8.238 -0.2012  0.1468  0.3209
  298loPI   C6A 4764   5.772  16.569   7.953 -0.1401 -0.0262  0.0501
  298loPI   C1B 4765   6.714  16.374   9.329  0.0857 -0.0434 -0.2994
  298loPI   C2B 4766   6.425  16.263   9.024  0.1179  0.3086  0.2163
  298loPI   C3B 4767   6.436  16.330   8.670 -0.3509  0.0176  0.3300
  298loPI   C4B 4768   6.428  16.341   8.222  0.1170 -0.0459 -0.1172
  299loPI    C1 4769  16.427   3.806  10.499  0.0731  0.2477 -0.2595
  299loPI    C2 4770  16.761   3.639  10.644  0.0260  0.2002 -0.2051
  299loPI    C3 4771  16.636   3.993  10.784 -0.1225  0.0656  0.0076
  299loPI   PO4 4772  16.375   3.731  10.292 -0.1270  0.1413  0.0473
  299loPI   GL1 4773  16.037   3.526  10.029  0.0907 -0.2012 -0.0234
  299loPI   GL2 4774  16.365   3.444   9.833  0.1140  0.0468 -0.2583
  299loPI   C1A 4775  15.836   3.577   9.611 -0.0830  0.3421 -0.1578
  299loPI   C2A 4776  15.917   3.441   9.183 -0.4514 -0.2813  0.0149
  299loPI   C3A 4777  15.988   3.453   8.743 -0.0021  0.0204  0.4421
  299loPI   C4A 4778  15.911   3.280   8.373  0.2902  0.0701  0.0193
  299loPI   C5A 4779  16.084   3.574   7.974 -0.0835 -0.3456 -0.0368
  299loPI   C6A 4780  16.108   3.944   7.790  0.2523 -0.1709 -0.0145
  299loPI   C1B 4781  16.330   3.485   9.493 -0.0900 -0.0792  0.2911
  299loPI   C2B 4782  16.468   3.353   9.112 -0.1715  0.4346 -0.0137
  299loPI   C3B 4783  16.530   3.429   8.697  0.1128  0.0731 -0.0061
  299loPI   C4B 4784  16.412   3.340   8.309  0.0026  0.0391 -0.0559
  300loPI    C1 4785  11.929  15.969  11.127  0.0821  0.0331 -0.1875
  300loPI    C2 4786  11.857  16.003  11.519  0.0683  0.0368 -0.1903
  300loPI    C3 4787  11.579  15.846  11.278  0.0843  0.0168 -0.1956
  300loPI   PO4 4788  11.903  16.264  11.003  0.0080 -0.0963  0.2044
  300loPI   GL1 4789  11.795  16.408  10.497 -0.3757  0.0973  0.2879
  300loPI   GL2 4790  11.676  16.449  10.229  0.4374  0.1324 -0.0691
  300loPI   C1A 4791  12.231  16.367  10.299 -0.2886  0.2277  0.2315
  300loPI   C2A 4792  12.245  16.396   9.855 -0.2553 -0.1873  0.0989
  300loPI   C3A 4793  12.233  16.503   9.427  0.1163 -0.2283  0.2734
  300loPI   C4A 4794  12.100  16.717   9.056 -0.1753 -0.3580 -0.0136
  300loPI   C5A 4795  11.738  16.652   8.847 -0.1993  0.2153 -0.0747
  300loPI   C6A 4796  11.532  16.362   8.812  0.1025  0.0824 -0.1143
  300loPI   C1B 4797  11.592  16.336   9.872  0.0777  0.2075  0.0823
  300loPI   C2B 4798  11.796  16.326   9.551  0.1104 -0.3109 -0.2907
  300loPI   C3B 4799  11.894  16.252   9.151  0.1476 -0.0801 -0.0477
  300loPI   C4B 4800  11.898  15.970   8.777  0.1178  0.0951  0.0845
  301loPI    C1 4801  18.402   6.893  10.058 -0.0305  0.2750  0.0894
  301loPI    C2 4802  18.381   6.873  10.457 -0.0127  0.1577  0.0852
  301loPI    C3 4803  18.714   6.758  10.269 -0.0581  0.1156  0.0301
  301loPI   PO4 4804  18.151   6.691   9.925 -0.1568  0.4985 -0.2097
  301loPI   GL1 4805  18.195   6.709   9.440 -0.1173 -0.1905  0.1481
  301loPI   GL2 4806  17.922   6.906   9.359 -0.1141 -0.1270 -0.2010
  301loPI   C1A 4807  18.282   6.703   9.023  0.0953 -0.0062 -0.1460
  301loPI   C2A 4808  18.203   6.465   8.571  0.0500  0.1897 -0.0670
  301loPI   C3A 4809  18.180   6.336   8.099  0.1904  0.0708  0.4978
  301loPI   C4A 4810  18.433   6.010   7.833 -0.1528 -0.1323  0.1150
  301loPI   C5A 4811  18.836   5.959   8.012  0.1370 -0.0187 -0.3006
  301loPI   C6A 4812  19.218   5.751   7.956  0.1198 -0.0277 -0.1100
  301loPI   C1B 4813  18.169   7.185   9.156  0.2431 -0.1223 -0.2375
  301loPI   C2B 4814  18.012   7.605   8.975 -0.0050  0.0447 -0.0257
  301loPI   C3B 4815  17.808   7.791   8.730 -0.1919  0.3381  0.1001
  301loPI   C4B 4816  17.915   7.873   8.317  0.0280 -0.0151  0.1275
  302loPI    C1 4817   1.633  16.573  10.495 -0.1223 -0.0029  0.0615
  302loPI    C2 4818   1.433  16.231  10.547  0.2524 -0.2100  0.1779
  302loPI    C3 4819   1.752  16.313  10.775  0.3269  0.0945 -0.0304
  302loPI   PO4 4820   1.660  16.571  10.223 -0.0047  0.4236  0.0486
  302loPI   GL1 4821   1.676  16.491   9.744  0.3283 -0.0908 -0.0866
  302loPI   GL2 4822   1.406  16.349   9.742 -0.1849 -0.0086 -0.1915
  302loPI   C1A 4823   1.819  16.416   9.306  0.0147  0.1885  0.1265
  302loPI   C2A 4824   1.955  16.185   8.988 -0.2423 -0.1074  0.2705
  302loPI   C3A 4825   1.917  16.066   8.579 -0.2991 -0.3953  0.0253
  302loPI   C4A 4826   1.998  15.986   8.203 -0.0452 -0.0443 -0.1986
  302loPI   C5A 4827   1.853  15.547   7.991 -0.2144  0.0751 -0.1444
  302loPI   C6A 4828   1.719  15.127   7.847  0.0729 -0.1910 -0.0176
  302loPI   C1B 4829   1.322  16.635   9.339 -0.3326  0.0161 -0.3294
  302loPI   C2B 4830   1.189  16.624   8.894 -0.0376 -0.1372 -0.2761
  302loPI   C3B 4831   1.153  16.745   8.600  0.1535  0.2635 -0.2831
  302loPI   C4B 4832   0.967  16.679   8.273 -0.1470 -0.1295 -0.1229
  303loPI    C1 4833  11.748   9.940  10.580  0.0970 -0.1511  0.0424
  303loPI    C2 4834  11.688  10.134  10.924  0.2984  0.1423 -0.0841
  303loPI    C3 4835  11.927   9.813  10.914 -0.1559 -0.2151  0.1557
  303loPI   PO4 4836  11.547   9.806  10.460 -0.1795  0.2437  0.1141
  303loPI   GL1 4837  11.208   9.976  10.231  0.2243  0.0751  0.2293
  303loPI   GL2 4838  11.165   9.667  10.213  0.2009  0.1953 -0.1414
  303loPI   C1A 4839  11.075  10.128   9.851  0.3042  0.4418 -0.1028
  303loPI   C2A 4840  11.082  10.041   9.460  0.0416 -0.0481 -0.1753
  303loPI   C3A 4841  11.109   9.967   9.084  0.1166 -0.1734  0.2524
  303loPI   C4A 4842  11.140  10.188   8.671 -0.0504 -0.1132  0.3045
  303loPI   C5A 4843  11.119  10.463   8.340 -0.0844  0.0564  0.0915
  303loPI   C6A 4844  11.317  10.791   8.039  0.3553 -0.1027 -0.1696
  303loPI   C1B 4845  11.231   9.651   9.867 -0.1051  0.1286  0.1071
  303loPI   C2B 4846  11.228   9.516   9.444  0.2145  0.0534 -0.2691
  303loPI   C3B 4847  10.983   9.509   8.945  0.0406  0.0335 -0.0716
  303loPI   C4B 4848  10.834   9.481   8.547  0.4822 -0.1685 -0.0398
  304loPI    C1 4849   5.299  13.212  10.406 -0.1116 -0.0770 -0.0165
  304loPI    C2 4850   4.932  13.368  10.434 -0.0921 -0.0789  0.2879
  304loPI    C3 4851   5.120  13.239  10.763  0.2007 -0.0355  0.1407
  304loPI   PO4 4852   5.278  13.124  10.145 -0.3292  0.0396 -0.1497
  304loPI   GL1 4853   5.354  13.350   9.816  0.0495  0.1802  0.1199
  304loPI   GL2 4854   5.655  13.416   9.736 -0.1169  0.1799  0.2725
  304loPI   C1A 4855   5.166  13.556   9.461 -0.0850  0.1129  0.3374
  304loPI   C2A 4856   5.260  13.667   9.105  0.1169 -0.2455  0.1411
  304loPI   C3A 4857   5.295  13.469   8.610  0.3192  0.2146 -0.0576
  304loPI   C4A 4858   5.104  13.396   8.281 -0.1209  0.3657  0.2157
  304loPI   C5A 4859   4.885  13.455   7.947 -0.0569  0.1432 -0.2370
  304loPI   C6A 4860   4.619  13.309   7.652 -0.0007  0.0241  0.1778
  304loPI   C1B 4861   5.707  13.601   9.305 -0.0035  0.1358 -0.1841
  304loPI   C2B 4862   5.752  13.516   8.862 -0.0715 -0.2274 -0.0633
  304loPI   C3B 4863   5.984  13.553   8.370 -0.1768  0.2048 -0.1801
  304loPI   C4B 4864   5.863  13.920   8.095  0.1194  0.0421 -0.0319
  305loPI    C1 4865   5.521  12.276  10.833 -0.1100  0.1755 -0.0554
  305loPI    C2 4866   5.781  12.537  10.989 -0.1284  0.1051  0.0950
  305loPI    C3 4867   5.812  12.147  11.076 -0.2710  0.0936  0.0968
  305loPI   PO4 4868   5.610  12.307  10.502  0.1038  0.2992 -0.1408
  305loPI   GL1 4869   5.345  12.179  10.094  0.1230  0.4290  0.1475
  305loPI   GL2 4870   5.581  12.360   9.911 -0.2865  0.3488  0.2643
  305loPI   C1A 4871   5.753  11.926   9.774  0.1281  0.0585 -0.0902
  305loPI   C2A 4872   5.785  12.003   9.233  0.0410 -0.1046  0.0389
  305loPI   C3A 4873   5.858  12.204   8.857  0.3635  0.0151  0.4538
  305loPI   C4A 4874   6.017  12.120   8.519 -0.2474 -0.3605 -0.2918
  305loPI   C5A 4875   6.127  11.894   8.204 -0.3410  0.0309 -0.1612
  305loPI   C6A 4876   5.807  11.723   8.099 -0.1602  0.2180  0.5923
  305loPI   C1B 4877   5.569  12.394   9.484 -0.0971  0.2149 -0.0569
  305loPI   C2B 4878   5.543  12.454   9.149 -0.2006 -0.1843  0.1717
  305loPI   C3B 4879   5.495  12.499   8.669  0.1045 -0.0367  0.0372
  305loPI   C4B 4880   5.276  12.340   8.316 -0.0848  0.3037  0.1809
  306loPI    C1 4881  11.937   5.613  10.604 -0.1677  0.0120  0.1030
  306loPI    C2 4882  12.159   5.698  10.925  0.2104  0.2102 -0.2022
  306loPI    C3 4883  11.955   5.988  10.740 -0.0124  0.0952 -0.1411
  306loPI   PO4 4884  12.105   5.470  10.367  0.0392  0.2257  0.4875
  306loPI   GL1 4885  12.204   5.266   9.927  0.1777  0.2000 -0.3402
  306loPI   GL2 4886  12.447   5.248   9.772 -0.1470  0.0797 -0.1941
  306loPI   C1A 4887  11.904   5.308   9.674 -0.0294 -0.0511 -0.0250
  306loPI   C2A 4888  11.799   5.248   9.213  0.0278  0.0914 -0.0696
  306loPI   C3A 4889  12.002   5.091   8.783 -0.1370 -0.1989  0.0988
  306loPI   C4A 4890  11.745   5.059   8.386  0.0522 -0.0258 -0.2315
  306loPI   C5A 4891  11.640   5.022   7.924  0.1707 -0.0884 -0.0740
  306loPI   C6A 4892  11.627   4.802   7.520  0.0172 -0.3190  0.2112
  306loPI   C1B 4893  12.653   5.236   9.349  0.0113 -0.2243  0.0238
  306loPI   C2B 4894  12.533   4.881   8.956  0.0397 -0.3354  0.2501
  306loPI   C3B 4895  12.438   4.899   8.623  0.1620 -0.1020 -0.1926
  306loPI   C4B 4896  12.231   4.999   8.284 -0.0068 -0.1053  0.2884
  307loPI    C1 4897  13.031  17.330  11.043  0.1394 -0.0599  0.2957
  307loPI    C2 4898  12.831  17.656  10.929  0.0921 -0.2196 -0.0958
  307loPI    C3 4899  13.181  17.693  11.120  0.0051  0.0575  0.0164
  307loPI   PO4 4900  12.918  17.189  10.778 -0.2881 -0.1076  0.0011
  307loPI   GL1 4901  12.894  17.285  10.396 -0.2122  0.0907  0.2446
  307loPI   GL2 4902  12.857  17.650  10.451  0.1492 -0.0864  0.3568
  307loPI   C1A 4903  12.677  17.257   9.886 -0.0915 -0.5220 -0.0368
  307loPI   C2A 4904  12.767  17.253   9.482  0.1230 -0.1168 -0.1048
  307loPI   C3A 4905  12.637  17.180   8.985 -0.1000 -0.4238  0.0425
  307loPI   C4A 4906  12.643  17.588   8.616 -0.0603  0.4037 -0.1192
  307loPI   C5A 4907  12.798  17.906   8.396 -0.1626 -0.0040 -0.1792
  307loPI   C6A 4908  13.104  17.975   8.210  0.2726 -0.0944  0.1662
  307loPI   C1B 4909  12.862  17.665  10.017 -0.1910 -0.1744  0.0107
  307loPI   C2B 4910  12.763  17.814   9.565 -0.0339  0.1072 -0.0045
  307loPI   C3B 4911  12.419  17.634   9.303 -0.2733 -0.4729  0.3650
  307loPI   C4B 4912  12.179  17.211   9.092  0.1447 -0.2275  0.2615
  308loPI    C1 4913  10.061  11.775  10.606  0.4926  0.0179 -0.0176
  308loPI    C2 4914  10.287  11.638  10.907 -0.0580 -0.5174  0.1731
  308loPI    C3 4915   9.891  11.676  10.955 -0.0480  0.2636 -0.1988
  308loPI   PO4 4916  10.082  11.995  10.519  0.2555 -0.3110  0.0778
  308loPI   GL1 4917  10.036  12.357  10.167 -0.2605 -0.3700 -0.1512
  308loPI   GL2 4918   9.732  12.233   9.920  0.1336 -0.1043  0.0356
  308loPI   C1A 4919  10.054  12.609   9.773  0.1523  0.2156 -0.1920
  308loPI   C2A 4920  10.094  12.610   9.336  0.1102 -0.0372  0.0147
  308loPI   C3A 4921  10.281  12.701   9.039 -0.1382  0.1080 -0.1112
  308loPI   C4A 4922  10.380  12.931   8.730 -0.1713  0.0488  0.0527
  308loPI   C5A 4923  10.812  13.051   8.632 -0.1595  0.0575  0.4902
  308loPI   C6A 4924  11.026  12.817   8.253  0.0583  0.1382 -0.0862
  308loPI   C1B 4925   9.572  11.881   9.684 -0.0658 -0.0890 -0.0458
  308loPI   C2B 4926   9.547  12.064   9.223 -0.2187 -0.0071 -0.3234
  308loPI   C3B 4927   9.474  12.170   8.820  0.1791  0.1308  0.0277
  308loPI   C4B 4928   9.359  12.395   8.563  0.1201  0.1502 -0.0990
  309loPI    C1 4929   0.120   7.323  10.344  0.0532  0.0340  0.0181
  309loPI    C2 4930   0.098   7.719  10.390 -0.4028 -0.0066  0.1981
  309loPI    C3 4931   0.133   7.483  10.710 -0.0209 -0.1101  0.0846
  309loPI   PO4 4932   0.307   7.248  10.130  0.1252 -0.1209  0.1940
  309loPI   GL1 4933   0.254   7.202   9.665  0.1158 -0.1492 -0.3341
  309loPI   GL2 4934   0.191   7.477   9.453  0.3942 -0.2636  0.1311
  309loPI   C1A 4935   0.238   7.039   9.232 -0.2096  0.1885 -0.1698
  309loPI   C2A 4936  -0.020   7.128   8.750  0.1843  0.0133  0.0838
  309loPI   C3A 4937  -0.058   7.149   8.335 -0.0972 -0.1410  0.0205
  309loPI   C4A 4938   0.322   7.210   7.954 -0.1479  0.0064  0.3409
  309loPI   C5A 4939   0.531   7.655   7.898 -0.1792  0.3203 -0.1198
  309loPI   C6A 4940   0.900   7.870   8.018 -0.2391 -0.3729  0.2645
  309loPI   C1B 4941   0.114   7.564   8.970 -0.2524  0.2915 -0.3773
  309loPI   C2B 4942  -0.128   7.624   8.559 -0.1038 -0.0938  0.1438
  309loPI   C3B 4943   0.071   7.607   8.043  0.2149  0.0551 -0.0283
  309loPI   C4B 4944   0.167   7.552   7.612 -0.4643  0.0921 -0.0207
  310loPI    C1 4945   3.301   2.642  10.347  0.1460  0.1182 -0.0632
  310loPI    C2 4946   3.098   2.654  10.002 -0.1682 -0.0498  0.1117
  310loPI    C3 4947   2.989   2.890  10.306  0.0221 -0.0005  0.1423
  310loPI   PO4 4948   3.292   2.375  10.432  0.0041 -0.0408 -0.4143
  310loPI   GL1 4949   3.340   2.138  10.171 -0.2366 -0.2727 -0.0732
  310loPI   GL2 4950   3.084   2.097   9.932 -0.1485  0.0294 -0.3303
  310loPI   C1A 4951   3.592   1.958   9.881 -0.0473 -0.1422 -0.1153
  310loPI   C2A 4952   3.928   1.748   9.545  0.0305  0.0451 -0.1269
  310loPI   C3A 4953   3.820   1.743   9.061 -0.0793 -0.2089 -0.2339
  310loPI   C4A 4954   3.774   1.805   8.637 -0.1998 -0.1726 -0.3029
  310loPI   C5A 4955   3.566   1.873   8.226  0.1243  0.2428  0.0263
  310loPI   C6A 4956   3.629   1.938   7.877 -0.0677  0.0263 -0.0790
  310loPI   C1B 4957   3.301   2.249   9.650  0.0084 -0.5102 -0.0076
  310loPI   C2B 4958   3.174   2.530   9.395  0.0994 -0.0318 -0.0657
  310loPI   C3B 4959   3.180   2.941   9.499  0.2013 -0.1771 -0.0318
  310loPI   C4B 4960   3.400   3.349   9.606  0.1291  0.0578 -0.5242
  311loPI    C1 4961  15.122  10.239  11.040 -0.0934 -0.0826 -0.0625
  311loPI    C2 4962  15.297  10.474  11.312  0.0408  0.0243 -0.2389
  311loPI    C3 4963  14.898  10.454  11.293  0.0288  0.1987 -0.1887
  311loPI   PO4 4964  15.238  10.235  10.734 -0.0176 -0.1392 -0.0134
  311loPI   GL1 4965  14.966  10.243  10.327  0.1533  0.2852 -0.0495
  311loPI   GL2 4966  15.295  10.171  10.266  0.0304 -0.0602 -0.0145
  311loPI   C1A 4967  14.774  10.333   9.963 -0.0746  0.3839 -0.2651
  311loPI   C2A 4968  14.533  10.279   9.593  0.4715 -0.1732  0.0152
  311loPI   C3A 4969  14.161  10.261   9.351  0.1642 -0.1587 -0.0778
  311loPI   C4A 4970  13.657  10.151   9.262  0.1863 -0.1671  0.3827
  311loPI   C5A 4971  13.281  10.170   9.051  0.0260  0.0136 -0.1879
  311loPI   C6A 4972  12.810  10.183   8.993 -0.1864  0.3003 -0.0394
  311loPI   C1B 4973  15.190   9.915   9.971  0.0622  0.1051  0.1948
  311loPI   C2B 4974  15.039  10.030   9.591  0.2183 -0.0420  0.0009
  311loPI   C3B 4975  14.830  10.170   9.182  0.2112  0.0060  0.2047
  311loPI   C4B 4976  14.687  10.110   8.651  0.0146 -0.0464 -0.0215
  312loPI    C1 4977   4.512   3.828  10.276  0.0264  0.0518 -0.1024
  312loPI    C2 4978   4.175   3.810  10.061 -0.0193 -0.0652 -0.0219
  312loPI    C3 4979   4.157   3.818  10.461  0.0752 -0.1300 -0.0161
  312loPI   PO4 4980   4.628   3.639  10.174 -0.0021  0.0843  0.1544
  312loPI   GL1 4981   4.635   3.702   9.791 -0.2000  0.0661 -0.0152
  312loPI   GL2 4982   4.923   3.520   9.761 -0.1909  0.1645  0.1011
  312loPI   C1A 4983   4.705   3.741   9.391 -0.1252 -0.0731  0.1438
  312loPI   C2A 4984   4.546   3.761   8.849 -0.5503  0.0626 -0.0166
  312loPI   C3A 4985   4.221   3.979   8.509  0.0545 -0.1875  0.1926
  312loPI   C4A 4986   4.112   3.840   8.126  0.3004 -0.3879 -0.0009
  312loPI   C5A 4987   4.000   3.652   7.844 -0.1720  0.0820 -0.0065
  312loPI   C6A 4988   4.173   3.305   7.704 -0.0512 -0.2228 -0.3483
  312loPI   C1B 4989   4.900   3.276   9.341  0.2234 -0.0417  0.1320
  312loPI   C2B 4990   4.796   3.333   8.959 -0.0584  0.1543  0.3165
  312loPI   C3B 4991   4.797   3.329   8.486 -0.0087 -0.3610  0.1080
  312loPI   C4B 4992   4.503   3.247   8.075  0.1337 -0.1596 -0.1392
  313loPI    C1 4993  16.215   1.637  10.644 -0.1858 -0.1301 -0.1185
  313loPI    C2 4994  15.947   1.414  10.840 -0.1223 -0.1546 -0.0591
  313loPI    C3 4995  15.856   1.788  10.732 -0.1017 -0.0854  0.1580
  313loPI   PO4 4996  16.294   1.558  10.498  0.3549 -0.1177  0.0136
  313loPI   GL1 4997  16.118   1.602  10.103  0.0864  0.0173  0.0135
  313loPI   GL2 4998  15.915   1.252   9.959 -0.1898  0.2349  0.2511
  313loPI   C1A 4999  15.754   1.783   9.781  0.2961  0.1130 -0.0321
  313loPI   C2A 5000  15.743   1.918   9.341  0.3048 -0.1316 -0.1900
  313loPI   C3A 5001  15.895   1.999   8.886  0.1079 -0.1104  0.0229
  313loPI   C4A 5002  15.865   2.047   8.439 -0.2157 -0.0388  0.4484
  313loPI   C5A 5003  15.733   2.254   8.156  0.0148  0.0240  0.2014
  313loPI   C6A 5004  15.395   2.498   8.018 -0.1491 -0.0621 -0.2165
  313loPI   C1B 5005  15.824   1.345   9.510 -0.1133 -0.2811  0.1788
  313loPI   C2B 5006  15.753   1.501   9.052 -0.0600  0.0381 -0.2252
  313loPI   C3B 5007  15.709   1.555   8.638  0.0955  0.2909  0.3551
  313loPI   C4B 5008  15.644   1.516   8.332  0.0783  0.2728  0.3578
  314loPI    C1 5009   7.656  15.688  10.862 -0.0142  0.0552 -0.1846
  314loPI    C2 5010   7.544  15.461  10.553 -0.0854 -0.2487  0.0586
  314loPI    C3 5011   7.292  15.522  10.857  0.0577 -0.1214  0.1529
  314loPI   PO4 5012   7.761  15.855  10.792  0.0770 -0.1460  0.2277
  314loPI   GL1 5013   7.954  16.042  10.374  0.4078 -0.0470 -0.1733
  314loPI   GL2 5014   7.863  15.810  10.307  0.0765 -0.0503  0.0728
  314loPI   C1A 5015   7.969  16.416  10.015  0.3834  0.1983  0.2577
  314loPI   C2A 5016   8.049  16.580   9.584  0.2692 -0.2086  0.1014
  314loPI   C3A 5017   8.136  16.476   9.189 -0.2502 -0.2515 -0.2872
  314loPI   C4A 5018   8.010  16.319   8.983  0.1821 -0.1000 -0.0113
  314loPI   C5A 5019   8.058  16.097   8.605  0.2492 -0.3260  0.0909
  314loPI   C6A 5020   8.070  15.889   8.212  0.1197 -0.0277  0.0751
  314loPI   C1B 5021   7.906  15.672   9.918 -0.0449 -0.0313  0.2385
  314loPI   C2B 5022   7.930  15.542   9.491 -0.0230 -0.1452 -0.0745
  314loPI   C3B 5023   7.849  15.459   9.102  0.1332  0.1902 -0.2273
  314loPI   C4B 5024   7.543  15.388   8.805 -0.0817  0.1335 -0.0607
  315loPI    C1 5025  12.571   5.590  10.150  0.1368  0.1628 -0.3294
  315loPI    C2 5026  12.815   5.841  10.342  0.1585 -0.0774 -0.0357
  315loPI    C3 5027  12.529   5.646  10.543 -0.1721  0.0741 -0.3466
  315loPI   PO4 5028  12.783   5.435  10.041  0.0125 -0.0092  0.1284
  315loPI   GL1 5029  12.929   5.301   9.745 -0.2660  0.1208  0.0503
  315loPI   GL2 5030  13.188   5.578   9.724  0.0197  0.3050  0.1849
  315loPI   C1A 5031  13.112   5.086   9.441  0.1286  0.1601  0.1711
  315loPI   C2A 5032  12.989   5.072   9.002  0.2176  0.0286 -0.1156
  315loPI   C3A 5033  12.834   5.327   8.773  0.3546  0.0134 -0.2225
  315loPI   C4A 5034  12.821   5.617   8.458 -0.0075 -0.0256 -0.3012
  315loPI   C5A 5035  12.280   5.841   8.411  0.1909 -0.1111 -0.5063
  315loPI   C6A 5036  11.899   5.988   8.177 -0.1377  0.1252 -0.0174
  315loPI   C1B 5037  13.143   5.580   9.286 -0.0811  0.0201  0.1218
  315loPI   C2B 5038  13.036   5.803   8.875 -0.2443  0.0794  0.2071
  315loPI   C3B 5039  13.138   6.105   8.505 -0.1334  0.0016 -0.0266
  315loPI   C4B 5040  13.202   6.228   8.152  0.1169 -0.3772 -0.1262
  316loPI    C1 5041   1.952   6.410  10.398  0.1701 -0.2781  0.2316
  316loPI    C2 5042   1.670   6.148  10.506  0.0201 -0.1395  0.1795
  316loPI    C3 5043   1.663   6.520  10.651  0.1547 -0.1241  0.1477
  316loPI   PO4 5044   1.978   6.301  10.045  0.2869  0.4807 -0.1107
  316loPI   GL1 5045   1.831   6.518   9.672  0.0129  0.1048 -0.1005
  316loPI   GL2 5046   1.564   6.244   9.696  0.1284 -0.1556  0.1314
  316loPI   C1A 5047   1.709   6.403   9.206  0.4790  0.1302  0.1351
  316loPI   C2A 5048   1.618   6.363   8.820 -0.3592  0.2562  0.1492
  316loPI   C3A 5049   1.673   6.217   8.429  0.1030  0.0984  0.1889
  316loPI   C4A 5050   1.933   6.287   8.048 -0.1392 -0.0601 -0.1013
  316loPI   C5A 5051   2.103   6.405   7.657  0.0177 -0.1309 -0.2558
  316loPI   C6A 5052   2.388   6.657   7.391 -0.1010 -0.0401  0.0262
  316loPI   C1B 5053   1.187   6.300   9.299  0.2622  0.0110  0.1544
  316loPI   C2B 5054   1.032   6.288   8.835  0.0363 -0.0948  0.3107
  316loPI   C3B 5055   1.221   6.268   8.480  0.0569 -0.3436 -0.1227
  316loPI   C4B 5056   1.471   6.497   8.120  0.2175 -0.4188  0.1812
  317loPI    C1 5057   0.092   3.976  10.471 -0.0100  0.1772 -0.3332
  317loPI    C2 5058  -0.088   4.299  10.626 -0.0620 -0.1107  0.2356
  317loPI    C3 5059   0.309   4.256  10.658 -0.0502 -0.0888  0.1261
  317loPI   PO4 5060  -0.030   3.948  10.248  0.2672  0.1520  0.3309
  317loPI   GL1 5061  -0.273   3.918   9.844  0.1259  0.1473 -0.0398
  317loPI   GL2 5062  -0.431   3.550   9.927  0.1672 -0.1184  0.0895
  317loPI   C1A 5063  -0.193   4.072   9.450  0.0822 -0.2573  0.0350
  317loPI   C2A 5064  -0.084   4.002   9.082 -0.1574 -0.2002  0.0783
  317loPI   C3A 5065   0.122   3.856   8.744 -0.0835  0.0263  0.0120
  317loPI   C4A 5066   0.087   3.715   8.411  0.0107 -0.2067 -0.1617
  317loPI   C5A 5067  -0.061   3.439   8.079 -0.0149  0.1277 -0.1143
  317loPI   C6A 5068  -0.084   2.953   8.049 -0.0415  0.1374 -0.1322
  317loPI   C1B 5069  -0.638   3.618   9.571  0.0933 -0.1738  0.0925
  317loPI   C2B 5070  -0.650   3.902   9.314 -0.0066 -0.0280  0.0169
  317loPI   C3B 5071  -0.608   3.999   8.960 -0.4727  0.0215 -0.1583
  317loPI   C4B 5072  -0.413   3.940   8.466  0.1997  0.1174  0.0841
  318loPI    C1 5073   5.668  11.411  10.400  0.1345 -0.2047 -0.1382
  318loPI    C2 5074   5.453  11.104  10.542  0.0976 -0.1162 -0.0004
  318loPI    C3 5075   5.694  11.309  10.786 -0.0452  0.1039 -0.0412
  318loPI   PO4 5076   5.727  11.305  10.098  0.1921 -0.1787 -0.1419
  318loPI   GL1 5077   5.872  11.091   9.732 -0.1103 -0.1737 -0.0013
  318loPI   GL2 5078   6.168  11.174   9.990 -0.1712  0.2071  0.4095
  318loPI   C1A 5079   6.133  11.200   9.364 -0.2620  0.0114  0.0183
  318loPI   C2A 5080   6.131  11.146   8.957  0.1609 -0.0491  0.1111
  318loPI   C3A 5081   6.187  11.015   8.470  0.1695  0.0913 -0.1232
  318loPI   C4A 5082   6.273  10.587   8.211  0.2172  0.3222 -0.0470
  318loPI   C5A 5083   6.557  10.338   7.979 -0.3251  0.0231  0.0432
  318loPI   C6A 5084   6.939  10.066   7.890 -0.3804 -0.0693  0.0211
  318loPI   C1B 5085   6.169  11.545   9.702 -0.0074  0.1664  0.0341
  318loPI   C2B 5086   6.157  11.690   9.410 -0.0643 -0.0947  0.0196
  318loPI   C3B 5087   6.210  11.786   8.946 -0.2223  0.0041  0.1153
  318loPI   C4B 5088   6.032  11.587   8.647  0.0607  0.0787  0.0309
  319loPI    C1 5089   2.565   0.576  10.529  0.0009 -0.0095  0.0818
  319loPI    C2 5090   2.336   0.853  10.706 -0.1379  0.0354 -0.1641
  319loPI    C3 5091   2.324   0.474  10.831  0.0233  0.1302  0.1481
  319loPI   PO4 5092   2.858   0.579  10.390  0.0213  0.1570 -0.0102
  319loPI   GL1 5093   2.990   0.667   9.947  0.0832  0.0514  0.1117
  319loPI   GL2 5094   2.797   0.416   9.656 -0.2868  0.1099 -0.1262
  319loPI   C1A 5095   3.152   0.769   9.627 -0.0751  0.1478  0.0884
  319loPI   C2A 5096   3.102   0.984   9.213 -0.3094 -0.0902  0.0181
  319loPI   C3A 5097   3.041   1.067   8.736 -0.2936 -0.0326  0.0838
  319loPI   C4A 5098   3.059   1.105   8.259  0.1086 -0.1570  0.0567
  319loPI   C5A 5099   3.041   1.110   7.813 -0.1495  0.2865  0.1902
  319loPI   C6A 5100   3.251   0.943   7.458  0.1346 -0.0006 -0.0810
  319loPI   C1B 5101   2.775   0.591   9.310  0.0226 -0.4276 -0.1100
  319loPI   C2B 5102   2.682   0.785   8.941  0.0315 -0.3503 -0.1479
  319loPI   C3B 5103   2.314   0.922   8.755  0.0702  0.1519  0.0475
  319loPI   C4B 5104   1.907   1.024   9.025 -0.5861  0.1379 -0.2606
  320loPI    C1 5105   8.781   2.628  10.727 -0.1246 -0.0985  0.1994
  320loPI    C2 5106   8.562   2.321  10.862 -0.3214  0.0677  0.2651
  320loPI    C3 5107   8.711   2.588  11.119 -0.1479  0.0273  0.2084
  320loPI   PO4 5108   8.640   2.768  10.522 -0.0184  0.0784  0.0522
  320loPI   GL1 5109   8.661   2.766  10.118 -0.2288  0.4703  0.0850
  320loPI   GL2 5110   9.065   2.796  10.266  0.0999  0.3160 -0.0155
  320loPI   C1A 5111   8.487   2.479   9.813  0.0821  0.0663  0.0110
  320loPI   C2A 5112   8.473   2.235   9.488 -0.0760  0.0756  0.7958
  320loPI   C3A 5113   8.433   1.977   9.014 -0.0893  0.2182 -0.1518
  320loPI   C4A 5114   8.179   1.884   8.598 -0.0714  0.0875 -0.1797
  320loPI   C5A 5115   8.236   1.649   8.262  0.1954 -0.6161  0.2047
  320loPI   C6A 5116   7.872   1.588   7.964 -0.1269  0.0268  0.0614
  320loPI   C1B 5117   9.161   2.618   9.918  0.3554 -0.3671  0.1653
  320loPI   C2B 5118   8.934   2.496   9.576  0.2070  0.2046  0.2565
  320loPI   C3B 5119   8.883   2.323   9.127 -0.1135  0.1323  0.1137
  320loPI   C4B 5120   8.983   2.105   8.733  0.3435  0.0675 -0.1383
  321loPI    C1 5121   2.430  16.921  10.204  0.1265  0.0542 -0.2297
  321loPI    C2 5122   2.799  16.780  10.267  0.1317  0.0288 -0.3153
  321loPI    C3 5123   2.673  17.107  10.461  0.1253 -0.0829 -0.1281
  321loPI   PO4 5124   2.437  16.879   9.900 -0.3501  0.0305  0.0821
  321loPI   GL1 5125   2.408  16.750   9.567  0.2404  0.1300 -0.1791
  321loPI   GL2 5126   2.096  16.738   9.561  0.1920 -0.2351 -0.0273
  321loPI   C1A 5127   2.348  17.101   9.296 -0.1183 -0.1931  0.2492
  321loPI   C2A 5128   2.317  17.022   8.924  0.0145 -0.3396  0.1366
  321loPI   C3A 5129   2.400  16.948   8.459 -0.4748  0.1737  0.3167
  321loPI   C4A 5130   2.459  17.148   8.050 -0.1259  0.2373 -0.2020
  321loPI   C5A 5131   2.724  17.407   7.894  0.3348 -0.0418  0.1405
  321loPI   C6A 5132   2.984  17.670   7.628 -0.2078  0.0395  0.0845
  321loPI   C1B 5133   2.222  16.569   9.134 -0.1165 -0.2378 -0.2136
  321loPI   C2B 5134   2.161  16.537   8.715 -0.2419 -0.3175 -0.3178
  321loPI   C3B 5135   2.159  16.569   8.142 -0.0000  0.2374 -0.3521
  321loPI   C4B 5136   1.836  16.548   7.836 -0.1115 -0.1992 -0.1141
  322loPI    C1 5137  14.841  16.886  10.841  0.1859  0.0888  0.2963
  322loPI    C2 5138  14.621  16.555  10.789  0.2970  0.0702 -0.0909
  322loPI    C3 5139  14.575  16.777  11.119 -0.0480 -0.1245 -0.0029
  322loPI   PO4 5140  15.074  16.774  10.727 -0.0483  0.0233  0.1780
  322loPI   GL1 5141  15.185  16.668  10.340 -0.3323 -0.0532 -0.0617
  322loPI   GL2 5142  15.268  16.420  10.440  0.2784  0.0343 -0.2801
  322loPI   C1A 5143  14.938  16.544   9.959 -0.0572  0.3376  0.1359
  322loPI   C2A 5144  14.649  16.448   9.618 -0.1376  0.1558  0.2532
  322loPI   C3A 5145  14.561  16.234   9.252 -0.1033 -0.3498 -0.2682
  322loPI   C4A 5146  14.346  16.185   8.812 -0.2710 -0.1588 -0.0408
  322loPI   C5A 5147  14.419  15.898   8.490  0.3385 -0.2516 -0.1310
  322loPI   C6A 5148  14.316  15.733   8.135  0.0660 -0.1723  0.2283
  322loPI   C1B 5149  15.118  16.181  10.244  0.0787 -0.0047  0.1040
  322loPI   C2B 5150  14.898  16.027   9.865  0.1770  0.0477 -0.0150
  322loPI   C3B 5151  14.844  15.795   9.511 -0.1882  0.1543 -0.0453
  322loPI   C4B 5152  14.959  15.417   9.183 -0.1008  0.0395  0.0331
  323loPI    C1 5153   1.975   7.670  10.491 -0.0441  0.1541  0.2378
  323loPI    C2 5154   2.193   7.360  10.619  0.0084  0.0462 -0.1031
  323loPI    C3 5155   2.284   7.731  10.738  0.0434 -0.0508  0.1805
  323loPI   PO4 5156   1.968   7.704  10.193  0.0628  0.0646  0.3090
  323loPI   GL1 5157   1.941   7.611   9.776 -0.1694  0.1208 -0.1292
  323loPI   GL2 5158   2.325   7.563   9.705  0.0107  0.4755  0.4029
  323loPI   C1A 5159   1.825   7.575   9.459 -0.1797 -0.0523 -0.0974
  323loPI   C2A 5160   1.741   7.593   9.036 -0.3008 -0.1961  0.0766
  323loPI   C3A 5161   1.922   7.722   8.634  0.1667 -0.0115 -0.2100
  323loPI   C4A 5162   1.790   7.924   8.230  0.1028  0.0136 -0.2518
  323loPI   C5A 5163   1.711   8.328   8.112 -0.2214 -0.1446 -0.0002
  323loPI   C6A 5164   2.042   8.653   7.827 -0.0742  0.1551  0.2706
  323loPI   C1B 5165   2.388   7.469   9.228  0.3995 -0.1500  0.0050
  323loPI   C2B 5166   2.520   7.690   8.823 -0.1524  0.0420 -0.2389
  323loPI   C3B 5167   2.546   7.514   8.419 -0.0225  0.1494  0.0135
  323loPI   C4B 5168   2.717   7.135   8.301 -0.1630  0.0319  0.2299
  324loPI    C1 5169   7.713   8.973  10.436  0.0806 -0.0232  0.0443
  324loPI    C2 5170   8.074   8.863  10.567  0.1615  0.0304 -0.1306
  324loPI    C3 5171   7.857   9.126  10.776  0.2020 -0.0397  0.0006
  324loPI   PO4 5172   7.907   8.971  10.071  0.1503 -0.0461  0.3034
  324loPI   GL1 5173   7.891   8.947   9.608  0.0809 -0.0214  0.0832
  324loPI   GL2 5174   8.234   9.116   9.616 -0.2950 -0.0696  0.0107
  324loPI   C1A 5175   8.011   9.136   9.159  0.0538 -0.1201 -0.1002
  324loPI   C2A 5176   8.102   9.121   8.707 -0.0841 -0.2160 -0.2513
  324loPI   C3A 5177   7.918   9.166   8.306  0.1754 -0.0535 -0.0431
  324loPI   C4A 5178   7.729   8.990   7.945 -0.3892 -0.0055  0.2476
  324loPI   C5A 5179   7.714   9.349   7.655  0.0670 -0.1536  0.1102
  324loPI   C6A 5180   7.759   9.663   7.618  0.1322  0.1663 -0.2968
  324loPI   C1B 5181   8.503   9.281   9.310 -0.1671 -0.1670  0.1882
  324loPI   C2B 5182   8.554   9.164   8.974  0.0246  0.3784 -0.0096
  324loPI   C3B 5183   8.576   9.394   8.629 -0.1259  0.0862  0.0784
  324loPI   C4B 5184   8.588   9.500   8.221 -0.0611  0.1149  0.2706
  325loPI    C1 5185   7.188  13.022  10.467 -0.3125 -0.0342  0.1892
  325loPI    C2 5186   7.145  13.247  10.795  0.0922  0.2080  0.0834
  325loPI    C3 5187   7.003  13.376  10.444 -0.1134  0.0664  0.1124
  325loPI   PO4 5188   7.461  13.056  10.406 -0.1404 -0.3241  0.1578
  325loPI   GL1 5189   7.663  13.241  10.112  0.1213 -0.0692 -0.0484
  325loPI   GL2 5190   8.021  13.302  10.241 -0.1568 -0.0237 -0.1778
  325loPI   C1A 5191   7.509  13.103   9.671 -0.0450 -0.0669  0.0335
  325loPI   C2A 5192   7.477  13.200   9.263  0.0173 -0.1198 -0.2127
  325loPI   C3A 5193   7.396  13.325   8.821 -0.0650  0.0788  0.2734
  325loPI   C4A 5194   7.204  13.425   8.448 -0.0686  0.2179  0.3469
  325loPI   C5A 5195   7.041  13.370   8.092 -0.1344 -0.0078 -0.5658
  325loPI   C6A 5196   6.805  12.980   7.984 -0.0029 -0.0121  0.1831
  325loPI   C1B 5197   8.235  13.303   9.804  0.1107  0.2311 -0.0814
  325loPI   C2B 5198   8.389  13.423   9.404 -0.3356  0.0531  0.0920
  325loPI   C3B 5199   8.437  13.392   8.977  0.0922  0.5733  0.2157
  325loPI   C4B 5200   8.569  13.230   8.682 -0.1965 -0.0811 -0.2370
  326loPI    C1 5201   4.576   8.907  10.399  0.2427  0.0386  0.1606
  326loPI    C2 5202   4.535   8.673  10.721 -0.0496 -0.0466  0.0641
  326loPI    C3 5203   4.264   8.658  10.427  0.1482  0.1212 -0.1296
  326loPI   PO4 5204   4.778   8.890  10.294 -0.0492 -0.0468  0.0249
  326loPI   GL1 5205   4.911   8.815   9.849 -0.0746 -0.0492  0.0446
  326loPI   GL2 5206   5.135   8.933   9.674 -0.4034  0.1481 -0.2188
  326loPI   C1A 5207   4.695   8.602   9.463 -0.1680  0.0845 -0.0633
  326loPI   C2A 5208   4.724   8.559   9.008 -0.1802  0.0603  0.0791
  326loPI   C3A 5209   4.806   8.484   8.595  0.0952  0.2077  0.1043
  326loPI   C4A 5210   4.648   8.349   8.249 -0.1902  0.0770  0.1131
  326loPI   C5A 5211   4.689   8.045   7.875  0.1865  0.2289  0.1968
  326loPI   C6A 5212   4.896   7.859   7.613 -0.1541 -0.1884  0.1217
  326loPI   C1B 5213   5.114   8.874   9.219  0.4955  0.1588  0.0285
  326loPI   C2B 5214   5.283   8.868   8.689  0.0782 -0.0267  0.2475
  326loPI   C3B 5215   5.104   8.739   8.286 -0.1033  0.2456  0.0671
  326loPI   C4B 5216   5.114   8.457   8.019  0.0385 -0.0881  0.1641
  327loPI    C1 5217  11.879  11.473  10.904 -0.1522  0.1962  0.0847
  327loPI    C2 5218  11.963  11.767  11.161  0.2499  0.1359  0.0284
  327loPI    C3 5219  12.242  11.494  11.072 -0.0221 -0.0881 -0.1511
  327loPI   PO4 5220  11.865  11.536  10.713  0.1622 -0.1224  0.0345
  327loPI   GL1 5221  12.030  11.387  10.284 -0.3229  0.1253 -0.1563
  327loPI   GL2 5222  11.826  11.102  10.312 -0.1509  0.0746 -0.1716
  327loPI   C1A 5223  12.239  11.376   9.984 -0.2617  0.0399 -0.1827
  327loPI   C2A 5224  12.273  11.373   9.534 -0.0139  0.0484  0.0764
  327loPI   C3A 5225  12.289  11.373   9.002  0.0873 -0.0266 -0.3140
  327loPI   C4A 5226  12.057  11.317   8.535  0.0035  0.0849 -0.0361
  327loPI   C5A 5227  11.950  11.407   8.147 -0.1777 -0.2371  0.1251
  327loPI   C6A 5228  11.960  11.255   7.803  0.0113  0.0523 -0.2167
  327loPI   C1B 5229  11.805  11.036   9.920 -0.2199 -0.0185  0.2480
  327loPI   C2B 5230  11.704  10.909   9.487  0.0152  0.1548  0.2816
  327loPI   C3B 5231  11.703  10.940   9.093 -0.0616 -0.2542  0.0025
  327loPI   C4B 5232  11.600  11.303   8.814 -0.3685 -0.2317  0.1787
  328loPI    C1 5233   2.303   5.905  10.127 -0.1469 -0.2638  0.0520
  328loPI    C2 5234   2.656   5.956  10.309 -0.1227 -0.1983 -0.0126
  328loPI    C3 5235   2.316   5.993  10.517 -0.1025  0.1222 -0.0328
  328loPI   PO4 5236   2.383   6.075   9.848 -0.1465 -0.1240  0.0913
  328loPI   GL1 5237   2.233   6.161   9.485  0.1460 -0.2250 -0.1656
  328loPI   GL2 5238   1.912   6.011   9.453 -0.2349 -0.0287  0.0648
  328loPI   C1A 5239   2.207   6.526   9.309  0.3665  0.2433 -0.3687
  328loPI   C2A 5240   2.282   6.489   8.938  0.2594  0.2539  0.1013
  328loPI   C3A 5241   2.157   6.417   8.629 -0.0739 -0.3727 -0.3870
  328loPI   C4A 5242   2.324   6.530   8.290 -0.1295 -0.0225  0.0757
  328loPI   C5A 5243   2.469   6.649   7.901  0.0273  0.1210 -0.2723
  328loPI   C6A 5244   2.809   6.648   7.624 -0.0802 -0.0520  0.0337
  328loPI   C1B 5245   2.087   5.906   9.037 -0.2964 -0.0627  0.0685
  328loPI   C2B 5246   2.156   5.868   8.634  0.2382 -0.0938 -0.0976
  328loPI   C3B 5247   1.943   5.833   8.221 -0.0059  0.0240  0.1828
  328loPI   C4B 5248   2.104   5.878   7.745 -0.1171  0.1315 -0.0405
  329loPI    C1 5249  11.864   8.776  10.684  0.1786  0.0583 -0.2117
  329loPI    C2 5250  11.475   8.844  10.748  0.1859 -0.0165 -0.0843
  329loPI    C3 5251  11.656   8.536  10.928  0.3212  0.0616 -0.0851
  329loPI   PO4 5252  11.912   8.786  10.414 -0.0514  0.2680 -0.0544
  329loPI   GL1 5253  11.631   8.896  10.107  0.1276  0.0337 -0.1637
  329loPI   GL2 5254  11.384   8.720   9.930 -0.0558 -0.1648  0.1004
  329loPI   C1A 5255  11.815   8.759   9.619 -0.2003  0.1957  0.2039
  329loPI   C2A 5256  11.646   8.754   9.222 -0.2889  0.0890  0.2045
  329loPI   C3A 5257  11.747   8.597   8.727  0.0681  0.1418  0.0545
  329loPI   C4A 5258  11.846   8.409   8.343  0.2244  0.1318 -0.3155
  329loPI   C5A 5259  12.185   8.438   8.089 -0.2330  0.0054 -0.0956
  329loPI   C6A 5260  12.462   8.520   7.845 -0.0077  0.0961  0.3489
  329loPI   C1B 5261  11.267   8.606   9.471 -0.0886  0.1154  0.0760
  329loPI   C2B 5262  11.195   8.535   8.999  0.2547 -0.3367  0.3206
  329loPI   C3B 5263  11.258   8.635   8.580  0.4356 -0.1694  0.0598
  329loPI   C4B 5264  11.124   8.602   8.161 -0.1429 -0.4413  0.2239
  330loPI    C1 5265   0.335   4.945  10.292  0.0092  0.0580 -0.2712
  330loPI    C2 5266   0.394   5.339  10.332 -0.1410  0.0603 -0.0552
  330loPI    C3 5267   0.457   5.094  10.643 -0.1455 -0.0744 -0.1594
  330loPI   PO4 5268   0.139   5.031  10.035 -0.0647 -0.0332 -0.0958
  330loPI   GL1 5269   0.099   5.147   9.677 -0.1861  0.1023  0.4054
  330loPI   GL2 5270  -0.239   5.193   9.616  0.0151  0.1421 -0.1671
  330loPI   C1A 5271   0.084   5.070   9.237  0.2594  0.0159  0.2335
  330loPI   C2A 5272  -0.105   4.819   8.903  0.2242 -0.2414  0.1012
  330loPI   C3A 5273  -0.018   4.690   8.467 -0.1876  0.1109 -0.0897
  330loPI   C4A 5274   0.044   4.606   8.056 -0.1833  0.2303  0.1056
  330loPI   C5A 5275   0.446   4.324   7.868 -0.2005 -0.2616  0.2240
  330loPI   C6A 5276   0.418   4.076   7.563  0.1666  0.0979  0.5129
  330loPI   C1B 5277  -0.420   5.232   9.169  0.2441  0.2963 -0.0996
  330loPI   C2B 5278  -0.486   5.479   8.907  0.2847 -0.0780 -0.1605
  330loPI   C3B 5279  -0.610   5.605   8.561  0.0468 -0.0494 -0.1237
  330loPI   C4B 5280  -0.470   5.851   8.118 -0.1871 -0.2749  0.1158
  331loPI    C1 5281   0.807   0.898  10.344 -0.1302 -0.2892 -0.1608
  331loPI    C2 5282   0.515   0.744  10.570 -0.0177 -0.1490  0.0845
  331loPI    C3 5283   0.761   1.020  10.722  0.0561 -0.0460 -0.2139
  331loPI   PO4 5284   0.725   1.038  10.085  0.0098 -0.3519  0.0920
  331loPI   GL1 5285   0.556   1.253   9.730 -0.1086  0.1156 -0.2281
  331loPI   GL2 5286   0.621   1.626   9.530 -0.1766  0.2235  0.1018
  331loPI   C1A 5287   0.133   0.917   9.526  0.0388 -0.3276 -0.2755
  331loPI   C2A 5288  -0.179   0.987   9.393  0.1431 -0.1156  0.6421
  331loPI   C3A 5289  -0.417   1.079   9.035  0.1539 -0.1396 -0.0417
  331loPI   C4A 5290  -0.280   0.936   8.737  0.1418 -0.0688  0.5813
  331loPI   C5A 5291   0.001   0.690   8.563 -0.1521 -0.3195  0.1733
  331loPI   C6A 5292   0.423   0.466   8.399 -0.0335 -0.0875  0.0317
  331loPI   C1B 5293   0.221   1.580   9.302  0.0398  0.1280 -0.1616
  331loPI   C2B 5294   0.053   1.249   9.054 -0.1768  0.1661  0.1487
  331loPI   C3B 5295   0.125   1.236   8.540  0.2674  0.2323  0.1665
  331loPI   C4B 5296  -0.088   1.017   8.200  0.0861 -0.0534 -0.0637
  332loPI    C1 5297  18.180  16.118  10.282  0.1081  0.0632 -0.3557
  332loPI    C2 5298  18.446  16.060   9.989  0.2402 -0.3150 -0.1684
  332loPI    C3 5299  18.567  16.197  10.345  0.1241 -0.1322 -0.1977
  332loPI   PO4 5300  18.048  16.236  10.203  0.0587  0.1149 -0.4180
  332loPI   GL1 5301  17.890  16.323   9.900  0.0535  0.0381  0.3644
  332loPI   GL2 5302  17.809  16.075   9.786 -0.1254  0.1665 -0.0970
  332loPI   C1A 5303  17.761  16.704   9.598 -0.4218  0.2379 -0.1703
  332loPI   C2A 5304  17.828  16.723   9.154  0.0955  0.0670 -0.0187
  332loPI   C3A 5305  17.727  16.955   8.814  0.2994  0.1832  0.2578
  332loPI   C4A 5306  17.576  16.892   8.350 -0.1874  0.0633  0.0615
  332loPI   C5A 5307  17.415  16.697   7.980 -0.0134 -0.0752 -0.1806
  332loPI   C6A 5308  17.514  16.953   7.601  0.1343 -0.0481 -0.0474
  332loPI   C1B 5309  17.684  16.205   9.388  0.1014 -0.1637 -0.1408
  332loPI   C2B 5310  17.678  16.167   8.942 -0.2089  0.2999  0.2104
  332loPI   C3B 5311  17.671  15.943   8.597  0.0007 -0.1256 -0.2958
  332loPI   C4B 5312  17.489  15.769   8.222 -0.0049 -0.0646 -0.0803
  333loPI    C1 5313  18.293  17.977  10.413  0.0488  0.2803  0.1853
  333loPI    C2 5314  18.189  17.701  10.683  0.2397  0.0596  0.0371
  333loPI    C3 5315  17.961  18.025  10.630 -0.0642 -0.1377  0.1139
  333loPI   PO4 5316  18.312  17.875  10.224 -0.1175  0.0183 -0.1989
  333loPI   GL1 5317  18.400  17.658   9.999 -0.5093 -0.2354  0.0089
  333loPI   GL2 5318  18.096  17.518   9.829  0.1755 -0.0792 -0.0847
  333loPI   C1A 5319  18.584  17.957   9.635  0.0954  0.1618  0.0836
  333loPI   C2A 5320  18.600  17.904   9.214 -0.2269 -0.0810 -0.0417
  333loPI   C3A 5321  18.708  17.719   8.827 -0.2456  0.0884  0.2183
  333loPI   C4A 5322  18.821  17.676   8.312  0.1470 -0.1053 -0.1305
  333loPI   C5A 5323  19.062  17.701   7.967  0.2304  0.0199 -0.0905
  333loPI   C6A 5324  19.228  17.786   7.563  0.1824  0.4728  0.1438
  333loPI   C1B 5325  18.223  17.650   9.420  0.1712  0.0668 -0.1398
  333loPI   C2B 5326  18.436  17.378   9.111  0.0752  0.1672  0.1451
  333loPI   C3B 5327  18.590  17.220   8.785 -0.2119  0.1634 -0.0937
  333loPI   C4B 5328  18.795  17.039   8.447  0.1977  0.1003 -0.0012
  334loPI    C1 5329  10.847  16.238  10.544  0.0401  0.0567  0.3851
  334loPI    C2 5330  10.750  16.099  10.906  0.1273 -0.1752  0.3212
  334loPI    C3 5331  10.983  15.882  10.664 -0.1790 -0.1620  0.0048
  334loPI   PO4 5332  10.561  16.329  10.466 -0.0297 -0.0506  0.5940
  334loPI   GL1 5333  10.449  16.288  10.078  0.2662 -0.1522 -0.0033
  334loPI   GL2 5334  10.413  16.533   9.835  0.2424  0.2003  0.0559
  334loPI   C1A 5335  10.665  16.013   9.698 -0.0036  0.0698 -0.2000
  334loPI   C2A 5336  10.786  16.002   9.276  0.1687 -0.2135 -0.2926
  334loPI   C3A 5337  10.709  16.012   8.845 -0.3010  0.0654 -0.0867
  334loPI   C4A 5338  10.853  15.922   8.364  0.4634  0.0954 -0.1608
  334loPI   C5A 5339  11.173  15.714   8.214  0.2778 -0.2616 -0.1759
  334loPI   C6A 5340  11.561  15.600   8.279 -0.2222 -0.0315  0.3455
  334loPI   C1B 5341  10.464  16.431   9.386 -0.0476  0.1765  0.0774
  334loPI   C2B 5342  10.535  16.417   8.948  0.1149 -0.1168 -0.0572
  334loPI   C3B 5343  10.567  16.555   8.591  0.0724 -0.2864  0.1182
  334loPI   C4B 5344  10.718  16.618   8.184  0.2089 -0.5606  0.1112
  335loPI    C1 5345  13.516  11.693  10.927  0.3098 -0.0059  0.0938
  335loPI    C2 5346  13.586  11.393  11.183 -0.1340  0.0408  0.2783
  335loPI    C3 5347  13.429  11.737  11.314 -0.0189  0.2038 -0.0002
  335loPI   PO4 5348  13.384  11.544  10.742  0.2068  0.0298 -0.0102
  335loPI   GL1 5349  13.490  11.548  10.331 -0.1390  0.1506  0.2194
  335loPI   GL2 5350  13.309  11.694  10.151 -0.1296  0.3648 -0.0853
  335loPI   C1A 5351  13.760  11.497   9.938 -0.1465 -0.0995  0.3716
  335loPI   C2A 5352  13.731  11.342   9.492  0.1819  0.2868  0.0582
  335loPI   C3A 5353  13.715  11.074   9.097 -0.3478  0.2132 -0.1603
  335loPI   C4A 5354  14.001  10.852   8.796 -0.0419 -0.2875 -0.0743
  335loPI   C5A 5355  14.037  10.626   8.405  0.0186 -0.3003 -0.0779
  335loPI   C6A 5356  14.356  10.328   8.301  0.2227 -0.0460  0.1071
  335loPI   C1B 5357  13.277  11.782   9.771  0.0986 -0.1835  0.1504
  335loPI   C2B 5358  13.368  11.669   9.401  0.0955  0.1607 -0.2218
  335loPI   C3B 5359  13.524  11.630   8.981  0.0448  0.0179 -0.2896
  335loPI   C4B 5360  13.688  11.836   8.650 -0.0567 -0.1629 -0.2561
  336loPI    C1 5361  17.959  13.377  10.169  0.0450  0.3854  0.0797
  336loPI    C2 5362  17.673  13.269  10.427 -0.0676 -0.1090 -0.2361
  336loPI    C3 5363  18.055  13.284  10.546 -0.1617  0.0612  0.0568
  336loPI   PO4 5364  17.877  13.576   9.964  0.2680  0.1290  0.1804
  336loPI   GL1 5365  17.790  13.566   9.535  0.0829  0.1240 -0.1115
  336loPI   GL2 5366  17.578  13.631   9.322 -0.0024  0.0369  0.1277
  336loPI   C1A 5367  18.027  13.862   9.237  0.0349  0.1648 -0.3541
  336loPI   C2A 5368  17.997  13.943   8.810  0.0527 -0.2976  0.0861
  336loPI   C3A 5369  18.161  14.086   8.399  0.2069 -0.0615 -0.2499
  336loPI   C4A 5370  18.493  14.314   8.220  0.0524 -0.0653 -0.1052
  336loPI   C5A 5371  18.631  14.678   7.963 -0.3507  0.0969  0.1578
  336loPI   C6A 5372  18.450  14.842   7.672 -0.0685 -0.1231  0.0247
  336loPI   C1B 5373  17.533  13.742   8.879  0.2924 -0.2927  0.0893
  336loPI   C2B 5374  17.550  13.971   8.477  0.0394 -0.2576 -0.0210
  336loPI   C3B 5375  17.368  14.189   8.190  0.1200  0.0388 -0.0538
  336loPI   C4B 5376  17.581  14.434   7.920  0.1395 -0.1747  0.2138
  337loPI    C1 5377  14.792   4.169  10.172 -0.2820 -0.1612 -0.0020
  337loPI    C2 5378  15.029   4.242  10.486 -0.3102 -0.2263  0.0345
  337loPI    C3 5379  14.656   4.386  10.479 -0.1143  0.2954 -0.2398
  337loPI   PO4 5380  14.978   4.092   9.947 -0.0790 -0.2184  0.1204
  337loPI   GL1 5381  15.085   4.239   9.635 -0.2580 -0.0852 -0.2495
  337loPI   GL2 5382  14.976   4.521   9.464 -0.1683  0.3897 -0.2212
  337loPI   C1A 5383  15.019   3.969   9.249 -0.1968  0.2168  0.3362
  337loPI   C2A 5384  15.081   3.934   8.746  0.0465  0.0802  0.1944
  337loPI   C3A 5385  15.022   3.882   8.292  0.0591 -0.1804  0.2716
  337loPI   C4A 5386  14.708   3.613   8.019 -0.0620  0.1792  0.1525
  337loPI   C5A 5387  14.406   3.782   7.736 -0.1563 -0.2744 -0.0920
  337loPI   C6A 5388  14.153   4.238   7.812 -0.3116  0.1626 -0.0110
  337loPI   C1B 5389  14.508   4.425   9.274 -0.1724  0.1089 -0.1699
  337loPI   C2B 5390  14.346   4.347   8.882 -0.1022 -0.0761 -0.2788
  337loPI   C3B 5391  14.272   4.326   8.490 -0.1462 -0.3131  0.3475
  337loPI   C4B 5392  13.845   4.446   8.255 -0.0009 -0.0007  0.3222
  338loPI    C1 5393  17.046  18.402  10.623  0.0000 -0.2292  0.3836
  338loPI    C2 5394  16.649  18.380  10.587  0.0256 -0.2719  0.1024
  338loPI    C3 5395  16.811  18.536  10.917 -0.2289  0.0335  0.0888
  338loPI   PO4 5396  17.118  18.480  10.394  0.0382 -0.2059  0.0268
  338loPI   GL1 5397  16.821  18.565  10.148  0.1678  0.0246  0.1511
  338loPI   GL2 5398  16.565  18.326  10.089 -0.2291  0.0189  0.3273
  338loPI   C1A 5399  16.837  18.702   9.753  0.1429  0.3116  0.1888
  338loPI   C2A 5400  16.872  18.933   9.425 -0.3026  0.2314  0.2059
  338loPI   C3A 5401  16.975  18.878   8.996 -0.1235  0.2965  0.3285
  338loPI   C4A 5402  16.961  18.961   8.492  0.2505  0.1095 -0.0085
  338loPI   C5A 5403  16.669  18.800   8.307  0.3223 -0.0419  0.3666
  338loPI   C6A 5404  16.641  18.390   8.041  0.1073 -0.1373 -0.2622
  338loPI   C1B 5405  16.580  18.282   9.622 -0.1572  0.0913 -0.2602
  338loPI   C2B 5406  16.608  18.497   9.212 -0.1490  0.1164 -0.0805
  338loPI   C3B 5407  16.664  18.522   8.876 -0.0941  0.2070 -0.1263
  338loPI   C4B 5408  16.923  18.359   8.511  0.0851  0.1190 -0.1981
  339loPI    C1 5409  18.275   8.441  10.269 -0.0073  0.2454  0.0883
  339loPI    C2 5410  18.539   8.580  10.536  0.2103  0.1318 -0.0648
  339loPI    C3 5411  18.486   8.186  10.494 -0.0940  0.1559  0.0688
  339loPI   PO4 5412  18.318   8.521  10.108  0.1040  0.0269  0.1155
  339loPI   GL1 5413  18.462   8.594   9.671 -0.1505  0.1487  0.0370
  339loPI   GL2 5414  18.285   8.943   9.674  0.0977 -0.3064 -0.2568
  339loPI   C1A 5415  18.551   8.355   9.325  0.1469  0.3533  0.0750
  339loPI   C2A 5416  18.893   8.452   9.140  0.2162 -0.0449 -0.0182
  339loPI   C3A 5417  19.151   8.586   8.819 -0.0024  0.0687 -0.0157
  339loPI   C4A 5418  19.443   8.424   8.572 -0.0629 -0.1087  0.4599
  339loPI   C5A 5419  19.540   8.465   8.168 -0.1090 -0.0582  0.0892
  339loPI   C6A 5420  19.704   8.325   7.858  0.2842  0.1417 -0.2983
  339loPI   C1B 5421  18.276   9.044   9.240  0.1689 -0.1603  0.1370
  339loPI   C2B 5422  18.328   9.203   8.811 -0.0044 -0.0675  0.0401
  339loPI   C3B 5423  18.282   8.944   8.457  0.0701 -0.1780 -0.4706
  339loPI   C4B 5424  18.122   9.047   8.030 -0.1078 -0.3009 -0.1205
  340loPI    C1 5425   0.786  17.114  10.392  0.0885  0.1403  0.0565
  340loPI    C2 5426   0.933  17.186  10.758  0.2044 -0.0363  0.0459
  340loPI    C3 5427   1.018  17.435  10.456 -0.0184  0.1957  0.1709
  340loPI   PO4 5428   0.771  16.846  10.369  0.1290  0.0328 -0.0521
  340loPI   GL1 5429   0.812  16.733   9.935 -0.0773 -0.1099 -0.0673
  340loPI   GL2 5430   1.029  16.727   9.778  0.0100  0.0216 -0.1441
  340loPI   C1A 5431   0.464  16.952   9.733 -0.0576  0.0372  0.0271
  340loPI   C2A 5432   0.136  17.030   9.456 -0.0149  0.3028 -0.1618
  340loPI   C3A 5433  -0.153  16.876   9.057 -0.2735  0.0108  0.1825
  340loPI   C4A 5434  -0.238  16.984   8.652 -0.1372 -0.0968  0.0454
  340loPI   C5A 5435  -0.183  16.983   8.264  0.0380 -0.1329  0.2294
  340loPI   C6A 5436   0.035  17.325   8.143  0.1821 -0.0552  0.0423
  340loPI   C1B 5437   0.830  16.759   9.338  0.2558 -0.3342  0.1135
  340loPI   C2B 5438   0.689  16.777   8.841 -0.1625  0.1000 -0.0577
  340loPI   C3B 5439   0.527  16.543   8.512 -0.2762  0.0127 -0.0196
  340loPI   C4B 5440   0.538  16.429   8.083 -0.0916  0.1466 -0.0292
  341loPI    C1 5441   6.902   7.473  10.825  0.2565  0.2465  0.0320
  341loPI    C2 5442   7.061   7.770  10.610  0.0672  0.3222 -0.0056
  341loPI    C3 5443   6.968   7.829  10.995 -0.1873  0.3864 -0.0750
  341loPI   PO4 5444   6.754   7.350  10.624  0.1520  0.3705  0.0213
  341loPI   GL1 5445   6.849   7.480  10.234  0.3362 -0.0024 -0.0606
  341loPI   GL2 5446   6.999   7.655  10.075  0.0312  0.1082  0.3093
  341loPI   C1A 5447   6.760   7.281   9.858 -0.1727  0.1578 -0.3855
  341loPI   C2A 5448   6.663   7.249   9.410 -0.3228  0.2476 -0.3889
  341loPI   C3A 5449   6.609   7.235   9.026  0.2192  0.3464 -0.0637
  341loPI   C4A 5450   6.625   7.414   8.672  0.2617  0.1188  0.1350
  341loPI   C5A 5451   6.204   7.558   8.415  0.1129  0.2263 -0.0865
  341loPI   C6A 5452   5.776   7.524   8.550 -0.1344  0.0510 -0.2420
  341loPI   C1B 5453   7.096   7.618   9.699  0.1416 -0.0201  0.1245
  341loPI   C2B 5454   7.116   7.493   9.292 -0.1422  0.2433  0.0946
  341loPI   C3B 5455   7.088   7.358   8.870 -0.2393 -0.0037  0.0283
  341loPI   C4B 5456   7.074   7.568   8.437  0.3139  0.0335 -0.0685
  342loPI    C1 5457   0.485  15.823  10.309  0.1289  0.1644 -0.1261
  342loPI    C2 5458   0.432  15.546  10.592  0.1662 -0.0061 -0.2836
  342loPI    C3 5459   0.428  15.934  10.689  0.2053 -0.0629 -0.0464
  342loPI   PO4 5460   0.681  15.726  10.151  0.0650 -0.0374 -0.0621
  342loPI   GL1 5461   0.694  15.575   9.736  0.0468  0.1554  0.1171
  342loPI   GL2 5462   0.627  15.323   9.656  0.0382  0.0741  0.0977
  342loPI   C1A 5463   0.697  15.691   9.340  0.0310 -0.1036 -0.1486
  342loPI   C2A 5464   0.536  15.603   8.978 -0.1012 -0.0662  0.1163
  342loPI   C3A 5465   0.242  15.625   8.615  0.0626 -0.5101 -0.0872
  342loPI   C4A 5466   0.055  15.662   8.198 -0.0330 -0.1563 -0.0320
  342loPI   C5A 5467   0.165  15.883   7.814 -0.2347  0.1143  0.1548
  342loPI   C6A 5468   0.203  16.014   7.401 -0.1698  0.2573  0.0309
  342loPI   C1B 5469   0.202  15.415   9.371 -0.0795 -0.1657  0.0420
  342loPI   C2B 5470   0.019  15.498   8.997 -0.2528 -0.0758 -0.0333
  342loPI   C3B 5471  -0.299  15.505   8.720 -0.0403  0.0075 -0.0826
  342loPI   C4B 5472  -0.510  15.576   8.329 -0.1738  0.3378  0.0528
  343loPI    C1 5473   1.934   5.264  10.152  0.2590 -0.0613  0.0127
  343loPI    C2 5474   2.096   5.210  10.514 -0.1145  0.0483  0.2014
  343loPI    C3 5475   1.698   5.208  10.470 -0.0721 -0.0553 -0.2265
  343loPI   PO4 5476   2.119   5.446  10.028 -0.1451 -0.4000  0.4058
  343loPI   GL1 5477   2.192   5.678   9.652  0.1048 -0.2307 -0.1234
  343loPI   GL2 5478   1.925   5.489   9.578  0.2600 -0.3089  0.1183
  343loPI   C1A 5479   2.422   5.515   9.246  0.1041 -0.0698  0.0727
  343loPI   C2A 5480   2.430   5.501   8.861 -0.0553  0.0759 -0.3795
  343loPI   C3A 5481   2.558   5.504   8.495 -0.2990  0.1306  0.0555
  343loPI   C4A 5482   2.565   5.099   8.188  0.1158 -0.0377 -0.0570
  343loPI   C5A 5483   3.019   4.921   7.984 -0.1832  0.1108  0.0968
  343loPI   C6A 5484   3.373   4.890   8.064 -0.0266 -0.1528  0.0033
  343loPI   C1B 5485   1.870   5.519   9.206 -0.3317 -0.2360 -0.0372
  343loPI   C2B 5486   1.921   5.450   8.785  0.2917  0.4006  0.1008
  343loPI   C3B 5487   2.057   5.310   8.369  0.4351 -0.3129 -0.0182
  343loPI   C4B 5488   2.142   4.915   8.237  0.1499 -0.1326 -0.4219
  344loPI    C1 5489  18.006  15.339  10.560 -0.0932 -0.2094 -0.0530
  344loPI    C2 5490  18.101  14.951  10.559  0.2710 -0.1237 -0.0615
  344loPI    C3 5491  18.389  15.227  10.541  0.0126  0.1484 -0.0985
  344loPI   PO4 5492  17.831  15.353  10.407 -0.3686  0.1849  0.0630
  344loPI   GL1 5493  17.657  15.269  10.023  0.2051 -0.1660  0.0491
  344loPI   GL2 5494  17.642  14.987   9.873 -0.3375 -0.2245 -0.0570
  344loPI   C1A 5495  17.643  15.574   9.647  0.0819 -0.2134  0.1101
  344loPI   C2A 5496  17.642  15.749   9.256  0.2467 -0.2708  0.1159
  344loPI   C3A 5497  17.363  15.640   8.888 -0.0940 -0.0165 -0.1973
  344loPI   C4A 5498  17.110  15.545   8.488  0.0042 -0.1435  0.1016
  344loPI   C5A 5499  16.858  15.572   8.162  0.3399 -0.1305 -0.2305
  344loPI   C6A 5500  16.677  15.585   7.765 -0.0662 -0.0318  0.0178
  344loPI   C1B 5501  17.674  15.020   9.482  0.2536 -0.2381 -0.0092
  344loPI   C2B 5502  17.923  14.705   9.329  0.2293 -0.0320  0.0427
  344loPI   C3B 5503  18.116  14.408   9.141 -0.3339  0.0042 -0.0619
  344loPI   C4B 5504  18.304  14.421   8.750 -0.0540  0.1665 -0.3507
  345loPI    C1 5505   9.404  16.990  10.696 -0.2400  0.1099 -0.1925
  345loPI    C2 5506   9.448  16.944  11.091  0.3390 -0.0365 -0.2649
  345loPI    C3 5507   9.256  17.264  10.947 -0.0994 -0.1087  0.1361
  345loPI   PO4 5508   9.264  16.873  10.600  0.3173  0.1452 -0.2986
  345loPI   GL1 5509   8.962  16.838  10.292  0.1641 -0.1321 -0.0135
  345loPI   GL2 5510   9.273  17.007  10.105  0.0350 -0.2162 -0.1509
  345loPI   C1A 5511   8.769  16.912   9.851 -0.0685  0.0145  0.1475
  345loPI   C2A 5512   8.502  16.758   9.470 -0.1273 -0.1922 -0.0452
  345loPI   C3A 5513   8.500  16.767   9.000 -0.0077  0.1015  0.0241
  345loPI   C4A 5514   8.577  16.969   8.562 -0.0951  0.1383  0.5288
  345loPI   C5A 5515   8.850  17.326   8.450 -0.2640 -0.0189  0.0359
  345loPI   C6A 5516   9.015  17.490   8.129 -0.1505 -0.0189 -0.2150
  345loPI   C1B 5517   9.332  16.744   9.773  0.1837 -0.0188  0.0904
  345loPI   C2B 5518   9.522  16.565   9.407  0.3028 -0.1779 -0.1046
  345loPI   C3B 5519   9.585  16.197   9.054  0.2642  0.0264  0.0918
  345loPI   C4B 5520   9.779  16.369   8.668  0.1408 -0.0814 -0.1517
  346loPI    C1 5521  10.937   0.873  10.873 -0.0101 -0.1023  0.2010
  346loPI    C2 5522  10.744   0.858  11.223 -0.3026  0.0005  0.0477
  346loPI    C3 5523  10.609   1.095  10.931  0.1859  0.2457  0.0107
  346loPI   PO4 5524  10.937   0.701  10.760  0.2081 -0.1149 -0.0714
  346loPI   GL1 5525  10.830   0.454  10.362  0.1045 -0.0813  0.0232
  346loPI   GL2 5526  10.672   0.266  10.544  0.2265 -0.0676 -0.1270
  346loPI   C1A 5527  10.831   0.342   9.939 -0.1864  0.0773  0.1890
  346loPI   C2A 5528  10.989   0.469   9.552 -0.0994  0.2965 -0.0984
  346loPI   C3A 5529  10.850   0.368   9.092  0.2386 -0.3433  0.1404
  346loPI   C4A 5530  10.620   0.116   8.750 -0.1757 -0.0785 -0.0097
  346loPI   C5A 5531  10.859  -0.212   8.458  0.0427 -0.0247 -0.2134
  346loPI   C6A 5532  11.053  -0.475   8.206  0.1547  0.0583  0.0983
  346loPI   C1B 5533  10.422   0.133  10.184 -0.2691 -0.3214 -0.1126
  346loPI   C2B 5534  10.431   0.032   9.752  0.2273 -0.0125  0.2296
  346loPI   C3B 5535  10.493   0.158   9.371 -0.0203 -0.2292  0.1018
  346loPI   C4B 5536  10.216   0.382   9.138 -0.3487 -0.1553  0.1003
  347loPI    C1 5537   6.149   2.673  10.582 -0.0353 -0.2587 -0.0536
  347loPI    C2 5538   5.918   2.398  10.406  0.0923 -0.1871 -0.3393
  347loPI    C3 5539   6.285   2.301  10.530  0.0264 -0.2207 -0.1671
  347loPI   PO4 5540   6.108   2.891  10.465 -0.0814  0.0161  0.0901
  347loPI   GL1 5541   6.002   2.803  10.109 -0.2429  0.0652  0.1306
  347loPI   GL2 5542   6.228   2.570  10.084  0.0778  0.0734 -0.0513
  347loPI   C1A 5543   5.923   3.089   9.621 -0.0503 -0.0677 -0.1681
  347loPI   C2A 5544   5.869   3.131   9.142 -0.2943  0.0626  0.3008
  347loPI   C3A 5545   5.903   3.152   8.725  0.1075  0.1280 -0.1548
  347loPI   C4A 5546   5.984   3.138   8.262 -0.0844  0.2019  0.0014
  347loPI   C5A 5547   6.183   3.247   7.896 -0.0428 -0.7017  0.2867
  347loPI   C6A 5548   6.026   3.363   7.488 -0.1849  0.4093 -0.0789
  347loPI   C1B 5549   6.071   2.612   9.604 -0.2211 -0.3314  0.0044
  347loPI   C2B 5550   6.000   2.432   9.240  0.1761  0.0180 -0.1308
  347loPI   C3B 5551   6.149   2.334   8.816 -0.2225 -0.1603 -0.0151
  347loPI   C4B 5552   6.007   2.330   8.382  0.1924 -0.3599 -0.0037
  348loPI    C1 5553  13.450   2.437  10.433 -0.1362 -0.0720  0.1328
  348loPI    C2 5554  13.769   2.214  10.526 -0.1790 -0.1503  0.0927
  348loPI    C3 5555  13.654   2.510  10.769  0.0759  0.0433 -0.0182
  348loPI   PO4 5556  13.493   2.515  10.214 -0.5974 -0.1036 -0.0479
  348loPI   GL1 5557  13.720   2.496   9.896  0.1277  0.0128 -0.3509
  348loPI   GL2 5558  13.853   2.172  10.032  0.0682 -0.1121  0.0338
  348loPI   C1A 5559  13.635   2.732   9.496  0.3720 -0.1166 -0.0422
  348loPI   C2A 5560  13.532   2.688   9.026 -0.2938  0.2701 -0.0143
  348loPI   C3A 5561  13.433   2.631   8.629 -0.3789  0.1725  0.0686
  348loPI   C4A 5562  13.579   2.721   8.251 -0.0418 -0.0134 -0.1048
  348loPI   C5A 5563  13.768   2.853   7.883  0.0645  0.0022 -0.2120
  348loPI   C6A 5564  14.159   2.751   7.634  0.2864 -0.1334 -0.0393
  348loPI   C1B 5565  13.935   2.006   9.611 -0.0231 -0.1241  0.0594
  348loPI   C2B 5566  13.967   1.890   9.257 -0.0128 -0.0008  0.3088
  348loPI   C3B 5567  13.870   1.980   8.929 -0.0582  0.1936  0.1308
  348loPI   C4B 5568  13.902   2.013   8.503 -0.1658  0.1559 -0.0517
  349loPI    C1 5569   7.386  14.307  10.556 -0.0966 -0.0752 -0.1018
  349loPI    C2 5570   7.079  14.242  10.803 -0.2435  0.1378 -0.2241
  349loPI    C3 5571   7.177  14.616  10.701  0.1648  0.0824 -0.0539
  349loPI   PO4 5572   7.402  14.090  10.460  0.1112  0.1631 -0.1072
  349loPI   GL1 5573   7.293  13.943  10.038  0.2245 -0.0156 -0.0444
  349loPI   GL2 5574   7.272  13.704  10.113 -0.3537  0.0928  0.1113
  349loPI   C1A 5575   7.363  13.871   9.625 -0.0305  0.1476 -0.2511
  349loPI   C2A 5576   7.473  13.974   9.180 -0.1865  0.2359  0.2350
  349loPI   C3A 5577   7.515  13.974   8.771 -0.0736 -0.1987  0.0822
  349loPI   C4A 5578   7.542  13.776   8.472  0.1030  0.0431 -0.1674
  349loPI   C5A 5579   7.627  13.345   8.126 -0.0336 -0.0107  0.0458
  349loPI   C6A 5580   8.020  13.194   7.980  0.0059  0.2694  0.1665
  349loPI   C1B 5581   7.030  13.417   9.879 -0.1215 -0.0440 -0.0776
  349loPI   C2B 5582   7.106  13.442   9.548 -0.1930 -0.1241 -0.2969
  349loPI   C3B 5583   7.080  13.481   9.169  0.1687 -0.1243  0.0052
  349loPI   C4B 5584   6.910  13.682   8.747 -0.1485 -0.1165  0.0316
  350loPI    C1 5585  12.074  17.028  10.847 -0.0087  0.2466 -0.1858
  350loPI    C2 5586  11.700  17.134  10.940  0.0013  0.0874  0.0452
  350loPI    C3 5587  12.002  17.236  11.181  0.0551 -0.1432  0.0772
  350loPI   PO4 5588  12.068  16.807  10.800 -0.2346  0.2956  0.0758
  350loPI   GL1 5589  12.225  16.847  10.302 -0.0262  0.2752 -0.0134
  350loPI   GL2 5590  11.959  17.003  10.018 -0.0104  0.1246 -0.2316
  350loPI   C1A 5591  12.590  16.686   9.980  0.1103 -0.0241  0.0823
  350loPI   C2A 5592  12.740  16.741   9.519  0.1961 -0.3009  0.0152
  350loPI   C3A 5593  12.739  16.743   9.185  0.0048 -0.0438  0.0079
  350loPI   C4A 5594  12.851  16.622   8.743 -0.2534 -0.0511  0.1589
  350loPI   C5A 5595  12.653  16.656   8.275  0.0390 -0.1393  0.4014
  350loPI   C6A 5596  12.738  16.290   7.916 -0.2342 -0.1154 -0.0041
  350loPI   C1B 5597  11.846  17.316  10.025  0.2028 -0.3032  0.3185
  350loPI   C2B 5598  11.730  17.630   9.672 -0.2284 -0.1202 -0.1238
  350loPI   C3B 5599  11.694  17.677   9.235 -0.0180 -0.1143 -0.0028
  350loPI   C4B 5600  11.525  17.585   8.832 -0.0544 -0.0651  0.1305
  351loPI    C1 5601  13.137  12.975  10.915  0.0316  0.1414  0.0793
  351loPI    C2 5602  13.389  12.773  11.152  0.0723 -0.0825 -0.1495
  351loPI    C3 5603  13.022  12.630  11.083 -0.0325  0.1166 -0.0153
  351loPI   PO4 5604  13.184  12.989  10.633  0.2916 -0.2705 -0.0324
  351loPI   GL1 5605  13.009  12.823  10.230 -0.0566 -0.1174  0.3205
  351loPI   GL2 5606  13.318  12.867   9.946 -0.1265  0.3878 -0.1956
  351loPI   C1A 5607  12.893  12.551   9.891 -0.2607  0.1163 -0.0659
  351loPI   C2A 5608  12.937  12.660   9.451  0.0986 -0.2416 -0.0012
  351loPI   C3A 5609  12.798  12.833   9.019  0.2797 -0.0910 -0.0153
  351loPI   C4A 5610  12.793  12.920   8.527 -0.2246  0.0527  0.1238
  351loPI   C5A 5611  12.771  12.781   8.160  0.1129  0.2976 -0.0871
  351loPI   C6A 5612  12.575  12.388   7.891 -0.0343 -0.1285 -0.1465
  351loPI   C1B 5613  13.348  13.030   9.609  0.0989 -0.0671  0.0284
  351loPI   C2B 5614  13.301  13.071   9.121 -0.1393  0.3954 -0.0879
  351loPI   C3B 5615  13.091  13.254   8.757 -0.3102 -0.0744 -0.1646
  351loPI   C4B 5616  13.190  13.541   8.387  0.0057 -0.0692 -0.1431
  352loPI    C1 5617   5.793   4.476  10.587  0.0109 -0.1633  0.0196
  352loPI    C2 5618   6.039   4.490  10.901  0.1453  0.1100 -0.0940
  352loPI    C3 5619   5.755   4.768  10.858 -0.0414 -0.0765 -0.0802
  352loPI   PO4 5620   5.919   4.437  10.376 -0.0215 -0.1339 -0.0902
  352loPI   GL1 5621   5.979   4.506  10.004  0.1860 -0.2572  0.1145
  352loPI   GL2 5622   6.216   4.326   9.853  0.1054  0.2650  0.1144
  352loPI   C1A 5623   5.699   4.744   9.658  0.0957 -0.0394  0.1117
  352loPI   C2A 5624   5.800   4.738   9.241  0.2746  0.1606 -0.0920
  352loPI   C3A 5625   5.966   4.541   8.790  0.0460 -0.1663  0.2969
  352loPI   C4A 5626   6.173   4.416   8.396  0.3221 -0.2614 -0.1769
  352loPI   C5A 5627   6.440   4.524   8.051 -0.1275  0.1927  0.2949
  352loPI   C6A 5628   6.540   4.870   7.780 -0.0930 -0.0606  0.0916
  352loPI   C1B 5629   6.188   4.321   9.348  0.2830 -0.0565 -0.1333
  352loPI   C2B 5630   6.373   4.296   8.896 -0.2156  0.1939  0.2275
  352loPI   C3B 5631   6.599   4.292   8.548  0.1606  0.0074 -0.0463
  352loPI   C4B 5632   6.684   4.137   8.090 -0.1862 -0.0427  0.2260
  353loPI    C1 5633  17.128   8.395  10.261  0.0709 -0.0851 -0.0583
  353loPI    C2 5634  17.323   8.133  10.492  0.1057 -0.0412 -0.0378
  353loPI    C3 5635  16.933   8.082  10.417  0.0797 -0.0217  0.0818
  353loPI   PO4 5636  17.299   8.403  10.046  0.1959  0.2148 -0.0407
  353loPI   GL1 5637  17.230   8.429   9.730  0.1748  0.0693  0.1559
  353loPI   GL2 5638  17.595   8.356   9.562  0.0638  0.1971  0.2545
  353loPI   C1A 5639  16.997   8.559   9.320 -0.0848 -0.0162 -0.1172
  353loPI   C2A 5640  16.770   8.669   8.977 -0.3006  0.1059 -0.1700
  353loPI   C3A 5641  16.680   8.912   8.622 -0.1099  0.1341  0.1155
  353loPI   C4A 5642  16.514   9.208   8.332 -0.3039  0.0657  0.3589
  353loPI   C5A 5643  16.075   9.206   7.987 -0.4220 -0.2054 -0.0776
  353loPI   C6A 5644  15.997   9.601   7.866  0.0198  0.0452 -0.1376
  353loPI   C1B 5645  17.626   8.513   9.189 -0.0515 -0.0325  0.1211
  353loPI   C2B 5646  17.603   8.214   8.835 -0.0365  0.3730 -0.2328
  353loPI   C3B 5647  17.582   8.177   8.422  0.2199 -0.2223 -0.1502
  353loPI   C4B 5648  17.293   8.106   8.227 -0.0322  0.0217 -0.0726
  354loPI    C1 5649  11.444   2.872  10.584  0.0679 -0.0199  0.1438
  354loPI    C2 5650  11.755   3.085  10.717  0.1217 -0.0983  0.1440
  354loPI    C3 5651  11.490   2.935  10.976  0.0353  0.0424  0.1377
  354loPI   PO4 5652  11.430   2.953  10.305  0.0896  0.2170  0.2730
  354loPI   GL1 5653  11.171   2.796   9.950  0.0019 -0.0755 -0.1412
  354loPI   GL2 5654  11.245   3.069   9.844 -0.0222 -0.0282  0.0254
  354loPI   C1A 5655  11.259   2.601   9.561 -0.2202  0.0749  0.0350
  354loPI   C2A 5656  11.244   2.485   9.230 -0.2030  0.0851 -0.4539
  354loPI   C3A 5657  11.277   2.203   8.916  0.0261  0.0333  0.2271
  354loPI   C4A 5658  11.300   2.182   8.532 -0.2909 -0.0006  0.1122
  354loPI   C5A 5659  11.123   2.143   8.176 -0.1351 -0.0991 -0.0005
  354loPI   C6A 5660  10.770   2.063   7.915 -0.0283 -0.0078 -0.0772
  354loPI   C1B 5661  11.167   3.098   9.422 -0.1989  0.0301  0.0302
  354loPI   C2B 5662  11.360   2.934   9.090 -0.0296 -0.0584 -0.1833
  354loPI   C3B 5663  11.348   2.655   8.743 -0.0946  0.0717  0.0148
  354loPI   C4B 5664  11.601   2.584   8.359 -0.0741  0.0100  0.1377
  355loPI    C1 5665  17.627   0.726  10.497 -0.0282 -0.1981  0.2455
  355loPI    C2 5666  17.328   0.497  10.632  0.0728 -0.3459  0.2212
  355loPI    C3 5667  17.686   0.485  10.811  0.1301 -0.3414  0.1081
  355loPI   PO4 5668  17.657   0.695  10.241  0.0339 -0.0333  0.0268
  355loPI   GL1 5669  17.784   0.497   9.946  0.1835  0.0115 -0.0040
  355loPI   GL2 5670  18.044   0.275   9.859  0.2596  0.1643  0.1450
  355loPI   C1A 5671  17.456   0.552   9.641 -0.0163 -0.2650 -0.1453
  355loPI   C2A 5672  17.401   0.376   9.235  0.0174  0.1243  0.0269
  355loPI   C3A 5673  17.423   0.359   8.713 -0.1631  0.3061  0.1998
  355loPI   C4A 5674  17.397   0.682   8.374 -0.1288  0.1528 -0.0986
  355loPI   C5A 5675  17.122   0.711   8.013 -0.0121  0.1959  0.0032
  355loPI   C6A 5676  16.731   0.802   8.025 -0.1540 -0.0536  0.0869
  355loPI   C1B 5677  17.906   0.353   9.411 -0.1021 -0.3228 -0.0090
  355loPI   C2B 5678  18.064   0.524   9.077 -0.1045  0.0308  0.1398
  355loPI   C3B 5679  17.943   0.462   8.509  0.3837  0.0092 -0.0290
  355loPI   C4B 5680  17.849   0.247   8.083 -0.0248 -0.0378  0.0461
  356loPI    C1 5681   6.780  18.325  10.638 -0.1852 -0.1073 -0.0400
  356loPI    C2 5682   6.596  18.382  10.988 -0.0068 -0.0912  0.0524
  356loPI    C3 5683   6.895  18.118  10.960  0.1739  0.1187 -0.0183
  356loPI   PO4 5684   6.674  18.597  10.517 -0.0103  0.2080 -0.1456
  356loPI   GL1 5685   6.254  18.685  10.208 -0.2168 -0.2542  0.0448
  356loPI   GL2 5686   6.175  18.613   9.958  0.0197  0.0620 -0.1520
  356loPI   C1A 5687   6.603  18.747   9.851  0.0220 -0.1899  0.2654
  356loPI   C2A 5688   6.537  18.731   9.341  0.1212 -0.2216  0.2238
  356loPI   C3A 5689   6.356  18.952   9.033  0.1217 -0.3129  0.0761
  356loPI   C4A 5690   6.237  18.865   8.649  0.1105  0.2220  0.0046
  356loPI   C5A 5691   5.856  18.843   8.419 -0.0424 -0.2843 -0.1791
  356loPI   C6A 5692   5.525  18.916   8.112  0.3595 -0.0079  0.1701
  356loPI   C1B 5693   6.069  18.742   9.622 -0.1192 -0.4067  0.1150
  356loPI   C2B 5694   5.884  19.002   9.424 -0.1783 -0.0994  0.0803
  356loPI   C3B 5695   6.051  19.245   9.167  0.0468 -0.3223 -0.0461
  356loPI   C4B 5696   6.087  19.365   8.747  0.1911  0.1812  0.1782
  357loPI    C1 5697  14.277  16.986  10.831  0.0877  0.1100  0.2358
  357loPI    C2 5698  14.522  17.288  10.738  0.1626  0.0078  0.0969
  357loPI    C3 5699  14.207  17.352  10.977  0.1380  0.2100  0.0129
  357loPI   PO4 5700  14.158  16.908  10.629  0.0930 -0.0764 -0.1511
  357loPI   GL1 5701  14.174  16.979  10.194  0.1322  0.0071 -0.0084
  357loPI   GL2 5702  13.837  17.009  10.120  0.1819 -0.2447 -0.3942
  357loPI   C1A 5703  14.534  16.968   9.821  0.0667 -0.0395  0.1928
  357loPI   C2A 5704  14.573  16.845   9.320  0.2854  0.0473  0.0474
  357loPI   C3A 5705  14.422  16.792   8.984  0.1009 -0.0835 -0.0466
  357loPI   C4A 5706  14.369  16.630   8.551 -0.0716  0.0701  0.2511
  357loPI   C5A 5707  14.136  16.435   8.250 -0.2262  0.0989 -0.0173
  357loPI   C6A 5708  14.418  16.178   8.001  0.2420 -0.1445  0.2615
  357loPI   C1B 5709  14.047  17.296   9.786 -0.1540 -0.1033 -0.2231
  357loPI   C2B 5710  14.508  17.431   9.642  0.0723  0.0422 -0.1590
  357loPI   C3B 5711  14.836  17.431   9.345  0.0323 -0.1788  0.0078
  357loPI   C4B 5712  14.977  17.540   8.949  0.2718 -0.1349  0.0788
  358loPI    C1 5713   5.491   2.869  10.717  0.0025  0.1615 -0.0826
  358loPI    C2 5714   5.685   2.611  10.953 -0.1705  0.0227 -0.0894
  358loPI    C3 5715   5.288   2.646  10.980 -0.1594  0.2159 -0.1602
  358loPI   PO4 5716   5.547   2.851  10.466  0.2573  0.0027  0.1131
  358loPI   GL1 5717   5.558   3.038   9.996 -0.0799  0.3304  0.0361
  358loPI   GL2 5718   5.388   3.353   9.934 -0.1946  0.0145 -0.2606
  358loPI   C1A 5719   5.580   2.772   9.716  0.0032  0.1468  0.1726
  358loPI   C2A 5720   5.599   2.647   9.328  0.3307  0.1035 -0.1511
  358loPI   C3A 5721   5.645   2.681   8.868 -0.4281  0.0400 -0.3171
  358loPI   C4A 5722   5.502   2.728   8.475  0.2228 -0.0843  0.2632
  358loPI   C5A 5723   5.581   2.711   7.987  0.4528  0.1014  0.0628
  358loPI   C6A 5724   5.700   3.117   7.820  0.2218 -0.1750  0.0669
  358loPI   C1B 5725   5.399   3.281   9.491  0.2373  0.2187 -0.2053
  358loPI   C2B 5726   5.296   3.208   9.073  0.0717 -0.1247  0.3106
  358loPI   C3B 5727   5.149   3.009   8.738 -0.1333  0.1508 -0.1937
  358loPI   C4B 5728   5.014   2.806   8.302  0.3281 -0.1863  0.0835
  359loPI    C1 5729  11.832   2.578  10.800 -0.1311  0.0602 -0.0169
  359loPI    C2 5730  11.917   2.213  10.939 -0.1344  0.0191 -0.1216
  359loPI    C3 5731  11.803   2.502  11.191 -0.1198 -0.0487 -0.0371
  359loPI   PO4 5732  12.026   2.574  10.569  0.2169 -0.1686 -0.1425
  359loPI   GL1 5733  11.931   2.570  10.145  0.1052 -0.0710 -0.2925
  359loPI   GL2 5734  11.719   2.725   9.945  0.0431  0.1413  0.1386
  359loPI   C1A 5735  12.189   2.389   9.888 -0.1123 -0.0501  0.2009
  359loPI   C2A 5736  12.296   2.385   9.483 -0.1164 -0.1026 -0.3158
  359loPI   C3A 5737  12.317   2.234   8.898 -0.1352  0.0841  0.0300
  359loPI   C4A 5738  12.527   2.108   8.547  0.4141  0.0860  0.0098
  359loPI   C5A 5739  12.595   1.863   8.171 -0.0422 -0.0744  0.0563
  359loPI   C6A 5740  12.471   1.581   7.855 -0.0250 -0.0093 -0.0266
  359loPI   C1B 5741  11.682   3.006   9.590  0.2302 -0.3610 -0.0713
  359loPI   C2B 5742  11.832   2.938   9.235  0.0013  0.0180 -0.0334
  359loPI   C3B 5743  11.858   2.781   8.804 -0.1853 -0.0053  0.0241
  359loPI   C4B 5744  12.078   2.551   8.436 -0.2577  0.2497 -0.1175
  360loPI    C1 5745  12.560   1.882  10.560 -0.0888 -0.1561  0.2607
  360loPI    C2 5746  12.417   2.246  10.645  0.0635  0.0395 -0.2760
  360loPI    C3 5747  12.396   1.954  10.918 -0.3771  0.3506  0.0379
  360loPI   PO4 5748  12.372   1.733  10.311 -0.0028  0.3479  0.0953
  360loPI   GL1 5749  12.251   1.309  10.182 -0.0012 -0.0758 -0.0143
  360loPI   GL2 5750  12.274   1.069  10.313 -0.1474 -0.0375  0.0111
  360loPI   C1A 5751  12.350   1.377   9.760 -0.3629 -0.0561 -0.1997
  360loPI   C2A 5752  11.981   1.361   9.437 -0.2083  0.2848 -0.0376
  360loPI   C3A 5753  11.848   1.391   8.937  0.2672  0.0532  0.0638
  360loPI   C4A 5754  11.819   1.225   8.511  0.0113  0.2242 -0.3363
  360loPI   C5A 5755  11.578   1.356   8.095 -0.2271 -0.1559  0.1083
  360loPI   C6A 5756  11.476   1.308   7.660  0.0612  0.0541  0.1009
  360loPI   C1B 5757  12.368   0.844  10.006 -0.3833  0.0321 -0.3929
  360loPI   C2B 5758  12.339   0.971   9.549 -0.0282 -0.2444  0.0195
  360loPI   C3B 5759  12.329   1.207   9.092  0.0906  0.3976  0.2732
  360loPI   C4B 5760  12.353   1.156   8.694 -0.0130 -0.0166 -0.0694
  361loPI    C1 5761   9.327   0.898  11.396 -0.0248  0.1348 -0.0120
  361loPI    C2 5762   9.083   0.597  11.495  0.0158  0.0703 -0.1061
  361loPI    C3 5763   9.181   0.874  11.767  0.0636 -0.0607  0.0112
  361loPI   PO4 5764   9.181   0.950  11.092  0.3899  0.0555  0.0907
  361loPI   GL1 5765   9.267   1.013  10.614  0.4833  0.0112 -0.3319
  361loPI   GL2 5766   9.016   0.774  10.488 -0.0583 -0.1533  0.1536
  361loPI   C1A 5767   9.399   0.901  10.135 -0.2547 -0.0674  0.1323
  361loPI   C2A 5768   9.311   0.698   9.692 -0.1005  0.0531  0.0326
  361loPI   C3A 5769   9.358   0.680   9.209  0.2866  0.1934 -0.1225
  361loPI   C4A 5770   9.332   0.604   8.761  0.0085 -0.0861  0.0477
  361loPI   C5A 5771   9.365   0.449   8.325  0.0849 -0.3568  0.0171
  361loPI   C6A 5772   9.128   0.311   7.935 -0.1663  0.2516  0.3163
  361loPI   C1B 5773   8.911   0.806  10.038  0.0416 -0.0280  0.2683
  361loPI   C2B 5774   8.813   0.663   9.639  0.1668  0.2713  0.0299
  361loPI   C3B 5775   8.883   0.589   9.181 -0.2037 -0.2732 -0.0739
  361loPI   C4B 5776   8.831   0.503   8.742 -0.0075  0.0096  0.1016
  362loPI    C1 5777  18.018   7.964  10.481  0.0709 -0.1011 -0.0668
  362loPI    C2 5778  17.668   7.771  10.475 -0.0605  0.1338 -0.0913
  362loPI    C3 5779  17.741   8.042  10.760  0.1228  0.0487 -0.0563
  362loPI   PO4 5780  18.106   7.980  10.237 -0.3129 -0.0403 -0.1750
  362loPI   GL1 5781  18.014   8.082   9.802 -0.1822  0.0284 -0.1963
  362loPI   GL2 5782  17.873   8.434   9.930  0.0968 -0.0218 -0.0904
  362loPI   C1A 5783  18.220   7.992   9.467  0.0323 -0.2283  0.3480
  362loPI   C2A 5784  18.203   8.046   9.007  0.0906  0.0617  0.2294
  362loPI   C3A 5785  18.042   8.297   8.582 -0.1884  0.1638 -0.1382
  362loPI   C4A 5786  18.093   8.463   8.188  0.0965  0.1951 -0.1472
  362loPI   C5A 5787  18.478   8.644   7.992 -0.1371 -0.1495 -0.3614
  362loPI   C6A 5788  18.395   8.919   7.566  0.0301 -0.2087 -0.2341
  362loPI   C1B 5789  18.003   8.598   9.495  0.2040 -0.0380  0.2603
  362loPI   C2B 5790  18.108   8.605   9.021  0.3298 -0.2450  0.0612
  362loPI   C3B 5791  18.429   8.538   8.823  0.2244 -0.0965 -0.1852
  362loPI   C4B 5792  18.759   8.558   8.544  0.1139  0.0371 -0.0947
  363loPI    C1 5793   8.091   0.205  10.830  0.0740  0.1838  0.0330
  363loPI    C2 5794   7.710   0.325  10.855  0.0348  0.1008 -0.1498
  363loPI    C3 5795   7.827  -0.008  11.043  0.0388  0.1751 -0.0193
  363loPI   PO4 5796   8.235   0.103  10.554 -0.1607 -0.1899  0.1831
  363loPI   GL1 5797   7.952   0.107  10.202 -0.0650  0.2140  0.2187
  363loPI   GL2 5798   7.651   0.340  10.352  0.0241 -0.1183  0.1164
  363loPI   C1A 5799   7.928   0.317   9.865  0.0407  0.1047  0.0485
  363loPI   C2A 5800   7.865   0.610   9.438 -0.2114  0.1750 -0.3259
  363loPI   C3A 5801   7.943   0.819   8.988  0.1786  0.0156  0.0694
  363loPI   C4A 5802   7.775   0.899   8.596 -0.0728 -0.0102  0.2042
  363loPI   C5A 5803   7.291   0.972   8.487  0.0158 -0.2472  0.1175
  363loPI   C6A 5804   6.908   1.153   8.565  0.1567 -0.1197 -0.2994
  363loPI   C1B 5805   7.462   0.576  10.092  0.0774  0.1973  0.2435
  363loPI   C2B 5806   7.329   0.736   9.731  0.1647 -0.3501 -0.0769
  363loPI   C3B 5807   7.434   1.214   9.600  0.0417 -0.0004  0.2410
  363loPI   C4B 5808   7.614   1.493   9.223 -0.0523 -0.0359 -0.1384
  364loPI    C1 5809   9.689  13.000  10.711  0.1025 -0.0140 -0.0179
  364loPI    C2 5810   9.876  13.259  10.952  0.2654 -0.1467  0.0001
  364loPI    C3 5811  10.010  12.883  10.919  0.0349 -0.2278 -0.0317
  364loPI   PO4 5812   9.581  13.192  10.553  0.0964  0.3036  0.0238
  364loPI   GL1 5813   9.550  13.430  10.285  0.2635  0.0808  0.2100
  364loPI   GL2 5814   9.441  13.447  10.075  0.0140 -0.2358  0.1402
  364loPI   C1A 5815   9.823  13.776  10.025 -0.3023  0.0259 -0.0498
  364loPI   C2A 5816  10.130  13.868   9.626  0.0119  0.3564 -0.2012
  364loPI   C3A 5817  10.353  14.178   9.277  0.1172 -0.0944 -0.0473
  364loPI   C4A 5818  10.502  14.346   9.026  0.1416 -0.2590  0.0783
  364loPI   C5A 5819  10.545  14.655   8.718  0.0916 -0.1511 -0.4158
  364loPI   C6A 5820  11.037  14.746   8.621 -0.1804  0.0289 -0.1731
  364loPI   C1B 5821   9.650  13.469   9.683 -0.0486  0.1998  0.2250
  364loPI   C2B 5822   9.963  13.365   9.447  0.1440 -0.0425  0.0596
  364loPI   C3B 5823   9.784  13.685   9.144  0.4234 -0.1036  0.0534
  364loPI   C4B 5824   9.835  14.229   9.139  0.2993 -0.1723  0.1459
  365loPI    C1 5825  13.563  13.503  10.800  0.2319 -0.0336  0.1109
  365loPI    C2 5826  13.595  13.206  11.066  0.1556  0.1527  0.3315
  365loPI    C3 5827  13.294  13.468  11.093  0.0038  0.0303 -0.0869
  365loPI   PO4 5828  13.555  13.276  10.492 -0.1221 -0.2703  0.0443
  365loPI   GL1 5829  13.273  13.329  10.132 -0.0419 -0.1563  0.1175
  365loPI   GL2 5830  12.880  13.307  10.205 -0.2568  0.2622  0.0518
  365loPI   C1A 5831  13.225  13.506   9.706 -0.1728  0.1401  0.0851
  365loPI   C2A 5832  13.142  13.517   9.214  0.0204 -0.2791 -0.2372
  365loPI   C3A 5833  13.029  13.715   8.816  0.1500  0.1600  0.0119
  365loPI   C4A 5834  13.082  14.051   8.462 -0.0640  0.3575 -0.1270
  365loPI   C5A 5835  13.004  14.380   8.115  0.1159 -0.1105 -0.0853
  365loPI   C6A 5836  12.874  14.789   8.087 -0.2877  0.2625  0.1229
  365loPI   C1B 5837  12.829  13.143   9.806 -0.1105  0.0005  0.3504
  365loPI   C2B 5838  12.844  13.171   9.409 -0.1639 -0.0118 -0.0303
  365loPI   C3B 5839  12.688  13.299   9.090 -0.1739 -0.1879 -0.1233
  365loPI   C4B 5840  12.627  13.357   8.688 -0.3038 -0.1819 -0.4992
  366loPI    C1 5841   0.886   5.105  10.318 -0.2564 -0.1174  0.2037
  366loPI    C2 5842   1.096   4.962  10.627 -0.2802 -0.0197  0.2658
  366loPI    C3 5843   1.188   5.319  10.470 -0.1610 -0.1425  0.0515
  366loPI   PO4 5844   0.864   4.851  10.113  0.1324 -0.0645 -0.0708
  366loPI   GL1 5845   0.924   4.874   9.635  0.0153  0.0918  0.0059
  366loPI   GL2 5846   1.105   5.081   9.748  0.0822 -0.1573  0.0357
  366loPI   C1A 5847   1.025   4.736   9.101  0.0724  0.0775 -0.1027
  366loPI   C2A 5848   1.131   4.624   8.771 -0.1448  0.1523 -0.0888
  366loPI   C3A 5849   1.050   4.387   8.422 -0.2350 -0.1536  0.0519
  366loPI   C4A 5850   0.875   4.135   8.021  0.1179 -0.0219 -0.2009
  366loPI   C5A 5851   0.525   3.818   8.091  0.1191 -0.0212 -0.1948
  366loPI   C6A 5852   0.282   3.629   7.749 -0.3206 -0.3246  0.1021
  366loPI   C1B 5853   1.344   4.956   9.401 -0.0587 -0.1589 -0.0160
  366loPI   C2B 5854   1.573   4.857   8.993 -0.4226 -0.0364  0.2097
  366loPI   C3B 5855   1.713   4.852   8.512  0.2371  0.2071  0.1300
  366loPI   C4B 5856   1.538   5.056   8.192 -0.5902  0.2288  0.2020
  367loPI    C1 5857  15.946  12.426  11.140 -0.1648 -0.0101 -0.1338
  367loPI    C2 5858  15.656  12.220  11.322  0.0818 -0.1560  0.1018
  367loPI    C3 5859  16.039  12.141  11.404  0.1970 -0.1178 -0.3701
  367loPI   PO4 5860  16.033  12.376  10.841  0.4369  0.1570 -0.2564
  367loPI   GL1 5861  15.970  12.510  10.280 -0.1634  0.1385 -0.0617
  367loPI   GL2 5862  16.056  12.737  10.460  0.1080 -0.0138  0.2288
  367loPI   C1A 5863  15.716  12.514   9.953  0.0728 -0.2992  0.0541
  367loPI   C2A 5864  15.501  12.163   9.748 -0.0884  0.3582 -0.2693
  367loPI   C3A 5865  15.656  11.858   9.402  0.0890 -0.0445 -0.2589
  367loPI   C4A 5866  15.578  11.809   8.964  0.0174 -0.1836  0.1225
  367loPI   C5A 5867  15.563  11.687   8.488 -0.0639  0.1625  0.3122
  367loPI   C6A 5868  15.361  11.354   8.097 -0.0509  0.4352 -0.0847
  367loPI   C1B 5869  15.918  12.990  10.042  0.2675  0.2840 -0.0865
  367loPI   C2B 5870  15.966  12.961   9.675  0.1553 -0.1527 -0.0631
  367loPI   C3B 5871  16.256  12.964   9.281  0.0856  0.0011 -0.2236
  367loPI   C4B 5872  16.335  13.003   8.828  0.3891  0.2707 -0.3113
  368loPI    C1 5873   3.039   8.311  10.729 -0.1611 -0.1280  0.0632
  368loPI    C2 5874   3.092   8.627  10.968  0.3738 -0.0244 -0.1793
  368loPI    C3 5875   3.133   8.257  11.113  0.0139  0.0178  0.0419
  368loPI   PO4 5876   3.255   8.258  10.567 -0.3661  0.0187  0.0167
  368loPI   GL1 5877   3.276   8.260  10.180  0.3681  0.2472  0.1525
  368loPI   GL2 5878   3.408   8.098  10.094 -0.1430 -0.0189  0.2652
  368loPI   C1A 5879   3.249   8.609   9.940  0.2779 -0.0874  0.1283
  368loPI   C2A 5880   3.285   8.655   9.465 -0.0481  0.2441  0.0295
  368loPI   C3A 5881   3.342   8.731   9.005  0.1116  0.0335  0.0073
  368loPI   C4A 5882   3.383   8.802   8.552  0.2355  0.0936  0.4526
  368loPI   C5A 5883   3.288   8.574   8.189  0.2515 -0.1862  0.0815
  368loPI   C6A 5884   2.873   8.575   8.024 -0.3177  0.1382 -0.2634
  368loPI   C1B 5885   3.417   8.197   9.675  0.1273 -0.0427  0.4253
  368loPI   C2B 5886   3.511   8.147   9.342 -0.0261  0.1066  0.2320
  368loPI   C3B 5887   3.560   8.044   8.971  0.3328 -0.2069 -0.0803
  368loPI   C4B 5888   3.391   7.828   8.550 -0.1488 -0.0764 -0.0298
  369loPI    C1 5889  16.114  17.008  10.907 -0.0670 -0.1193 -0.0929
  369loPI    C2 5890  16.498  17.053  10.804 -0.0635 -0.0466 -0.0482
  369loPI    C3 5891  16.343  17.271  11.102 -0.1170 -0.1381 -0.0084
  369loPI   PO4 5892  15.900  17.064  10.610  0.0164  0.0184 -0.2541
  369loPI   GL1 5893  15.908  16.855  10.174 -0.0965  0.0863 -0.2583
  369loPI   GL2 5894  16.034  16.895   9.849 -0.0228 -0.1999  0.1548
  369loPI   C1A 5895  15.626  16.701   9.964 -0.0385 -0.2311 -0.1852
  369loPI   C2A 5896  15.436  16.751   9.617  0.1013 -0.2809 -0.1350
  369loPI   C3A 5897  15.501  16.619   9.248 -0.0733 -0.0236 -0.2016
  369loPI   C4A 5898  15.336  16.656   8.823  0.2486 -0.2187 -0.3496
  369loPI   C5A 5899  15.036  16.732   8.464  0.2834  0.2577  0.1789
  369loPI   C6A 5900  14.708  16.924   8.317 -0.0546  0.4166 -0.3737
  369loPI   C1B 5901  15.864  16.942   9.446 -0.4543 -0.0116 -0.4354
  369loPI   C2B 5902  15.675  17.022   9.050  0.0329  0.0222  0.2289
  369loPI   C3B 5903  15.503  17.155   8.672  0.0137 -0.0655 -0.3211
  369loPI   C4B 5904  15.233  17.219   8.365 -0.1077  0.0702 -0.3242
  370loPI    C1 5905  17.066   4.586  10.418  0.0983 -0.1783 -0.0402
  370loPI    C2 5906  16.777   4.501  10.681 -0.1064  0.3898 -0.0682
  370loPI    C3 5907  17.014   4.818  10.740  0.3152  0.1088 -0.2068
  370loPI   PO4 5908  16.927   4.547  10.149  0.0568 -0.1039  0.0612
  370loPI   GL1 5909  16.859   4.701   9.743  0.0113  0.1407  0.0097
  370loPI   GL2 5910  17.180   4.592   9.642  0.3267  0.2806  0.0732
  370loPI   C1A 5911  16.683   4.990   9.412  0.1546 -0.0339  0.1068
  370loPI   C2A 5912  16.642   4.768   9.083  0.2647  0.1967 -0.5407
  370loPI   C3A 5913  16.842   4.645   8.714  0.2679  0.0787  0.1757
  370loPI   C4A 5914  16.862   4.559   8.346 -0.1223  0.1700  0.0630
  370loPI   C5A 5915  16.856   4.672   7.874 -0.1786  0.1013  0.3483
  370loPI   C6A 5916  17.039   4.439   7.614 -0.1663 -0.2307 -0.5905
  370loPI   C1B 5917  17.121   4.855   9.341 -0.5118  0.2101 -0.2183
  370loPI   C2B 5918  17.129   4.929   8.975  0.1378 -0.1342 -0.3025
  370loPI   C3B 5919  17.309   4.772   8.622 -0.0633 -0.1885 -0.0806
  370loPI   C4B 5920  17.649   4.888   8.268  0.1887  0.1894  0.2629
  371loPI    C1 5921  15.504   9.844  10.695  0.1600 -0.2585  0.1485
  371loPI    C2 5922  15.637   9.585  10.970  0.1281 -0.1521  0.2653
  371loPI    C3 5923  15.260   9.717  10.986  0.1585 -0.0606  0.2354
  371loPI   PO4 5924  15.621   9.743  10.488  0.2028  0.1831 -0.1586
  371loPI   GL1 5925  15.952   9.550  10.175 -0.1320  0.1859  0.1773
  371loPI   GL2 5926  16.109   9.322  10.015 -0.2702  0.0470  0.2834
  371loPI   C1A 5927  15.624   9.629   9.836 -0.2488 -0.0862  0.2891
  371loPI   C2A 5928  15.643   9.688   9.445  0.0779 -0.3738  0.0878
  371loPI   C3A 5929  15.529   9.656   8.919  0.0889 -0.0087  0.2130
  371loPI   C4A 5930  15.633   9.698   8.546 -0.1313  0.1807  0.2067
  371loPI   C5A 5931  15.715   9.568   8.216 -0.1761 -0.3127 -0.2205
  371loPI   C6A 5932  15.628   9.176   8.100  0.1654  0.0318  0.0705
  371loPI   C1B 5933  16.020   9.229   9.629 -0.1400 -0.3886 -0.2766
  371loPI   C2B 5934  15.927   9.362   9.170  0.0761 -0.5426 -0.0698
  371loPI   C3B 5935  15.874   9.241   8.739 -0.0949 -0.2857  0.3144
  371loPI   C4B 5936  16.058   9.180   8.459 -0.3811  0.0738 -0.3188
  372loPI    C1 5937   3.983   6.503  10.292 -0.1443  0.0524  0.2577
  372loPI    C2 5938   3.813   6.141  10.285 -0.1602  0.0615  0.1530
  372loPI    C3 5939   4.064   6.239  10.581 -0.2990  0.0309  0.2826
  372loPI   PO4 5940   3.803   6.645  10.042  0.2180  0.0443  0.1183
  372loPI   GL1 5941   3.961   6.654   9.659 -0.0265  0.1101  0.1504
  372loPI   GL2 5942   3.714   6.697   9.558  0.1287  0.0699  0.1187
  372loPI   C1A 5943   4.056   6.574   9.289 -0.1413  0.1236  0.2054
  372loPI   C2A 5944   4.189   6.433   8.804 -0.0413  0.0273 -0.2483
  372loPI   C3A 5945   4.213   6.567   8.442  0.0230  0.1204  0.1601
  372loPI   C4A 5946   4.482   6.499   8.130 -0.2221 -0.2152  0.0037
  372loPI   C5A 5947   4.778   6.460   7.861  0.2057 -0.4685  0.2616
  372loPI   C6A 5948   4.828   6.635   7.516 -0.3717 -0.3181  0.1300
  372loPI   C1B 5949   3.659   6.787   9.064 -0.0397 -0.0073  0.0900
  372loPI   C2B 5950   3.744   6.748   8.701 -0.1062  0.1003 -0.0565
  372loPI   C3B 5951   3.663   6.698   8.313 -0.1747  0.4490 -0.0421
  372loPI   C4B 5952   3.965   6.754   8.000  0.1057 -0.0438  0.0738
  373loPI    C1 5953  18.188  14.081  10.565  0.2788 -0.0974  0.1779
  373loPI    C2 5954  17.908  13.796  10.546  0.1181  0.0617  0.1334
  373loPI    C3 5955  18.234  13.771  10.316  0.0435 -0.0200  0.0355
  373loPI   PO4 5956  18.100  14.442  10.504 -0.1844  0.0844 -0.0889
  373loPI   GL1 5957  18.072  14.569  10.067  0.0998  0.1489  0.2891
  373loPI   GL2 5958  17.725  14.449   9.830  0.1659 -0.0333  0.0459
  373loPI   C1A 5959  18.212  14.459   9.611 -0.0698 -0.0242  0.0741
  373loPI   C2A 5960  18.550  14.476   9.429 -0.1972  0.3469 -0.2708
  373loPI   C3A 5961  18.732  14.648   8.916 -0.0412  0.1151 -0.0270
  373loPI   C4A 5962  18.833  14.700   8.499 -0.2396  0.1611  0.2407
  373loPI   C5A 5963  19.134  14.709   8.143 -0.0098  0.2507 -0.2111
  373loPI   C6A 5964  19.465  14.393   7.837 -0.0780 -0.1793  0.2381
  373loPI   C1B 5965  17.739  14.258   9.535  0.0976 -0.0884 -0.1231
  373loPI   C2B 5966  17.665  14.182   9.080  0.1764 -0.2432 -0.3764
  373loPI   C3B 5967  17.800  14.427   8.691 -0.0190  0.2630  0.2477
  373loPI   C4B 5968  17.749  14.815   8.779 -0.2887 -0.0564  0.0040
  374loPI    C1 5969   8.672   6.389  10.146 -0.1930 -0.2392 -0.0974
  374loPI    C2 5970   8.412   6.655   9.998  0.0538  0.0917  0.0517
  374loPI    C3 5971   8.456   6.617  10.394  0.0213 -0.1731  0.0314
  374loPI   PO4 5972   8.906   6.438  10.010  0.0243 -0.2753  0.1495
  374loPI   GL1 5973   9.085   6.480   9.728 -0.0802 -0.0701  0.1985
  374loPI   GL2 5974   9.217   6.275   9.672 -0.0133 -0.0428 -0.2712
  374loPI   C1A 5975   8.726   6.461   9.422  0.0071 -0.1468 -0.2642
  374loPI   C2A 5976   8.651   6.494   8.985  0.0243 -0.2088  0.1004
  374loPI   C3A 5977   8.653   6.258   8.611  0.1842 -0.2209 -0.2119
  374loPI   C4A 5978   8.727   6.200   8.190  0.0810 -0.1544  0.0015
  374loPI   C5A 5979   9.061   6.033   7.895  0.0274  0.1666 -0.1660
  374loPI   C6A 5980   9.383   5.691   7.986 -0.2065  0.2712  0.0227
  374loPI   C1B 5981   9.121   6.361   9.149 -0.0477  0.0248 -0.3934
  374loPI   C2B 5982   9.117   6.304   8.811 -0.0504 -0.0202  0.1461
  374loPI   C3B 5983   9.328   6.383   8.449  0.1965 -0.1601  0.0410
  374loPI   C4B 5984   9.615   6.205   8.056 -0.1455 -0.0357  0.8167
  375loPI    C1 5985  15.486  13.351  10.949  0.0085  0.1737  0.4575
  375loPI    C2 5986  15.690  13.651  11.117  0.2677  0.1034  0.2747
  375loPI    C3 5987  15.859  13.291  11.080  0.2296  0.1257 -0.1647
  375loPI   PO4 5988  15.397  13.503  10.686  0.3890 -0.0016 -0.0167
  375loPI   GL1 5989  15.299  13.509  10.319 -0.1778  0.0580 -0.0924
  375loPI   GL2 5990  15.084  13.235  10.245 -0.3657 -0.2783 -0.0880
  375loPI   C1A 5991  15.571  13.345   9.962  0.1422  0.1446  0.3273
  375loPI   C2A 5992  15.450  13.075   9.602  0.2092  0.0133  0.0195
  375loPI   C3A 5993  15.324  12.995   9.206 -0.0777 -0.0453 -0.0810
  375loPI   C4A 5994  15.408  12.646   8.802  0.2805 -0.0190  0.0449
  375loPI   C5A 5995  15.344  12.475   8.365 -0.0901 -0.2423  0.2919
  375loPI   C6A 5996  15.334  12.134   8.273 -0.1227 -0.2537  0.3517
  375loPI   C1B 5997  15.050  13.262   9.845 -0.1702  0.1278  0.4560
  375loPI   C2B 5998  14.869  13.091   9.448  0.0959  0.2040  0.1597
  375loPI   C3B 5999  14.790  12.667   9.342  0.1758  0.1750  0.1233
  375loPI   C4B 6000  14.903  12.405   9.005 -0.0137 -0.1265 -0.0323
  376loPI    C1 6001   1.181   6.409   9.981  0.1904  0.1989  0.1904
  376loPI    C2 6002   1.233   6.323  10.368  0.0839 -0.0092  0.1596
  376loPI    C3 6003   1.308   6.046  10.090 -0.0082  0.0831  0.0418
  376loPI   PO4 6004   1.124   6.693  10.008 -0.4309 -0.1261  0.0334
  376loPI   GL1 6005   1.143   7.103   9.801 -0.1003 -0.0147  0.1824
  376loPI   GL2 6006   1.191   7.356   9.626  0.0584  0.0378 -0.2531
  376loPI   C1A 6007   1.370   6.830   9.413  0.2568 -0.3817  0.2116
  376loPI   C2A 6008   1.302   6.774   8.980 -0.0625 -0.0923  0.2059
  376loPI   C3A 6009   1.394   6.776   8.586 -0.0985  0.0482 -0.3341
  376loPI   C4A 6010   1.422   6.970   8.253  0.2366 -0.0409  0.0910
  376loPI   C5A 6011   1.679   7.105   7.869  0.2469  0.5593  0.1756
  376loPI   C6A 6012   2.139   6.960   7.710  0.2198 -0.2072  0.2900
  376loPI   C1B 6013   1.373   7.266   9.188 -0.1316 -0.0743 -0.0043
  376loPI   C2B 6014   1.437   7.354   8.642 -0.1492  0.2626 -0.0145
  376loPI   C3B 6015   1.735   7.335   8.336 -0.0037 -0.1013  0.1080
  376loPI   C4B 6016   2.157   7.236   8.138 -0.1195  0.0691  0.1417
  377loPI    C1 6017  13.394   7.868  10.762 -0.0944 -0.3101  0.1701
  377loPI    C2 6018  13.738   7.739  10.603 -0.1199 -0.0334 -0.1207
  377loPI    C3 6019  13.723   8.094  10.786 -0.1655 -0.2128  0.2324
  377loPI   PO4 6020  13.207   7.781  10.564  0.0831 -0.0883 -0.2496
  377loPI   GL1 6021  13.159   7.853  10.150 -0.3855  0.0563  0.0691
  377loPI   GL2 6022  13.581   7.798  10.068  0.3383  0.0752 -0.1354
  377loPI   C1A 6023  13.112   8.066   9.804 -0.3615 -0.0437 -0.0107
  377loPI   C2A 6024  13.432   8.487   9.705  0.0740 -0.0745 -0.0825
  377loPI   C3A 6025  13.387   8.649   9.370  0.0805 -0.0711  0.0898
  377loPI   C4A 6026  13.135   8.675   8.979 -0.0710 -0.0096 -0.1325
  377loPI   C5A 6027  13.160   8.795   8.511 -0.1429  0.1800 -0.0689
  377loPI   C6A 6028  12.915   9.003   8.266  0.0616 -0.1235  0.3558
  377loPI   C1B 6029  13.678   8.012   9.689  0.2857  0.0527  0.1289
  377loPI   C2B 6030  13.664   8.192   9.386  0.1770 -0.1888  0.1106
  377loPI   C3B 6031  13.608   8.208   8.966 -0.3286  0.0518 -0.1094
  377loPI   C4B 6032  13.364   8.319   8.682 -0.4405 -0.1213  0.1763
  378loPI    C1 6033   0.499   2.452  10.400 -0.0994  0.2436  0.1238
  378loPI    C2 6034   0.448   2.159  10.667 -0.3390 -0.0408 -0.2243
  378loPI    C3 6035   0.279   2.517  10.727 -0.3833 -0.0986  0.0063
  378loPI   PO4 6036   0.813   2.461  10.328  0.2801  0.1312  0.0184
  378loPI   GL1 6037   1.039   2.542   9.832  0.0882  0.0926 -0.0811
  378loPI   GL2 6038   0.926   2.313   9.873  0.1566  0.1492  0.1506
  378loPI   C1A 6039   0.966   2.560   9.426 -0.2120 -0.0041 -0.1541
  378loPI   C2A 6040   0.805   2.651   9.095 -0.2488 -0.1335  0.0791
  378loPI   C3A 6041   0.697   2.524   8.729 -0.0317  0.0484  0.1534
  378loPI   C4A 6042   0.906   2.544   8.352 -0.3010 -0.0339  0.1871
  378loPI   C5A 6043   0.737   2.481   7.955  0.0045 -0.0637  0.0502
  378loPI   C6A 6044   0.603   2.102   7.760 -0.0087 -0.0355 -0.6137
  378loPI   C1B 6045   0.847   2.055   9.510  0.2488  0.1558 -0.1322
  378loPI   C2B 6046   0.939   2.154   9.071  0.0968  0.1423  0.1165
  378loPI   C3B 6047   1.122   2.175   8.710 -0.0788 -0.0344 -0.1288
  378loPI   C4B 6048   1.286   2.118   8.266  0.0812  0.0657 -0.2108
  379loPI    C1 6049   7.990  10.829  10.945 -0.0234  0.4517 -0.0277
  379loPI    C2 6050   7.634  11.010  10.950 -0.0779  0.3576 -0.3149
  379loPI    C3 6051   7.937  11.159  11.165 -0.3186  0.3742  0.0206
  379loPI   PO4 6052   8.040  10.736  10.558  0.0133 -0.0173 -0.4297
  379loPI   GL1 6053   8.257  10.962  10.190 -0.0016 -0.0302 -0.4605
  379loPI   GL2 6054   7.935  10.934  10.052 -0.0576 -0.0861 -0.1040
  379loPI   C1A 6055   8.601  10.740   9.945 -0.0255  0.2304 -0.2710
  379loPI   C2A 6056   8.645  10.682   9.465 -0.1212  0.3680 -0.0437
  379loPI   C3A 6057   8.873  10.774   9.031 -0.0806  0.1207  0.0848
  379loPI   C4A 6058   8.749  10.926   8.630  0.1513 -0.4531 -0.0939
  379loPI   C5A 6059   8.977  11.070   8.298  0.2366 -0.1974 -0.1471
  379loPI   C6A 6060   9.232  11.291   7.979  0.0912 -0.2891 -0.4103
  379loPI   C1B 6061   7.897  11.178   9.698  0.0101  0.0433  0.1744
  379loPI   C2B 6062   8.051  11.489   9.433  0.1859  0.1833 -0.3442
  379loPI   C3B 6063   8.088  11.557   9.082  0.0082 -0.1729  0.0568
  379loPI   C4B 6064   7.959  11.670   8.727 -0.0322 -0.0251 -0.1864
  380loPI    C1 6065   4.192  17.822  10.369  0.0989  0.0683  0.2996
  380loPI    C2 6066   3.882  18.070  10.413 -0.0286  0.0044 -0.1819
  380loPI    C3 6067   3.952  17.788  10.687 -0.3108  0.1102  0.0040
  380loPI   PO4 6068   4.378  17.925  10.244 -0.1670 -0.0772 -0.0254
  380loPI   GL1 6069   4.568  17.754   9.827 -0.0494 -0.0510 -0.1671
  380loPI   GL2 6070   4.273  17.669   9.846  0.1193  0.3835 -0.2166
  380loPI   C1A 6071   4.760  17.860   9.414 -0.0463 -0.1776 -0.2142
  380loPI   C2A 6072   4.692  18.070   9.028  0.0551  0.2334  0.1450
  380loPI   C3A 6073   4.583  17.936   8.656 -0.1384  0.1169 -0.0433
  380loPI   C4A 6074   4.444  18.012   8.269 -0.1574 -0.1170 -0.3344
  380loPI   C5A 6075   4.341  18.016   7.839  0.2077 -0.1837 -0.4900
  380loPI   C6A 6076   4.305  17.635   7.618  0.1211  0.2415 -0.1491
  380loPI   C1B 6077   4.175  17.978   9.552 -0.2353  0.0474 -0.0982
  380loPI   C2B 6078   4.035  18.264   9.176  0.1171 -0.1240 -0.0289
  380loPI   C3B 6079   3.802  18.325   8.852 -0.0818 -0.0061 -0.0160
  380loPI   C4B 6080   3.614  18.238   8.503  0.0332  0.2562 -0.0170
  381loPI    C1 6081  11.856   6.790  10.605  0.0663 -0.0654  0.0490
  381loPI    C2 6082  12.098   6.536  10.797  0.0251 -0.1174  0.0322
  381loPI    C3 6083  11.722   6.587  10.923  0.0034 -0.1384 -0.0237
  381loPI   PO4 6084  11.912   6.877  10.420 -0.0478 -0.1019  0.1871
  381loPI   GL1 6085  12.086   7.185  10.168  0.0056  0.0350  0.3359
  381loPI   GL2 6086  11.747   7.198  10.055  0.3756  0.2088 -0.0928
  381loPI   C1A 6087  12.246   7.254   9.780  0.1186  0.2014 -0.1066
  381loPI   C2A 6088  12.259   7.314   9.393  0.0022  0.1099  0.1851
  381loPI   C3A 6089  12.154   7.370   9.028 -0.0748  0.1762  0.1140
  381loPI   C4A 6090  12.010   7.257   8.608 -0.2037  0.1889  0.1513
  381loPI   C5A 6091  12.186   7.397   8.185 -0.1423 -0.1599  0.1961
  381loPI   C6A 6092  12.471   7.684   8.220 -0.3770 -0.2648  0.1286
  381loPI   C1B 6093  11.698   7.317   9.587 -0.2067 -0.0543  0.1593
  381loPI   C2B 6094  11.643   7.232   9.195  0.0516 -0.3348  0.0646
  381loPI   C3B 6095  11.594   7.103   8.832  0.1513  0.2156  0.1201
  381loPI   C4B 6096  11.392   7.195   8.423 -0.0416  0.0195 -0.0208
  382loPI    C1 6097  14.428  15.608  10.729  0.1393 -0.0271  0.0455
  382loPI    C2 6098  14.749  15.795  10.582  0.0119  0.2517  0.1143
  382loPI    C3 6099  14.501  15.989  10.828 -0.0372 -0.0609  0.3163
  382loPI   PO4 6100  14.514  15.207  10.709  0.4803  0.2192  0.2476
  382loPI   GL1 6101  14.658  14.912  10.367 -0.2760 -0.0915 -0.2185
  382loPI   GL2 6102  14.983  14.861  10.442 -0.3408  0.1479 -0.2146
  382loPI   C1A 6103  14.430  14.984  10.001 -0.0726 -0.0528 -0.2413
  382loPI   C2A 6104  14.376  14.821   9.594 -0.3493 -0.0079 -0.3363
  382loPI   C3A 6105  14.361  14.857   9.170 -0.0268  0.1340  0.1398
  382loPI   C4A 6106  14.488  15.246   8.945 -0.4065 -0.3058  0.0300
  382loPI   C5A 6107  14.331  15.394   8.525 -0.3028  0.1477 -0.2911
  382loPI   C6A 6108  13.872  15.478   8.349 -0.2667  0.2672  0.0737
  382loPI   C1B 6109  14.990  15.039   9.968 -0.3291 -0.3300  0.1214
  382loPI   C2B 6110  14.840  14.985   9.492  0.0272 -0.0130  0.0882
  382loPI   C3B 6111  14.844  14.936   9.158 -0.0413  0.1665 -0.1735
  382loPI   C4B 6112  14.707  14.760   8.741  0.1704  0.1468 -0.3213
  383loPI    C1 6113   6.913   9.672  10.399  0.0121 -0.0172  0.1704
  383loPI    C2 6114   7.156   9.662  10.716  0.1280  0.2791  0.0944
  383loPI    C3 6115   6.773   9.768  10.761  0.0732  0.0529  0.1755
  383loPI   PO4 6116   7.082   9.472  10.233  0.2300  0.0479 -0.1143
  383loPI   GL1 6117   7.198   9.116   9.836  0.2404 -0.2813 -0.1007
  383loPI   GL2 6118   7.496   9.199   9.910 -0.0062 -0.0502 -0.2226
  383loPI   C1A 6119   7.082   9.218   9.463 -0.4073  0.0797 -0.0976
  383loPI   C2A 6120   7.079   9.104   9.117  0.1668  0.1221 -0.2275
  383loPI   C3A 6121   7.190   9.008   8.741 -0.0001 -0.2160 -0.2262
  383loPI   C4A 6122   7.394   9.093   8.411 -0.3195 -0.0956 -0.1698
  383loPI   C5A 6123   7.304   9.218   8.039 -0.2276 -0.0107 -0.0721
  383loPI   C6A 6124   7.042   9.113   7.694  0.0055 -0.2112 -0.3821
  383loPI   C1B 6125   7.589   9.346   9.447  0.0824 -0.1097  0.2006
  383loPI   C2B 6126   7.576   9.353   8.974 -0.3133  0.0921 -0.0065
  383loPI   C3B 6127   7.643   9.571   8.555  0.0146  0.1705 -0.0559
  383loPI   C4B 6128   7.669   9.554   8.118  0.0220  0.2753  0.0862
  384loPI    C1 6129   7.723   1.357  10.709 -0.2030 -0.1208  0.0354
  384loPI    C2 6130   7.792   1.573  10.380 -0.0749 -0.2007  0.0090
  384loPI    C3 6131   7.743   1.756  10.732 -0.4032 -0.1030 -0.0842
  384loPI   PO4 6132   7.930   1.152  10.589 -0.0188 -0.3377  0.0390
  384loPI   GL1 6133   7.868   0.870  10.196  0.2106  0.0585 -0.2175
  384loPI   GL2 6134   8.082   1.189  10.176 -0.0602 -0.1532  0.2090
  384loPI   C1A 6135   7.814   0.987   9.772  0.3249 -0.0202 -0.0130
  384loPI   C2A 6136   7.978   1.189   9.485  0.1790  0.0498  0.0759
  384loPI   C3A 6137   8.088   1.325   9.065  0.2143 -0.0597  0.0145
  384loPI   C4A 6138   8.082   1.318   8.662  0.0581 -0.0660 -0.2216
  384loPI   C5A 6139   7.993   1.127   8.173 -0.1616  0.0275  0.4998
  384loPI   C6A 6140   7.904   0.795   8.115 -0.0485  0.2005 -0.0716
  384loPI   C1B 6141   8.126   1.458   9.895 -0.0449  0.0930  0.2828
  384loPI   C2B 6142   8.122   1.681   9.502  0.4166  0.0784 -0.0818
  384loPI   C3B 6143   8.505   1.695   9.388  0.1685 -0.2826  0.3031
  384loPI   C4B 6144   8.769   1.489   9.161 -0.0102  0.1688  0.0817
  385loPI    C1 6145  16.368   9.294  10.407 -0.0100  0.3617 -0.3651
  385loPI    C2 6146  16.606   9.288  10.729 -0.2300 -0.1648 -0.2003
  385loPI    C3 6147  16.491   9.638  10.571 -0.0982  0.1026  0.2756
  385loPI   PO4 6148  16.270   9.087  10.434  0.0980  0.2294 -0.0860
  385loPI   GL1 6149  16.024   8.880  10.229 -0.3548 -0.0567  0.3008
  385loPI   GL2 6150  16.014   8.588  10.222  0.2375 -0.0304 -0.1472
  385loPI   C1A 6151  16.088   8.755   9.739 -0.0817 -0.1764 -0.1213
  385loPI   C2A 6152  16.012   8.728   9.325  0.0027  0.3668 -0.1125
  385loPI   C3A 6153  15.685   8.865   8.968 -0.1495 -0.2633 -0.0104
  385loPI   C4A 6154  15.460   8.988   8.512  0.1425  0.0602 -0.1896
  385loPI   C5A 6155  15.339   8.710   8.119  0.3476  0.1596 -0.4633
  385loPI   C6A 6156  15.496   8.718   7.642  0.2600  0.1700 -0.0546
  385loPI   C1B 6157  15.694   8.488   9.785 -0.1729 -0.1422 -0.0322
  385loPI   C2B 6158  15.580   8.494   9.347  0.0958  0.0496  0.0191
  385loPI   C3B 6159  15.435   8.280   8.921  0.2283  0.2681 -0.0429
  385loPI   C4B 6160  15.409   8.435   8.500  0.1772 -0.0797 -0.0204
  386loPI    C1 6161  10.883  11.383  10.722 -0.0424  0.0791  0.0434
  386loPI    C2 6162  10.965  11.306  11.106 -0.0204 -0.1255 -0.0015
  386loPI    C3 6163  10.592  11.262  10.968 -0.0447  0.0259  0.0146
  386loPI   PO4 6164  10.980  11.312  10.610 -0.1474 -0.0199 -0.0843
  386loPI   GL1 6165  10.989  11.349  10.241  0.1717  0.1063 -0.0308
  386loPI   GL2 6166  10.855  11.101  10.067  0.1968 -0.2261  0.0379
  386loPI   C1A 6167  10.975  11.546   9.803  0.2249 -0.0270  0.1023
  386loPI   C2A 6168  11.066  11.661   9.303  0.1756  0.2832 -0.0460
  386loPI   C3A 6169  11.367  11.722   9.045 -0.1691  0.0825  0.1463
  386loPI   C4A 6170  11.488  11.741   8.545  0.4807  0.1522 -0.2769
  386loPI   C5A 6171  11.656  11.772   8.176 -0.1255  0.0664 -0.0827
  386loPI   C6A 6172  11.680  12.121   7.905 -0.0338 -0.0487 -0.0323
  386loPI   C1B 6173  10.665  11.033   9.558  0.0830 -0.3277 -0.1319
  386loPI   C2B 6174  10.640  10.994   9.043  0.1071  0.1039  0.1640
  386loPI   C3B 6175  10.568  11.138   8.710 -0.0990  0.1099  0.2751
  386loPI   C4B 6176  10.289  11.160   8.323 -0.0456  0.1211  0.2364
  387loPI    C1 6177   6.605  11.164  10.616  0.0495 -0.3184  0.0652
  387loPI    C2 6178   6.512  11.507  10.801  0.2897 -0.3115  0.1770
  387loPI    C3 6179   6.293  11.178  10.866 -0.1560 -0.0985 -0.1986
  387loPI   PO4 6180   6.538  11.130  10.369 -0.3000 -0.1762 -0.0413
  387loPI   GL1 6181   6.791  10.952  10.016  0.1080 -0.1605  0.0327
  387loPI   GL2 6182   6.914  11.270  10.014  0.0710 -0.1403  0.2248
  387loPI   C1A 6183   7.052  11.081   9.580 -0.1256  0.0462 -0.1933
  387loPI   C2A 6184   7.330  11.256   9.397 -0.1135  0.2426 -0.0107
  387loPI   C3A 6185   7.622  11.224   9.155 -0.0286 -0.1243 -0.1623
  387loPI   C4A 6186   7.480  11.070   8.792  0.1062  0.0019  0.4687
  387loPI   C5A 6187   7.583  10.993   8.386 -0.0101  0.1831  0.2081
  387loPI   C6A 6188   7.589  11.122   7.931 -0.1421 -0.2389  0.0031
  387loPI   C1B 6189   6.622  11.284   9.670 -0.1811 -0.2243 -0.1258
  387loPI   C2B 6190   6.643  11.207   9.329  0.0501 -0.1331  0.0011
  387loPI   C3B 6191   6.538  11.371   8.899 -0.2489 -0.1287  0.0068
  387loPI   C4B 6192   6.594  11.507   8.546 -0.0720  0.0729  0.1682
  388loPI    C1 6193   9.188   7.879  10.381 -0.0305 -0.0482 -0.1690
  388loPI    C2 6194   9.515   8.049  10.537 -0.0693  0.0918 -0.2382
  388loPI    C3 6195   9.172   8.049  10.743 -0.0390 -0.0108 -0.1869
  388loPI   PO4 6196   9.185   7.853  10.199 -0.2231  0.2958  0.0060
  388loPI   GL1 6197   9.134   8.130   9.861 -0.1117 -0.1850 -0.1284
  388loPI   GL2 6198   8.960   8.344   9.785 -0.3829  0.1309  0.0964
  388loPI   C1A 6199   9.354   7.918   9.509  0.0160  0.0668  0.1343
  388loPI   C2A 6200   9.248   7.838   9.145 -0.0964  0.0564  0.2247
  388loPI   C3A 6201   8.958   7.981   8.774 -0.1592 -0.2596  0.1241
  388loPI   C4A 6202   8.946   8.158   8.414  0.1002 -0.0070  0.2200
  388loPI   C5A 6203   9.121   8.301   8.067  0.0201 -0.1380  0.0451
  388loPI   C6A 6204   8.992   8.687   7.858 -0.2851 -0.1126  0.2656
  388loPI   C1B 6205   9.066   8.288   9.403  0.0852  0.1359 -0.3364
  388loPI   C2B 6206   9.127   8.434   8.950 -0.1125  0.0311  0.1810
  388loPI   C3B 6207   9.404   8.526   8.614  0.2059  0.0346 -0.1300
  388loPI   C4B 6208   9.822   8.319   8.384  0.0263  0.0190 -0.0963
  389loPI    C1 6209   0.457   9.251  10.330 -0.3232 -0.0465 -0.2416
  389loPI    C2 6210   0.699   8.991  10.145 -0.0729  0.1809 -0.2398
  389loPI    C3 6211   0.533   8.895  10.497  0.2520  0.1347 -0.0961
  389loPI   PO4 6212   0.358   9.367  10.169 -0.1192  0.0540  0.0721
  389loPI   GL1 6213   0.499   9.703   9.910 -0.0507 -0.1393  0.2354
  389loPI   GL2 6214   0.375   9.933   9.749  0.0059  0.0338 -0.1370
  389loPI   C1A 6215   0.718   9.426   9.659 -0.2699  0.0932  0.1234
  389loPI   C2A 6216   0.736   9.473   9.163  0.2249  0.2349  0.2270
  389loPI   C3A 6217   0.738   9.664   8.698 -0.3234 -0.0087  0.0932
  389loPI   C4A 6218   0.773   9.921   8.316  0.0805 -0.2348 -0.2396
  389loPI   C5A 6219   0.425  10.174   8.086 -0.1583  0.0875  0.1640
  389loPI   C6A 6220   0.111  10.350   7.907  0.0640 -0.0791 -0.2157
  389loPI   C1B 6221   0.642   9.960   9.355  0.0405  0.1292  0.2176
  389loPI   C2B 6222   0.596  10.148   9.017  0.2742  0.0958  0.2339
  389loPI   C3B 6223   0.499  10.304   8.651  0.0818  0.1896  0.1174
  389loPI   C4B 6224   0.604  10.607   8.274  0.3976  0.0075  0.0753
  390loPI    C1 6225  10.399  10.222  10.434  0.0301 -0.1286  0.1728
  390loPI    C2 6226  10.006  10.192  10.366  0.0709  0.1360 -0.2140
  390loPI    C3 6227  10.183   9.947  10.628 -0.3439 -0.0036 -0.0557
  390loPI   PO4 6228  10.394  10.476  10.447  0.1814  0.1964 -0.0907
  390loPI   GL1 6229  10.416  10.708  10.108 -0.3898  0.3711  0.1683
  390loPI   GL2 6230  10.757  10.622  10.050 -0.2895 -0.2558  0.0978
  390loPI   C1A 6231  10.359  10.614   9.593  0.3058  0.1889  0.0925
  390loPI   C2A 6232  10.330  10.666   9.270 -0.0838 -0.3594 -0.3718
  390loPI   C3A 6233  10.272  10.723   8.823  0.3654  0.1193 -0.0692
  390loPI   C4A 6234  10.063  10.701   8.436 -0.2765 -0.3041 -0.3533
  390loPI   C5A 6235   9.851  10.483   8.147 -0.1458  0.0436 -0.1470
  390loPI   C6A 6236   9.746  10.037   7.962  0.1224 -0.1824  0.0824
  390loPI   C1B 6237  10.928  10.588   9.567  0.3421  0.4513  0.0312
  390loPI   C2B 6238  10.800  10.566   9.205  0.2157  0.3874 -0.1503
  390loPI   C3B 6239  10.755  10.500   8.750 -0.1064  0.0302 -0.0747
  390loPI   C4B 6240  10.570  10.668   8.434  0.0350  0.1473  0.1070
  391loPI    C1 6241   7.755   4.723  10.407 -0.0433  0.0250 -0.1085
  391loPI    C2 6242   7.437   4.943  10.513 -0.2047 -0.2365 -0.0403
  391loPI    C3 6243   7.650   4.751  10.792  0.3055  0.3162 -0.0295
  391loPI   PO4 6244   7.782   4.700  10.156  0.0073 -0.1360  0.1310
  391loPI   GL1 6245   7.898   4.876   9.798  0.0458  0.2015 -0.0851
  391loPI   GL2 6246   7.583   4.635   9.684 -0.0240  0.0247 -0.2546
  391loPI   C1A 6247   8.099   4.918   9.525 -0.2815 -0.1454  0.1530
  391loPI   C2A 6248   8.216   5.175   9.191 -0.2644  0.0654 -0.2660
  391loPI   C3A 6249   8.196   5.334   8.748 -0.2576  0.1091 -0.1937
  391loPI   C4A 6250   8.278   5.554   8.307  0.2881  0.1110  0.1419
  391loPI   C5A 6251   8.250   5.726   7.859  0.1589 -0.2079 -0.1052
  391loPI   C6A 6252   8.232   5.507   7.443 -0.2598 -0.1139  0.3032
  391loPI   C1B 6253   7.592   4.787   9.320  0.2539  0.0670  0.2932
  391loPI   C2B 6254   7.752   4.740   8.997  0.0927 -0.1012  0.1233
  391loPI   C3B 6255   7.813   4.729   8.469  0.1727 -0.0963 -0.0400
  391loPI   C4B 6256   7.706   4.850   8.032 -0.2918  0.1996 -0.0090
  392loPI    C1 6257  17.633   8.751  10.280 -0.0167 -0.2231 -0.2865
  392loPI    C2 6258  17.487   8.568  10.605 -0.0078  0.0244 -0.1411
  392loPI    C3 6259  17.794   8.407  10.406 -0.1140 -0.2087 -0.1192
  392loPI   PO4 6260  17.483   8.825  10.209  0.0602 -0.1258 -0.0608
  392loPI   GL1 6261  17.583   8.818   9.821 -0.0427  0.1899  0.0310
  392loPI   GL2 6262  17.390   9.024   9.738 -0.3018  0.5744 -0.1589
  392loPI   C1A 6263  17.816   9.060   9.491 -0.3064  0.1103 -0.1281
  392loPI   C2A 6264  17.807   9.063   9.133  0.0505  0.0571  0.0250
  392loPI   C3A 6265  17.836   9.244   8.686  0.0838  0.0523 -0.0774
  392loPI   C4A 6266  17.883   9.369   8.284 -0.1585 -0.0686  0.0313
  392loPI   C5A 6267  17.637   9.103   7.893 -0.1073  0.0280  0.0265
  392loPI   C6A 6268  17.866   8.736   7.673  0.0247  0.0871 -0.1569
  392loPI   C1B 6269  17.360   8.916   9.345  0.1653 -0.0949 -0.0604
  392loPI   C2B 6270  17.341   8.873   9.008 -0.1595 -0.0560 -0.0317
  392loPI   C3B 6271  17.590   8.668   8.673  0.0124  0.1612 -0.0547
  392loPI   C4B 6272  17.763   8.854   8.328 -0.4638 -0.2611  0.0804
  393loPI    C1 6273   3.974  14.800  10.181 -0.1197 -0.3016 -0.0461
  393loPI    C2 6274   3.844  15.023  10.486  0.2423 -0.0372 -0.0773
  393loPI    C3 6275   3.705  14.651  10.436 -0.1829  0.0879  0.1219
  393loPI   PO4 6276   3.931  14.991   9.916  0.1382 -0.0875  0.2743
  393loPI   GL1 6277   4.003  14.916   9.491  0.0501  0.2977 -0.0766
  393loPI   GL2 6278   4.283  14.904   9.407 -0.0520  0.0767  0.0764
  393loPI   C1A 6279   3.826  14.912   9.105 -0.0581 -0.0682  0.2752
  393loPI   C2A 6280   3.974  15.051   8.604  0.1109  0.2618  0.0487
  393loPI   C3A 6281   4.088  15.272   8.251 -0.0741  0.0783  0.0952
  393loPI   C4A 6282   4.220  15.645   7.927  0.1941  0.0446 -0.2288
  393loPI   C5A 6283   4.353  15.836   7.579  0.3016 -0.2153 -0.1484
  393loPI   C6A 6284   4.462  15.523   7.235  0.0323 -0.1567 -0.5004
  393loPI   C1B 6285   4.391  14.966   8.940  0.2306  0.0487 -0.1030
  393loPI   C2B 6286   4.439  14.906   8.479  0.1216  0.1589  0.0322
  393loPI   C3B 6287   4.456  14.981   8.034  0.0191 -0.3937  0.2853
  393loPI   C4B 6288   4.871  15.005   7.789  0.3279  0.0103 -0.1124
  394loPI    C1 6289   4.443   7.975  10.529 -0.1850  0.1929  0.0167
  394loPI    C2 6290   4.177   7.677  10.510  0.0441 -0.0063 -0.1154
  394loPI    C3 6291   4.371   7.750  10.852 -0.1878  0.1486 -0.0147
  394loPI   PO4 6292   4.353   8.143  10.427 -0.2476 -0.0393  0.2255
  394loPI   GL1 6293   4.148   8.308  10.008 -0.4340  0.0844 -0.0574
  394loPI   GL2 6294   4.345   8.685   9.940 -0.1245 -0.2091  0.1281
  394loPI   C1A 6295   4.171   8.213   9.582  0.3910  0.0729  0.0757
  394loPI   C2A 6296   3.959   8.037   9.268 -0.3398  0.0167  0.3298
  394loPI   C3A 6297   4.034   8.101   8.864 -0.1441  0.0675  0.2124
  394loPI   C4A 6298   3.983   8.024   8.502  0.0015  0.0166  0.2001
  394loPI   C5A 6299   4.204   7.919   8.045 -0.0001 -0.1911 -0.2896
  394loPI   C6A 6300   3.907   7.832   7.704 -0.1918  0.0249 -0.1636
  394loPI   C1B 6301   4.235   8.716   9.524 -0.0459 -0.3493  0.1893
  394loPI   C2B 6302   4.250   8.470   9.116  0.3320  0.2181 -0.3941
  394loPI   C3B 6303   4.296   8.461   8.638  0.4046  0.0557  0.0207
  394loPI   C4B 6304   4.158   8.465   8.282 -0.2103 -0.0116  0.0179
  395loPI    C1 6305  13.996  16.566  11.098 -0.0145 -0.1074 -0.0107
  395loPI    C2 6306  13.809  16.296  11.327 -0.4171  0.1402 -0.0373
  395loPI    C3 6307  14.015  16.594  11.496 -0.1522 -0.0571 -0.0070
  395loPI   PO4 6308  14.166  16.403  10.877 -0.0338  0.5989  0.1756
  395loPI   GL1 6309  14.190  16.505  10.413 -0.2455 -0.1461  0.2270
  395loPI   GL2 6310  13.899  16.472  10.275  0.1858 -0.2704  0.1474
  395loPI   C1A 6311  14.319  16.545  10.013 -0.2469  0.1395  0.2389
  395loPI   C2A 6312  14.147  16.807   9.625  0.1213  0.1247 -0.0887
  395loPI   C3A 6313  14.209  17.188   9.296 -0.0582 -0.1301 -0.0345
  395loPI   C4A 6314  14.516  17.299   8.983  0.0701  0.0607  0.2019
  395loPI   C5A 6315  14.641  17.384   8.512  0.3080  0.3304  0.5581
  395loPI   C6A 6316  14.759  17.405   8.163  0.0830 -0.1186  0.0078
  395loPI   C1B 6317  13.885  16.409   9.780 -0.2930  0.2750 -0.1491
  395loPI   C2B 6318  14.064  16.311   9.292  0.2354  0.0071 -0.0091
  395loPI   C3B 6319  13.845  16.299   8.906  0.0702  0.1040 -0.0672
  395loPI   C4B 6320  13.501  16.180   8.971  0.1363  0.2854 -0.0311
  396loPI    C1 6321  16.116  17.945  10.423 -0.1438 -0.0608  0.1527
  396loPI    C2 6322  16.141  18.333  10.328 -0.2431 -0.1020 -0.0477
  396loPI    C3 6323  16.147  18.220  10.712 -0.1347  0.0912  0.0088
  396loPI   PO4 6324  16.322  17.810  10.249  0.1420 -0.3780 -0.0673
  396loPI   GL1 6325  16.538  17.844   9.868  0.2244 -0.1243 -0.1612
  396loPI   GL2 6326  16.265  17.968   9.766  0.2221 -0.0031 -0.1615
  396loPI   C1A 6327  16.798  17.847   9.463  0.0788  0.1507 -0.0413
  396loPI   C2A 6328  16.910  18.027   9.060 -0.0016  0.0790  0.3652
  396loPI   C3A 6329  16.735  17.904   8.666  0.0341 -0.0801  0.0560
  396loPI   C4A 6330  16.957  17.959   8.233  0.3498 -0.0478 -0.2099
  396loPI   C5A 6331  17.177  18.232   7.992  0.0333 -0.1741 -0.1021
  396loPI   C6A 6332  17.491  18.571   7.750  0.0195 -0.3561  0.1502
  396loPI   C1B 6333  16.324  17.945   9.282 -0.2016  0.2036  0.1532
  396loPI   C2B 6334  16.338  18.062   8.967  0.1809  0.1891  0.0438
  396loPI   C3B 6335  16.365  18.223   8.557 -0.0649  0.2535  0.0797
  396loPI   C4B 6336  16.360  17.917   8.195  0.0377 -0.1560 -0.0031
  397loPI    C1 6337   4.077  15.823  10.254 -0.0814 -0.0262 -0.2047
  397loPI    C2 6338   3.736  15.970  10.403  0.0903 -0.0208  0.1952
  397loPI    C3 6339   4.038  16.217  10.315  0.0091 -0.0300 -0.1193
  397loPI   PO4 6340   3.920  15.596  10.024  0.1432 -0.0288  0.1723
  397loPI   GL1 6341   4.045  15.444   9.672 -0.1661  0.3336  0.1484
  397loPI   GL2 6342   4.327  15.309   9.670 -0.3943 -0.2097 -0.3199
  397loPI   C1A 6343   3.661  15.348   9.392  0.0440 -0.1600 -0.1751
  397loPI   C2A 6344   3.621  15.328   8.974 -0.1657  0.1401  0.1485
  397loPI   C3A 6345   3.653  15.424   8.566 -0.1119  0.0370  0.0088
  397loPI   C4A 6346   3.718  15.651   8.033  0.0074  0.1003 -0.1727
  397loPI   C5A 6347   3.736  16.015   7.744 -0.0559  0.0504  0.1086
  397loPI   C6A 6348   3.611  16.358   7.506 -0.1105  0.0809  0.1132
  397loPI   C1B 6349   4.160  15.338   9.203  0.0889  0.1508 -0.2272
  397loPI   C2B 6350   4.120  15.503   8.816 -0.1667 -0.0204  0.3482
  397loPI   C3B 6351   4.032  15.763   8.402  0.1446 -0.2339 -0.0591
  397loPI   C4B 6352   4.045  16.114   8.103 -0.0724 -0.0476  0.0576
  398loPI    C1 6353   3.961  13.554  10.370 -0.2467 -0.1345  0.1775
  398loPI    C2 6354   4.178  13.885  10.428  0.1562 -0.3586 -0.0077
  398loPI    C3 6355   4.003  13.704  10.738 -0.1235  0.0589  0.0867
  398loPI   PO4 6356   4.114  13.410  10.157 -0.4098  0.1913 -0.0979
  398loPI   GL1 6357   4.331  13.460   9.756 -0.0260  0.0476 -0.1276
  398loPI   GL2 6358   4.239  13.220   9.708 -0.0396 -0.0535 -0.2679
  398loPI   C1A 6359   4.650  13.368   9.365  0.0390  0.1736 -0.0874
  398loPI   C2A 6360   4.943  13.305   9.015 -0.1381  0.0081 -0.1610
  398loPI   C3A 6361   4.972  12.979   8.783  0.0494  0.1451 -0.0388
  398loPI   C4A 6362   5.210  12.887   8.509  0.0053 -0.1281 -0.0123
  398loPI   C5A 6363   5.374  12.946   8.110 -0.1391  0.2668  0.2769
  398loPI   C6A 6364   5.077  13.061   7.737 -0.1737  0.3162 -0.3559
  398loPI   C1B 6365   4.228  13.146   9.227 -0.1585  0.1581  0.1034
  398loPI   C2B 6366   4.326  13.199   8.739  0.2360  0.2958  0.1558
  398loPI   C3B 6367   4.019  13.112   8.393  0.0141  0.0349  0.2200
  398loPI   C4B 6368   3.956  13.200   7.985  0.1702 -0.0921 -0.3475
  399loPI    C1 6369  17.333   9.933  10.308  0.2669  0.0430 -0.2350
  399loPI    C2 6370  17.429   9.941  10.696  0.0030  0.1732 -0.1703
  399loPI    C3 6371  17.443   9.596  10.493  0.2316  0.1215 -0.0697
  399loPI   PO4 6372  17.508  10.147  10.217 -0.1590  0.1765  0.1825
  399loPI   GL1 6373  17.596  10.203   9.815  0.0533 -0.2180 -0.0605
  399loPI   GL2 6374  17.831   9.960   9.665 -0.0888 -0.1519 -0.0351
  399loPI   C1A 6375  17.374  10.002   9.417  0.0874  0.1167  0.1858
  399loPI   C2A 6376  17.735   9.860   9.139  0.2290 -0.1337 -0.2393
  399loPI   C3A 6377  17.653   9.718   8.695 -0.2199 -0.0945  0.1844
  399loPI   C4A 6378  17.450   9.542   8.434 -0.0373  0.0603 -0.0443
  399loPI   C5A 6379  17.374   9.111   8.414  0.1921  0.1694 -0.2606
  399loPI   C6A 6380  16.979   9.009   8.230  0.2914 -0.1451  0.0702
  399loPI   C1B 6381  17.919  10.316   9.436 -0.4205 -0.1514 -0.1017
  399loPI   C2B 6382  17.930  10.603   9.149 -0.1081 -0.1476  0.0952
  399loPI   C3B 6383  17.979  10.839   8.777  0.3542  0.0255  0.1388
  399loPI   C4B 6384  18.002  11.206   8.561 -0.2679  0.2823 -0.5315
  400loPI    C1 6385   4.881  12.757  10.615  0.0608  0.3302 -0.1757
  400loPI    C2 6386   4.613  12.997  10.790 -0.2008 -0.0992  0.0301
  400loPI    C3 6387   4.915  12.845  11.004 -0.0253  0.0568 -0.1038
  400loPI   PO4 6388   4.878  12.866  10.368 -0.0639  0.1616  0.2410
  400loPI   GL1 6389   4.960  12.760   9.975 -0.0089  0.2017  0.1471
  400loPI   GL2 6390   4.590  12.662   9.979  0.0612 -0.0027 -0.0347
  400loPI   C1A 6391   5.103  12.412   9.696 -0.2325  0.0290  0.0285
  400loPI   C2A 6392   4.804  12.216   9.410 -0.3159 -0.3261 -0.0143
  400loPI   C3A 6393   4.550  11.922   9.076 -0.0664 -0.0746 -0.0567
  400loPI   C4A 6394   4.463  11.735   8.671  0.1827  0.0482 -0.2748
  400loPI   C5A 6395   4.312  11.776   8.350 -0.1581 -0.2235 -0.5247
  400loPI   C6A 6396   4.606  11.718   8.061  0.2109 -0.1047  0.0263
  400loPI   C1B 6397   4.429  12.772   9.577 -0.0116  0.1469  0.1396
  400loPI   C2B 6398   4.561  12.751   9.065 -0.1644  0.0782 -0.3240
  400loPI   C3B 6399   4.617  12.740   8.629 -0.0728  0.2001 -0.2137
  400loPI   C4B 6400   4.823  12.614   8.242 -0.0770  0.0956 -0.1140
  401loPI    C1 6401   4.985   6.550  10.437 -0.3334 -0.0028  0.2005
  401loPI    C2 6402   5.211   6.603  10.764  0.1703  0.0231 -0.1398
  401loPI    C3 6403   4.981   6.277  10.730  0.0203  0.0783  0.2863
  401loPI   PO4 6404   5.137   6.682  10.267 -0.2422 -0.3070 -0.2053
  401loPI   GL1 6405   5.059   6.751   9.799  0.1324  0.2224 -0.1426
  401loPI   GL2 6406   5.366   6.740   9.836 -0.1944  0.1535 -0.2026
  401loPI   C1A 6407   4.901   6.510   9.537 -0.0880  0.0254 -0.1359
  401loPI   C2A 6408   4.966   6.401   9.058 -0.0677  0.0389  0.2165
  401loPI   C3A 6409   5.006   6.288   8.711 -0.2103 -0.1540  0.3147
  401loPI   C4A 6410   4.933   6.153   8.235  0.4726 -0.1551 -0.0612
  401loPI   C5A 6411   4.555   5.944   8.042 -0.0102  0.3250 -0.1882
  401loPI   C6A 6412   4.443   5.700   7.570 -0.0443  0.3547  0.1654
  401loPI   C1B 6413   5.431   6.644   9.456 -0.1297  0.0741  0.1245
  401loPI   C2B 6414   5.351   6.666   8.992  0.1178 -0.0368  0.1341
  401loPI   C3B 6415   5.383   6.640   8.588  0.1017  0.0131  0.0534
  401loPI   C4B 6416   5.361   6.351   8.176 -0.2195 -0.0435  0.1224
  402loPI    C1 6417  13.575   0.357  10.773 -0.1988  0.0907 -0.0301
  402loPI    C2 6418  13.301   0.344  11.064 -0.1086 -0.1305  0.0471
  402loPI    C3 6419  13.546   0.033  11.006  0.2372  0.1285  0.0859
  402loPI   PO4 6420  13.514   0.349  10.508 -0.3367 -0.1319  0.1966
  402loPI   GL1 6421  13.601   0.474  10.097  0.1104 -0.2088  0.0276
  402loPI   GL2 6422  13.521   0.232   9.995 -0.2023  0.2605 -0.2799
  402loPI   C1A 6423  13.640   0.520   9.624  0.2035 -0.1473 -0.1390
  402loPI   C2A 6424  13.538   0.464   9.192 -0.1485 -0.2700  0.0416
  402loPI   C3A 6425  13.486   0.517   8.725  0.4076 -0.2422  0.1509
  402loPI   C4A 6426  13.379   0.580   8.330  0.0611 -0.2162  0.1707
  402loPI   C5A 6427  13.383   0.826   8.003 -0.1532 -0.2528  0.2627
  402loPI   C6A 6428  13.121   1.036   7.797 -0.1110  0.4177 -0.1834
  402loPI   C1B 6429  13.515  -0.018   9.647 -0.1527  0.2890  0.1185
  402loPI   C2B 6430  13.587  -0.085   9.221 -0.0789 -0.1691 -0.0993
  402loPI   C3B 6431  13.601   0.045   8.833 -0.1102 -0.0454  0.1205
  402loPI   C4B 6432  13.843   0.208   8.529  0.2460 -0.2597  0.1359
  403loPI    C1 6433  18.173  11.527  10.680 -0.2671  0.1769  0.1216
  403loPI    C2 6434  18.373  11.518  11.026 -0.1929  0.1108  0.0776
  403loPI    C3 6435  18.104  11.234  10.944  0.0348 -0.0676 -0.0634
  403loPI   PO4 6436  18.275  11.827  10.531  0.2711  0.2511  0.0986
  403loPI   GL1 6437  18.362  11.828  10.143 -0.0226 -0.2762  0.0824
  403loPI   GL2 6438  18.124  12.050   9.950 -0.0311  0.2189  0.0854
  403loPI   C1A 6439  18.528  11.908   9.719 -0.1180 -0.0128  0.1505
  403loPI   C2A 6440  18.459  11.896   9.273  0.0822 -0.0109  0.0543
  403loPI   C3A 6441  18.395  11.959   8.913  0.1456  0.1578 -0.2024
  403loPI   C4A 6442  18.573  11.936   8.499  0.0811 -0.0362  0.3139
  403loPI   C5A 6443  18.821  11.955   8.094  0.1178  0.1359  0.0178
  403loPI   C6A 6444  18.894  12.230   7.755 -0.3818 -0.0983 -0.2026
  403loPI   C1B 6445  18.031  12.072   9.514 -0.1995 -0.1935  0.0639
  403loPI   C2B 6446  18.032  12.245   9.121 -0.0059 -0.0769  0.0193
  403loPI   C3B 6447  17.997  12.052   8.654  0.0300  0.0804  0.0692
  403loPI   C4B 6448  17.675  12.087   8.294  0.2123 -0.0638  0.0435
  404loPI    C1 6449   8.237  15.922  10.752  0.0902 -0.0221 -0.0442
  404loPI    C2 6450   8.200  15.761  11.116  0.0028  0.1330  0.0160
  404loPI    C3 6451   8.480  16.038  11.048 -0.0168  0.1440 -0.0203
  404loPI   PO4 6452   8.215  15.717  10.622 -0.0882 -0.0970 -0.5091
  404loPI   GL1 6453   8.449  15.700  10.247  0.1558  0.0514  0.3085
  404loPI   GL2 6454   8.372  15.471  10.052 -0.0113  0.0406  0.3446
  404loPI   C1A 6455   8.308  15.932   9.975  0.0458 -0.4736  0.1487
  404loPI   C2A 6456   8.229  15.901   9.610  0.2451  0.0090  0.1198
  404loPI   C3A 6457   8.206  15.899   9.131 -0.0098  0.1174 -0.0676
  404loPI   C4A 6458   8.374  15.745   8.817 -0.1567 -0.1684 -0.2030
  404loPI   C5A 6459   8.737  15.868   8.612  0.1249 -0.0728 -0.0511
  404loPI   C6A 6460   8.955  16.142   8.324 -0.1013 -0.0813  0.3446
  404loPI   C1B 6461   8.408  15.394   9.691 -0.2412  0.1847  0.2354
  404loPI   C2B 6462   8.399  15.502   9.332 -0.1183  0.1836  0.2333
  404loPI   C3B 6463   8.228  15.223   8.965  0.2046 -0.2222  0.2097
  404loPI   C4B 6464   8.282  14.993   8.513 -0.0324 -0.2262  0.1643
  405loPI    C1 6465  13.402   3.630  10.002  0.1235  0.2785 -0.2160
  405loPI    C2 6466  13.057   3.426  10.005  0.2152  0.1233  0.0040
  405loPI    C3 6467  13.059   3.818  10.087  0.1318  0.0538  0.3539
  405loPI   PO4 6468  13.597   3.451   9.992 -0.0315  0.1285 -0.1643
  405loPI   GL1 6469  13.690   3.183   9.623 -0.0341  0.5584 -0.0976
  405loPI   GL2 6470  13.357   3.159   9.593 -0.0755 -0.1881 -0.1478
  405loPI   C1A 6471  13.647   3.209   9.204  0.1028  0.3264 -0.0607
  405loPI   C2A 6472  13.528   3.128   8.855 -0.1900  0.0416  0.0800
  405loPI   C3A 6473  13.313   3.171   8.511 -0.0807 -0.4413  0.0319
  405loPI   C4A 6474  13.255   3.362   8.182  0.0613 -0.1740  0.1320
  405loPI   C5A 6475  13.116   3.140   7.849 -0.1712 -0.0569 -0.2917
  405loPI   C6A 6476  12.919   2.926   7.488 -0.1132 -0.3004  0.0957
  405loPI   C1B 6477  13.187   2.952   9.270 -0.0300 -0.4122  0.1719
  405loPI   C2B 6478  13.040   2.870   8.827 -0.3897  0.1483 -0.0286
  405loPI   C3B 6479  13.069   2.789   8.277 -0.2279  0.3005 -0.1779
  405loPI   C4B 6480  13.216   2.605   7.838 -0.7443 -0.5162 -0.0538
  406POPI    C1 6481  18.373   9.367  10.515 -0.0017  0.0969 -0.0080
  406POPI    C2 6482  18.228   9.231  10.862  0.0139 -0.1812 -0.1079
  406POPI    C3 6483  18.557   9.067  10.706  0.1507  0.1106 -0.1317
  406POPI   PO4 6484  18.242   9.400  10.324  0.4020 -0.1319  0.1665
  406POPI   GL1 6485  18.331   9.350   9.952  0.2509 -0.3048  0.0168
  406POPI   GL2 6486  18.061   9.385   9.883  0.0784  0.0459  0.0031
  406POPI   C1A 6487  18.606   9.464   9.546  0.0479 -0.0124 -0.5176
  406POPI   D2A 6488  18.512   9.549   9.168 -0.1393  0.2328 -0.0476
  406POPI   C3A 6489  18.660   9.839   8.893  0.0316 -0.3137  0.1487
  406POPI   C4A 6490  18.620   9.964   8.487  0.2986  0.1655  0.1562
  406POPI   C1B 6491  18.117   9.493   9.526  0.3179 -0.1459 -0.1456
  406POPI   C2B 6492  18.026   9.477   9.102  0.1257  0.3579 -0.2470
  406POPI   C3B 6493  18.194   9.667   8.783  0.0070 -0.1484 -0.0977
  406POPI   C4B 6494  18.051   9.892   8.457  0.0242 -0.0720  0.0037
  407POPI    C1 6495  13.747   5.568  10.101 -0.3261 -0.0547  0.2080
  407POPI    C2 6496  13.768   5.488  10.492  0.2086 -0.0117  0.1953
  407POPI    C3 6497  14.002   5.290  10.235 -0.0782  0.0202 -0.0964
  407POPI   PO4 6498  13.684   5.860  10.142 -0.2200  0.0701  0.2891
  407POPI   GL1 6499  13.527   6.087   9.763 -0.0938 -0.3124 -0.0276
  407POPI   GL2 6500  13.394   5.996   9.571 -0.2779  0.3090  0.3175
  407POPI   C1A 6501  13.801   6.295   9.374 -0.2128  0.0990 -0.0444
  407POPI   D2A 6502  14.146   6.358   9.329 -0.2685  0.0893  0.0904
  407POPI   C3A 6503  14.429   6.289   8.988  0.3373  0.0785 -0.1375
  407POPI   C4A 6504  14.584   6.178   8.568 -0.1922  0.2318 -0.1745
  407POPI   C1B 6505  13.443   6.054   9.160 -0.1882 -0.1359 -0.0303
  407POPI   C2B 6506  13.451   6.340   8.831 -0.1081  0.1078 -0.1759
  407POPI   C3B 6507  13.580   6.541   8.466  0.2658 -0.0362 -0.0662
  407POPI   C4B 6508  13.501   6.584   7.962  0.2667 -0.0749  0.1413
  408POPI    C1 6509   3.794  17.333  10.496 -0.0366  0.2364  0.3186
  408POPI    C2 6510   4.003  17.302  10.836 -0.0596  0.1007  0.3207
  408POPI    C3 6511   3.766  17.002  10.718  0.1736  0.0243  0.0361
  408POPI   PO4 6512   3.969  17.403  10.280  0.1113 -0.3539  0.4141
  408POPI   GL1 6513   3.885  17.377   9.876 -0.2586  0.0936  0.3683
  408POPI   GL2 6514   3.773  17.110   9.805 -0.1241  0.0840 -0.2637
  408POPI   C1A 6515   3.845  17.511   9.427 -0.1141  0.0561 -0.1170
  408POPI   D2A 6516   3.821  17.780   9.218  0.1818 -0.1322  0.2788
  408POPI   C3A 6517   3.745  17.700   8.743 -0.0779 -0.4156  0.2060
  408POPI   C4A 6518   3.611  17.492   8.428  0.1814 -0.0984 -0.1363
  408POPI   C1B 6519   3.832  16.973   9.438  0.3219  0.1447 -0.0574
  408POPI   C2B 6520   3.687  17.043   9.087  0.0070 -0.0572 -0.1035
  408POPI   C3B 6521   3.648  16.884   8.669  0.0495 -0.0495  0.1763
  408POPI   C4B 6522   3.367  16.927   8.346 -0.0740 -0.1543 -0.2563
  409POPI    C1 6523   4.572  16.017  10.339 -0.0852  0.0406  0.0090
  409POPI    C2 6524   4.673  16.258  10.641 -0.1196  0.1718 -0.0830
  409POPI    C3 6525   4.342  16.036  10.666 -0.0116  0.0244  0.0620
  409POPI   PO4 6526   4.535  16.143  10.107  0.4224 -0.1712  0.0476
  409POPI   GL1 6527   4.559  15.928   9.725 -0.1094 -0.0543 -0.1313
  409POPI   GL2 6528   4.318  15.850   9.689 -0.0014  0.1335 -0.0864
  409POPI   C1A 6529   4.657  16.150   9.282 -0.3209 -0.0900  0.1776
  409POPI   D2A 6530   4.778  16.599   9.136 -0.1132  0.0825  0.1389
  409POPI   C3A 6531   4.612  16.735   8.766 -0.1391 -0.1121 -0.0623
  409POPI   C4A 6532   4.553  17.020   8.392 -0.2048  0.1214 -0.2222
  409POPI   C1B 6533   4.375  15.766   9.239 -0.0996  0.0671 -0.1019
  409POPI   C2B 6534   4.437  15.921   8.805 -0.3031 -0.2885  0.1239
  409POPI   C3B 6535   4.767  16.272   8.715 -0.1048 -0.0245  0.2071
  409POPI   C4B 6536   5.140  16.272   8.444  0.0834  0.1243  0.0194
  410POPI    C1 6537  13.270  15.902  11.323 -0.3869  0.1428  0.0732
  410POPI    C2 6538  13.181  15.524  11.227 -0.0664  0.1583 -0.3106
  410POPI    C3 6539  12.888  15.788  11.292 -0.2928 -0.1463 -0.0599
  410POPI   PO4 6540  13.600  15.857  11.177  0.0176  0.0526  0.0264
  410POPI   GL1 6541  13.656  15.550  10.753  0.1939  0.0542  0.1134
  410POPI   GL2 6542  13.575  15.297  10.575  0.2843 -0.1382  0.3560
  410POPI   C1A 6543  13.997  15.482  10.496 -0.0581 -0.0636  0.2308
  410POPI   D2A 6544  14.425  15.552  10.251  0.0392 -0.1260  0.1252
  410POPI   C3A 6545  14.477  15.462   9.834  0.0245  0.0431  0.3671
  410POPI   C4A 6546  14.494  15.317   9.435 -0.2935  0.2506  0.2529
  410POPI   C1B 6547  13.461  15.374  10.226 -0.3152  0.0733 -0.0034
  410POPI   C2B 6548  13.564  15.506   9.874  0.0839 -0.1612 -0.0210
  410POPI   C3B 6549  13.476  15.541   9.479 -0.0237 -0.2079 -0.1692
  410POPI   C4B 6550  13.144  15.428   9.255 -0.1575  0.0253  0.0966
  411POPI    C1 6551   6.272  14.038  10.782 -0.2504 -0.0129 -0.0686
  411POPI    C2 6552   6.559  13.798  10.923 -0.2969 -0.0778 -0.0840
  411POPI    C3 6553   6.431  14.107  11.143 -0.0708  0.0751 -0.1626
  411POPI   PO4 6554   6.345  14.062  10.536  0.1983  0.0016 -0.0427
  411POPI   GL1 6555   6.461  14.035  10.064 -0.1053 -0.1372 -0.3740
  411POPI   GL2 6556   6.787  13.819   9.975  0.1784 -0.0800 -0.0294
  411POPI   C1A 6557   6.375  14.165   9.676  0.1431 -0.1198 -0.0858
  411POPI   D2A 6558   6.382  14.352   9.154  0.2144 -0.2068  0.0738
  411POPI   C3A 6559   6.311  14.534   8.850  0.2989  0.2350 -0.2437
  411POPI   C4A 6560   6.478  14.571   8.371  0.1422  0.0604 -0.2277
  411POPI   C1B 6561   6.690  13.721   9.604 -0.0739  0.0763  0.1457
  411POPI   C2B 6562   6.737  13.828   9.208 -0.0783 -0.1176 -0.1062
  411POPI   C3B 6563   6.554  13.952   8.886  0.0339 -0.1119  0.0540
  411POPI   C4B 6564   6.678  14.199   8.564 -0.0917 -0.0928 -0.4036
  412POPI    C1 6565   9.828   6.496  10.477 -0.4049 -0.1989 -0.0186
  412POPI    C2 6566  10.108   6.410  10.750 -0.1693 -0.0576 -0.2108
  412POPI    C3 6567   9.721   6.357  10.836 -0.1142  0.2082  0.2344
  412POPI   PO4 6568   9.924   6.402  10.256 -0.0285 -0.3484  0.0048
  412POPI   GL1 6569   9.924   6.226   9.817  0.1440 -0.2586  0.0850
  412POPI   GL2 6570  10.020   5.988   9.572  0.0465 -0.0207 -0.3844
  412POPI   C1A 6571   9.758   6.412   9.483  0.3839 -0.0254  0.0170
  412POPI   D2A 6572   9.632   6.464   9.078  0.2580 -0.0697  0.5150
  412POPI   C3A 6573   9.755   6.719   8.723  0.2067  0.4147  0.1264
  412POPI   C4A 6574   9.873   6.613   8.360 -0.0908  0.1512  0.0252
  412POPI   C1B 6575  10.116   5.834   9.148  0.0729  0.2168  0.0950
  412POPI   C2B 6576   9.915   5.678   8.932 -0.4721  0.4111  0.0252
  412POPI   C3B 6577  10.047   5.456   8.460  0.1870  0.1137 -0.4663
  412POPI   C4B 6578  10.098   5.359   8.078  0.1316  0.1236  0.0425
  413POPI    C1 6579  15.605  12.080  10.837 -0.0841  0.2090  0.2096
  413POPI    C2 6580  15.601  11.799  11.122  0.1440 -0.0857 -0.0687
  413POPI    C3 6581  15.949  11.926  10.971  0.0315  0.1742 -0.1162
  413POPI   PO4 6582  15.393  12.058  10.735 -0.0320  0.3495 -0.0113
  413POPI   GL1 6583  15.150  12.020  10.384 -0.2841 -0.4321  0.2449
  413POPI   GL2 6584  15.307  11.754  10.113 -0.1601 -0.0152 -0.0050
  413POPI   C1A 6585  15.006  12.151   9.976  0.3610  0.3172  0.1564
  413POPI   D2A 6586  15.017  12.236   9.541  0.1769 -0.2168 -0.2224
  413POPI   C3A 6587  15.240  12.036   9.225  0.3209 -0.0862 -0.0377
  413POPI   C4A 6588  15.225  12.172   8.749  0.1359 -0.0895 -0.1012
  413POPI   C1B 6589  15.219  11.745   9.646 -0.1553  0.1099  0.0227
  413POPI   C2B 6590  15.119  11.536   9.265 -0.1796 -0.1038  0.4004
  413POPI   C3B 6591  15.026  11.588   8.817 -0.1718 -0.1600 -0.0473
  413POPI   C4B 6592  14.724  11.216   8.532  0.1723 -0.0354 -0.0161
  414POPI    C1 6593  12.262  11.048  10.861  0.2141  0.0386 -0.0106
  414POPI    C2 6594  12.504  10.773  11.020  0.0556 -0.0735  0.0395
  414POPI    C3 6595  12.125  10.800  11.143  0.0506  0.1213 -0.0161
  414POPI   PO4 6596  12.305  11.028  10.582  0.0624  0.0252  0.0591
  414POPI   GL1 6597  12.281  10.890  10.144  0.0544  0.0326  0.0266
  414POPI   GL2 6598  12.371  10.591  10.015 -0.2377  0.1896  0.1027
  414POPI   C1A 6599  12.550  11.049   9.862  0.1524 -0.0196  0.0375
  414POPI   D2A 6600  12.742  11.418   9.859  0.1266  0.1108  0.2697
  414POPI   C3A 6601  12.885  11.565   9.448 -0.1852 -0.0406  0.0229
  414POPI   C4A 6602  12.998  11.590   8.901 -0.0114  0.0847 -0.3385
  414POPI   C1B 6603  12.516  10.562   9.582 -0.0095  0.1635  0.3687
  414POPI   C2B 6604  12.475  10.537   9.088 -0.3159  0.0291 -0.2322
  414POPI   C3B 6605  12.596  10.551   8.667 -0.3664 -0.0355  0.0716
  414POPI   C4B 6606  12.733  10.984   8.405  0.0996  0.0918 -0.0282
  415POPI    C1 6607  11.473  15.360  11.262  0.1631  0.2132 -0.0262
  415POPI    C2 6608  11.376  15.130  11.575  0.1313  0.2283 -0.0250
  415POPI    C3 6609  11.267  15.515  11.567  0.1794  0.2419 -0.0298
  415POPI   PO4 6610  11.366  15.232  11.082  0.5024 -0.2461 -0.0382
  415POPI   GL1 6611  11.399  14.997  10.648  0.1974 -0.2024  0.1161
  415POPI   GL2 6612  11.775  15.175  10.584  0.0229 -0.4171  0.1000
  415POPI   C1A 6613  11.284  15.014  10.264 -0.0859  0.0569 -0.0470
  415POPI   D2A 6614  11.284  14.980   9.808 -0.1847 -0.1138  0.2797
  415POPI   C3A 6615  11.370  14.992   9.550  0.0977  0.3673  0.2297
  415POPI   C4A 6616  11.611  15.086   9.216 -0.1194 -0.1512 -0.0732
  415POPI   C1B 6617  11.776  14.942  10.129  0.0243  0.1855 -0.1664
  415POPI   C2B 6618  11.879  14.954   9.786 -0.0287  0.2348 -0.0271
  415POPI   C3B 6619  12.019  14.897   9.431 -0.2375 -0.1254 -0.0679
  415POPI   C4B 6620  12.149  15.122   9.009  0.1145  0.1803  0.0302
  416POPI    C1 6621   2.816   1.093  10.462 -0.0332 -0.1036  0.0880
  416POPI    C2 6622   3.082   1.321  10.656  0.0088 -0.0768 -0.0007
  416POPI    C3 6623   2.775   1.159  10.855 -0.1347  0.2205  0.0255
  416POPI   PO4 6624   2.902   1.115  10.203  0.1843 -0.1537  0.1991
  416POPI   GL1 6625   2.647   1.069   9.910 -0.3119  0.3408 -0.0297
  416POPI   GL2 6626   2.609   0.896   9.666  0.1844  0.1488 -0.2105
  416POPI   C1A 6627   2.938   1.212   9.579  0.0499  0.0371  0.2130
  416POPI   D2A 6628   2.942   1.565   9.321 -0.2093  0.0328  0.1066
  416POPI   C3A 6629   3.297   1.583   9.025  0.1415  0.1337 -0.0961
  416POPI   C4A 6630   3.222   1.614   8.554 -0.2671 -0.3893  0.0021
  416POPI   C1B 6631   2.565   1.111   9.263  0.1106  0.0054 -0.0362
  416POPI   C2B 6632   2.703   1.362   8.968  0.1185 -0.0720  0.2288
  416POPI   C3B 6633   2.667   1.368   8.451 -0.3560 -0.1467 -0.2198
  416POPI   C4B 6634   2.553   1.253   8.028 -0.1452  0.0687 -0.0925
  417POPI    C1 6635   5.052   1.338  10.697  0.0078  0.0232 -0.0756
  417POPI    C2 6636   5.256   1.682  10.707 -0.1160  0.0959 -0.0350
  417POPI    C3 6637   4.953   1.621  10.962 -0.1304 -0.0206 -0.0795
  417POPI   PO4 6638   5.275   1.221  10.457 -0.1460 -0.3388 -0.1890
  417POPI   GL1 6639   5.383   1.491  10.072 -0.1075  0.1723 -0.0819
  417POPI   GL2 6640   5.076   1.526   9.855  0.3926  0.0765  0.1900
  417POPI   C1A 6641   5.429   1.389   9.558  0.2316 -0.0057  0.4132
  417POPI   D2A 6642   5.333   1.735   9.219  0.1470  0.2311 -0.1543
  417POPI   C3A 6643   5.156   1.588   8.784 -0.1790  0.1949  0.0331
  417POPI   C4A 6644   5.142   1.189   8.471  0.0654  0.0391 -0.1039
  417POPI   C1B 6645   4.927   1.383   9.344  0.4041  0.0699  0.1289
  417POPI   C2B 6646   4.681   1.495   9.008  0.1683 -0.2757  0.1608
  417POPI   C3B 6647   4.608   1.537   8.587  0.0910  0.2801  0.1998
  417POPI   C4B 6648   4.884   1.540   8.183  0.1483 -0.0889  0.1975
  418POPI    C1 6649  10.345  13.222  10.785  0.0053 -0.0056 -0.1304
  418POPI    C2 6650  10.587  12.977  10.989 -0.0401  0.0827  0.0306
  418POPI    C3 6651  10.321  13.205  11.184 -0.2443 -0.0034 -0.1435
  418POPI   PO4 6652  10.555  13.240  10.570 -0.1101 -0.0424 -0.1579
  418POPI   GL1 6653  10.539  13.369  10.178 -0.1908 -0.1594  0.2531
  418POPI   GL2 6654  10.809  13.232  10.148 -0.1884 -0.3139  0.0835
  418POPI   C1A 6655  10.188  13.384   9.926 -0.2783 -0.1924  0.1885
  418POPI   D2A 6656   9.840  13.070   9.904 -0.1060 -0.0823 -0.1138
  418POPI   C3A 6657   9.773  12.926   9.541 -0.2097 -0.3373  0.1754
  418POPI   C4A 6658   9.782  13.043   9.118 -0.0065  0.3355 -0.2029
  418POPI   C1B 6659  10.876  13.212   9.770 -0.2907  0.2894  0.1193
  418POPI   C2B 6660  10.864  13.339   9.367  0.1762  0.0438  0.2109
  418POPI   C3B 6661  10.791  13.429   9.035  0.5534  0.1420 -0.0416
  418POPI   C4B 6662  10.543  13.506   8.724 -0.1165 -0.3734  0.3100
  419POPI    C1 6663   2.798   4.634  10.350 -0.1164 -0.1131  0.1315
  419POPI    C2 6664   2.870   4.306  10.567  0.2774  0.0877  0.3157
  419POPI    C3 6665   2.830   4.660  10.748 -0.2317  0.1352  0.1266
  419POPI   PO4 6666   2.991   4.603  10.171  0.2992 -0.0910  0.0962
  419POPI   GL1 6667   3.185   4.532   9.935  0.0617  0.2424  0.3178
  419POPI   GL2 6668   3.109   4.746   9.696  0.1334 -0.0429 -0.0068
  419POPI   C1A 6669   3.209   4.207   9.570  0.1292  0.2417 -0.0709
  419POPI   D2A 6670   3.275   4.164   9.179  0.1413  0.0597 -0.0978
  419POPI   C3A 6671   3.445   3.970   8.791 -0.0652 -0.0756  0.2319
  419POPI   C4A 6672   3.357   4.203   8.568 -0.3504 -0.0505  0.2569
  419POPI   C1B 6673   3.317   4.696   9.278  0.1923 -0.0895  0.2037
  419POPI   C2B 6674   3.259   4.632   8.857 -0.0607 -0.0574 -0.0125
  419POPI   C3B 6675   3.214   4.627   8.425  0.0385  0.2062 -0.0524
  419POPI   C4B 6676   3.346   4.415   8.095 -0.0203 -0.2761  0.3813
  420POPI    C1 6677   1.763   4.724  10.350  0.1993 -0.1889 -0.0276
  420POPI    C2 6678   1.854   4.795  10.733  0.0815 -0.1882  0.0009
  420POPI    C3 6679   1.497   4.643  10.637  0.0073  0.0617 -0.1300
  420POPI   PO4 6680   2.007   4.718  10.213  0.3973  0.1343  0.0548
  420POPI   GL1 6681   1.892   4.735   9.815  0.4121  0.1951 -0.2716
  420POPI   GL2 6682   1.723   5.026   9.760  0.0112  0.0584  0.0145
  420POPI   C1A 6683   2.228   4.618   9.493 -0.3947 -0.2939 -0.1107
  420POPI   D2A 6684   2.236   4.606   9.087 -0.1132 -0.0069 -0.2890
  420POPI   C3A 6685   2.116   4.562   8.637  0.1478 -0.0592  0.2056
  420POPI   C4A 6686   2.216   4.333   8.288 -0.4921  0.2584 -0.4259
  420POPI   C1B 6687   1.884   5.035   9.354 -0.0803 -0.0649 -0.0276
  420POPI   C2B 6688   2.123   5.100   9.108  0.0361 -0.3105  0.0666
  420POPI   C3B 6689   2.356   4.996   8.699 -0.1981  0.2085  0.2095
  420POPI   C4B 6690   2.535   4.672   8.375  0.3092 -0.2946  0.0051
  421POPI    C1 6691   4.166   0.148  10.620 -0.2491  0.1781  0.0953
  421POPI    C2 6692   4.255  -0.211  10.771 -0.0896  0.0657 -0.2561
  421POPI    C3 6693   3.890  -0.056  10.825 -0.0542  0.0069  0.1902
  421POPI   PO4 6694   4.289   0.138  10.378  0.0425 -0.0398  0.0600
  421POPI   GL1 6695   4.412  -0.096   9.907  0.4229  0.1174  0.0734
  421POPI   GL2 6696   4.078  -0.093  10.033 -0.2467 -0.0241 -0.1004
  421POPI   C1A 6697   4.535  -0.081   9.377  0.1552  0.0864 -0.1219
  421POPI   D2A 6698   4.432   0.094   9.015  0.3328 -0.1130 -0.4296
  421POPI   C3A 6699   4.332   0.039   8.574  0.0936  0.1118  0.1124
  421POPI   C4A 6700   4.079   0.026   8.226 -0.2366 -0.0154 -0.0972
  421POPI   C1B 6701   3.842   0.177   9.801  0.3432 -0.0176  0.0338
  421POPI   C2B 6702   3.698   0.166   9.338  0.3382  0.2378 -0.0546
  421POPI   C3B 6703   3.416   0.176   8.939 -0.0604 -0.3312  0.0128
  421POPI   C4B 6704   3.338   0.306   8.556 -0.0707 -0.1108  0.0629
  422POPI    C1 6705   6.306   8.649  10.118  0.2471  0.1635 -0.0817
  422POPI    C2 6706   6.644   8.591  10.324  0.1540  0.0817  0.0489
  422POPI    C3 6707   6.527   8.322  10.052  0.1268  0.0447  0.0970
  422POPI   PO4 6708   6.264   8.849  10.027  0.3173  0.0154  0.0539
  422POPI   GL1 6709   6.239   9.011   9.645 -0.0372 -0.3056 -0.1811
  422POPI   GL2 6710   6.482   9.152   9.669  0.1402  0.3305  0.1057
  422POPI   C1A 6711   6.183   9.160   9.206  0.1496  0.2533  0.0120
  422POPI   D2A 6712   6.163   9.248   8.754 -0.0091  0.2455  0.2110
  422POPI   C3A 6713   5.698   9.217   8.490 -0.3186  0.1225  0.0993
  422POPI   C4A 6714   5.706   9.185   8.069 -0.0612  0.4672  0.0808
  422POPI   C1B 6715   6.649   8.954   9.334 -0.0077 -0.0635  0.2566
  422POPI   C2B 6716   6.613   8.907   9.007  0.3293  0.1972  0.0717
  422POPI   C3B 6717   6.639   9.036   8.613  0.0374  0.0696  0.1453
  422POPI   C4B 6718   6.877   8.947   8.221 -0.1925 -0.2139 -0.0965
  423POPI    C1 6719   1.034  10.551  10.477 -0.0284 -0.1077  0.0014
  423POPI    C2 6720   1.294  10.376  10.725 -0.2609  0.0290  0.3486
  423POPI    C3 6721   1.095  10.156  10.457  0.1417 -0.0899  0.1387
  423POPI   PO4 6722   1.261  10.770  10.336 -0.0650 -0.0452  0.0567
  423POPI   GL1 6723   1.292  11.058   9.998 -0.0120  0.0307 -0.0493
  423POPI   GL2 6724   1.464  11.336   9.892 -0.1180 -0.0202 -0.1169
  423POPI   C1A 6725   1.490  10.743   9.631 -0.2731  0.2510  0.2875
  423POPI   D2A 6726   1.402  10.672   9.202 -0.4608 -0.0425  0.1987
  423POPI   C3A 6727   1.595  10.269   8.998  0.0239 -0.0619 -0.1303
  423POPI   C4A 6728   1.601   9.873   9.029 -0.0068 -0.0055 -0.2731
  423POPI   C1B 6729   1.707  11.206   9.591  0.0986  0.0886  0.0225
  423POPI   C2B 6730   1.835  11.096   9.274  0.0886  0.0750  0.2421
  423POPI   C3B 6731   2.214  11.164   8.988  0.1840 -0.0680 -0.1889
  423POPI   C4B 6732   2.322  10.951   8.535 -0.3602 -0.0922 -0.0810
  424POPI    C1 6733  13.687  17.766  10.767 -0.1868  0.1244  0.0481
  424POPI    C2 6734  13.866  18.112  10.861  0.0742 -0.0086  0.0481
  424POPI    C3 6735  13.590  17.957  11.105 -0.1735  0.2864 -0.0383
  424POPI   PO4 6736  13.773  17.721  10.426 -0.2230  0.0216 -0.3124
  424POPI   GL1 6737  13.637  17.506  10.126  0.1217  0.0632 -0.0856
  424POPI   GL2 6738  13.356  17.333  10.181  0.1119 -0.1025  0.0773
  424POPI   C1A 6739  13.646  17.576   9.685  0.1609 -0.1042  0.1379
  424POPI   D2A 6740  13.705  17.590   9.243 -0.0534  0.2642 -0.0854
  424POPI   C3A 6741  13.425  17.469   8.824  0.3251 -0.0991 -0.1853
  424POPI   C4A 6742  13.206  17.520   8.512  0.1121 -0.3060 -0.1469
  424POPI   C1B 6743  13.221  17.381   9.752 -0.2788  0.0079  0.4487
  424POPI   C2B 6744  13.266  17.414   9.326  0.0056  0.0473  0.2197
  424POPI   C3B 6745  12.976  17.611   9.023 -0.0581 -0.3273  0.0145
  424POPI   C4B 6746  12.748  17.909   9.033  0.1984 -0.3577 -0.1510
  425POPI    C1 6747  16.258   7.695  10.520  0.2831 -0.2169  0.1236
  425POPI    C2 6748  16.088   7.333  10.522  0.3258 -0.2443 -0.2734
  425POPI    C3 6749  16.027   7.585  10.827 -0.1899 -0.3610 -0.2705
  425POPI   PO4 6750  16.341   7.668  10.221 -0.2810  0.0815 -0.0809
  425POPI   GL1 6751  16.175   7.769   9.818 -0.0403  0.0414 -0.1385
  425POPI   GL2 6752  16.551   7.785   9.787 -0.3623  0.1466 -0.1570
  425POPI   C1A 6753  15.881   7.716   9.488  0.2254  0.1100  0.0001
  425POPI   D2A 6754  15.620   7.808   9.163 -0.0843 -0.0165 -0.1825
  425POPI   C3A 6755  15.410   7.587   8.890 -0.0128 -0.1074  0.1240
  425POPI   C4A 6756  15.166   7.354   8.480  0.4438 -0.2087 -0.0443
  425POPI   C1B 6757  16.391   7.746   9.402 -0.1168  0.3944  0.2874
  425POPI   C2B 6758  16.185   7.829   8.999  0.0696 -0.1199  0.2920
  425POPI   C3B 6759  15.899   7.681   8.731  0.0201  0.2524  0.0228
  425POPI   C4B 6760  15.591   7.549   8.265  0.0856  0.1840  0.1742
  426POPI    C1 6761   9.929   8.435  10.476  0.0031  0.4288  0.1757
  426POPI    C2 6762  10.284   8.468  10.658  0.1807 -0.1057 -0.0550
  426POPI    C3 6763  10.022   8.190  10.778 -0.1334  0.2324  0.0610
  426POPI   PO4 6764  10.035   8.546  10.231 -0.0577  0.0087  0.0108
  426POPI   GL1 6765  10.135   8.456   9.810  0.0320 -0.1120  0.1283
  426POPI   GL2 6766  10.336   8.683   9.765 -0.2084 -0.0912 -0.0940
  426POPI   C1A 6767  10.024   8.428   9.323 -0.1051  0.1122  0.5606
  426POPI   D2A 6768   9.557   8.739   9.237 -0.6194  0.3540  0.3422
  426POPI   C3A 6769   9.379   9.069   9.035  0.1382 -0.0195 -0.2311
  426POPI   C4A 6770   9.015   9.332   8.934 -0.0938  0.3335  0.3635
  426POPI   C1B 6771  10.306   8.906   9.453 -0.1674 -0.1163 -0.3136
  426POPI   C2B 6772  10.262   8.758   9.010  0.0893 -0.4443 -0.1090
  426POPI   C3B 6773   9.866   8.710   8.820 -0.2098  0.1093  0.0653
  426POPI   C4B 6774   9.569   9.063   8.519 -0.0935  0.0328 -0.3040
  427POPI    C1 6775  12.978  16.657  10.848 -0.1634 -0.1402 -0.0138
  427POPI    C2 6776  13.285  16.894  10.946 -0.0407 -0.2006 -0.2445
  427POPI    C3 6777  12.983  16.841  11.203  0.1645 -0.1797  0.0052
  427POPI   PO4 6778  13.179  16.419  10.671  0.4144 -0.1968  0.0976
  427POPI   GL1 6779  13.448  16.257  10.364 -0.1215 -0.3344 -0.2774
  427POPI   GL2 6780  13.622  16.071  10.630 -0.4012  0.0380  0.0499
  427POPI   C1A 6781  13.397  16.231   9.979  0.1456 -0.0431  0.2042
  427POPI   D2A 6782  13.529  16.290   9.438  0.1480 -0.1511 -0.2771
  427POPI   C3A 6783  13.721  16.687   9.250 -0.0478  0.2499  0.0968
  427POPI   C4A 6784  13.979  16.752   8.828 -0.3414  0.1938  0.0471
  427POPI   C1B 6785  13.704  15.847  10.181  0.1117  0.0093  0.0985
  427POPI   C2B 6786  13.724  15.905   9.680  0.2459 -0.3749 -0.3562
  427POPI   C3B 6787  13.851  15.862   9.226 -0.4498  0.0719  0.1608
  427POPI   C4B 6788  13.981  15.815   8.719  0.0866  0.2718  0.3753
  428POPI    C1 6789   6.433   9.495  10.383  0.0571 -0.1742  0.3426
  428POPI    C2 6790   6.300   9.767  10.644 -0.2252  0.0995 -0.0721
  428POPI    C3 6791   6.051   9.489  10.501 -0.0205 -0.1772  0.0984
  428POPI   PO4 6792   6.509   9.490  10.155 -0.4955  0.1824 -0.0684
  428POPI   GL1 6793   6.758   9.757   9.865 -0.2432  0.0524  0.2393
  428POPI   GL2 6794   6.857   9.513   9.740  0.0870 -0.1441 -0.0730
  428POPI   C1A 6795   6.645   9.954   9.508  0.0503  0.0493 -0.2564
  428POPI   D2A 6796   6.704  10.025   9.129 -0.1240 -0.1211  0.0309
  428POPI   C3A 6797   6.777  10.424   8.958 -0.0830 -0.2499 -0.2163
  428POPI   C4A 6798   7.102  10.694   8.763 -0.1077 -0.0977  0.0758
  428POPI   C1B 6799   6.725   9.525   9.300  0.2302  0.0088  0.1811
  428POPI   C2B 6800   6.700   9.466   8.928  0.0931  0.0674  0.0369
  428POPI   C3B 6801   6.670   9.794   8.665  0.0629 -0.1434 -0.1180
  428POPI   C4B 6802   6.772   9.858   8.291 -0.1975 -0.0012 -0.1453
  429POPI    C1 6803  16.364   6.220  10.266 -0.1710 -0.1967  0.2679
  429POPI    C2 6804  16.080   6.258   9.988  0.1749 -0.0062 -0.0682
  429POPI    C3 6805  16.058   5.962  10.256 -0.2376 -0.1071 -0.2056
  429POPI   PO4 6806  16.562   6.338  10.114  0.2164 -0.4481 -0.1244
  429POPI   GL1 6807  16.523   6.346   9.679  0.0038  0.2872 -0.0309
  429POPI   GL2 6808  16.795   6.506   9.656  0.1644 -0.0311 -0.2198
  429POPI   C1A 6809  16.316   6.139   9.156  0.0620  0.0679  0.0480
  429POPI   D2A 6810  16.384   5.790   8.752 -0.0765  0.1119 -0.0907
  429POPI   C3A 6811  16.471   5.844   8.276 -0.2242  0.4358 -0.3293
  429POPI   C4A 6812  16.335   6.239   7.997 -0.2319  0.2471 -0.1838
  429POPI   C1B 6813  16.861   6.413   9.218 -0.4449  0.0799  0.2079
  429POPI   C2B 6814  16.908   6.557   8.854  0.0364 -0.0360 -0.1105
  429POPI   C3B 6815  16.808   6.649   8.527  0.1722  0.1752  0.0457
  429POPI   C4B 6816  16.748   6.662   8.104 -0.0459  0.3172  0.0212
  430POPI    C1 6817   1.410  14.653  10.038  0.0341 -0.3220  0.0974
  430POPI    C2 6818   1.509  15.009  10.190 -0.0988 -0.1573 -0.1948
  430POPI    C3 6819   1.740  14.691  10.260 -0.0601 -0.0479  0.1945
  430POPI   PO4 6820   1.362  14.638   9.775  0.1967 -0.3345  0.2967
  430POPI   GL1 6821   1.374  14.460   9.479 -0.0325 -0.0820 -0.1601
  430POPI   GL2 6822   1.084  14.293   9.567  0.1027  0.1631  0.2392
  430POPI   C1A 6823   1.536  14.314   9.116  0.0383 -0.1793 -0.3446
  430POPI   D2A 6824   1.748  13.972   8.838 -0.0391 -0.0214  0.0465
  430POPI   C3A 6825   2.000  13.660   8.702 -0.0144  0.1312  0.0251
  430POPI   C4A 6826   2.390  13.715   8.756 -0.0951  0.1515  0.3164
  430POPI   C1B 6827   1.124  14.115   9.230 -0.0005  0.2117  0.0667
  430POPI   C2B 6828   1.219  14.096   8.824 -0.2657 -0.0446  0.1252
  430POPI   C3B 6829   1.256  13.938   8.400 -0.2481  0.1757 -0.0832
  430POPI   C4B 6830   0.999  13.865   8.007 -0.2453 -0.0571  0.0514
  431POPI    C1 6831  10.623   2.679  10.892 -0.0127  0.3385  0.2784
  431POPI    C2 6832  10.995   2.813  10.953  0.0481  0.1490  0.3325
  431POPI    C3 6833  10.720   3.053  10.789  0.2937  0.1733 -0.0584
  431POPI   PO4 6834  10.649   2.451  10.674 -0.0212  0.1231  0.0525
  431POPI   GL1 6835  10.625   2.293  10.187  0.4096  0.0648 -0.1006
  431POPI   GL2 6836  10.681   2.555  10.007  0.4911  0.0259  0.3207
  431POPI   C1A 6837  10.437   1.980   9.820 -0.1564 -0.2770 -0.0454
  431POPI   D2A 6838  10.501   1.749   9.431  0.1483  0.2026 -0.0823
  431POPI   C3A 6839  10.224   1.800   9.039  0.2990  0.3449 -0.0452
  431POPI   C4A 6840  10.265   1.784   8.593  0.1129 -0.0753 -0.2104
  431POPI   C1B 6841  10.601   2.393   9.610 -0.1774 -0.2305 -0.2399
  431POPI   C2B 6842  10.376   2.194   9.261 -0.2251 -0.3121 -0.0048
  431POPI   C3B 6843  10.413   2.328   8.795 -0.1704  0.1466  0.1159
  431POPI   C4B 6844  10.405   2.794   8.659 -0.0781  0.0315  0.0198
  432POPI    C1 6845  18.133   3.496  10.412 -0.4017  0.1364  0.1519
  432POPI    C2 6846  18.312   3.455  10.767 -0.0217  0.0882 -0.0401
  432POPI    C3 6847  17.946   3.304  10.709  0.0381 -0.1738  0.2379
  432POPI   PO4 6848  18.410   3.467  10.253  0.3169 -0.0186 -0.2414
  432POPI   GL1 6849  18.482   3.188   9.888 -0.1985 -0.2408 -0.1080
  432POPI   GL2 6850  18.291   3.203   9.794 -0.2690  0.2064 -0.4343
  432POPI   C1A 6851  18.558   3.070   9.437  0.0029 -0.1181  0.0804
  432POPI   D2A 6852  18.727   2.980   9.078 -0.1300  0.0918  0.2382
  432POPI   C3A 6853  18.579   2.844   8.686 -0.1197  0.1359 -0.2287
  432POPI   C4A 6854  18.400   2.650   8.459 -0.1181  0.4313  0.1125
  432POPI   C1B 6855  18.069   3.269   9.486 -0.0697  0.1228  0.1751
  432POPI   C2B 6856  17.901   3.451   9.101  0.0314  0.0468 -0.1381
  432POPI   C3B 6857  18.075   3.616   8.841 -0.2146  0.3264 -0.4350
  432POPI   C4B 6858  18.225   3.234   8.490  0.0547  0.1081 -0.2372
  433POPI    C1 6859  12.408   8.002  10.851 -0.0322  0.0275 -0.1231
  433POPI    C2 6860  12.471   7.929  11.239 -0.1600  0.0765 -0.0927
  433POPI    C3 6861  12.571   8.284  11.084  0.1282 -0.0322 -0.1617
  433POPI   PO4 6862  12.150   7.816  10.729 -0.2814 -0.0445  0.3075
  433POPI   GL1 6863  12.001   7.984  10.253  0.0311  0.1636 -0.2392
  433POPI   GL2 6864  11.867   8.160  10.149  0.2658  0.0103 -0.1396
  433POPI   C1A 6865  12.283   7.833   9.959  0.1229 -0.1556 -0.0230
  433POPI   D2A 6866  12.438   7.721   9.580 -0.0894 -0.1310 -0.2377
  433POPI   C3A 6867  12.799   7.978   9.427 -0.1902 -0.0153  0.3406
  433POPI   C4A 6868  13.060   8.170   9.062  0.2595 -0.0258 -0.3425
  433POPI   C1B 6869  12.154   8.265   9.777  0.0786 -0.1399  0.2801
  433POPI   C2B 6870  12.310   8.221   9.400 -0.2210  0.0949  0.2467
  433POPI   C3B 6871  12.559   8.169   9.022 -0.3377  0.2810  0.0747
  433POPI   C4B 6872  12.852   8.366   8.692  0.0317 -0.1748  0.3077
  434POPI    C1 6873  13.814   4.891  10.062 -0.0351  0.1259  0.0945
  434POPI    C2 6874  13.839   4.845  10.458 -0.0424 -0.0658  0.0734
  434POPI    C3 6875  13.549   5.072  10.302 -0.0472  0.0003  0.1771
  434POPI   PO4 6876  13.902   4.576  10.044 -0.1517  0.2456 -0.1057
  434POPI   GL1 6877  14.058   4.607   9.627  0.0354  0.1888 -0.1259
  434POPI   GL2 6878  14.066   4.242   9.702  0.0899 -0.1272  0.1271
  434POPI   C1A 6879  13.889   4.532   9.195 -0.0009  0.0304 -0.1289
  434POPI   D2A 6880  13.902   4.618   8.781 -0.1203 -0.2900 -0.0402
  434POPI   C3A 6881  13.501   4.607   8.556  0.1989 -0.1860  0.0493
  434POPI   C4A 6882  13.232   4.406   8.277  0.1153 -0.3123 -0.0364
  434POPI   C1B 6883  14.049   4.046   9.284 -0.0532  0.0925  0.1827
  434POPI   C2B 6884  13.907   4.103   8.908 -0.0674  0.0162  0.3642
  434POPI   C3B 6885  13.898   3.980   8.489 -0.1474 -0.2224  0.0540
  434POPI   C4B 6886  13.871   3.919   8.058  0.1626  0.3271  0.0083
  435POPI    C1 6887  13.952  13.830  11.052  0.0302  0.2126  0.0314
  435POPI    C2 6888  13.724  13.618  11.303 -0.1623 -0.1202 -0.4106
  435POPI    C3 6889  13.935  13.930  11.438 -0.1102 -0.4047  0.1958
  435POPI   PO4 6890  13.871  13.901  10.803 -0.2022  0.3925 -0.3948
  435POPI   GL1 6891  13.663  13.827  10.432  0.1956 -0.1911  0.1535
  435POPI   GL2 6892  13.848  13.663  10.352  0.3836  0.1861  0.1075
  435POPI   C1A 6893  13.939  14.032  10.076 -0.1893 -0.1682  0.1963
  435POPI   D2A 6894  14.076  13.899   9.639 -0.0032  0.0430  0.0956
  435POPI   C3A 6895  14.291  13.845   9.424 -0.1752 -0.1459  0.0780
  435POPI   C4A 6896  14.456  13.851   8.972  0.1634 -0.3492 -0.0590
  435POPI   C1B 6897  13.696  13.406   9.904 -0.1840 -0.1742  0.3652
  435POPI   C2B 6898  13.673  13.524   9.372  0.0802  0.2069 -0.2970
  435POPI   C3B 6899  13.524  13.507   8.909  0.0143 -0.1582 -0.1258
  435POPI   C4B 6900  13.665  13.705   8.616 -0.5666 -0.2065 -0.3671
  436POPI    C1 6901   7.736  12.615  10.611  0.0052  0.0228 -0.0305
  436POPI    C2 6902   7.768  12.298  10.853 -0.1987  0.0112 -0.0165
  436POPI    C3 6903   7.628  12.645  10.995 -0.1217  0.0639 -0.0687
  436POPI   PO4 6904   7.550  12.483  10.457  0.1530 -0.0977 -0.1605
  436POPI   GL1 6905   7.446  12.165  10.083 -0.0041 -0.1378 -0.2205
  436POPI   GL2 6906   7.744  12.078  10.060  0.1481 -0.0310 -0.0756
  436POPI   C1A 6907   7.459  12.104   9.584 -0.1432  0.0051  0.3404
  436POPI   D2A 6908   7.166  11.999   9.286  0.0475 -0.2371 -0.3300
  436POPI   C3A 6909   7.183  12.065   8.945 -0.2962 -0.0146  0.0906
  436POPI   C4A 6910   7.154  12.036   8.567  0.0095 -0.0310 -0.3001
  436POPI   C1B 6911   7.919  12.267   9.676  0.0159 -0.2065  0.0754
  436POPI   C2B 6912   8.021  12.487   9.222  0.0638  0.1649  0.1085
  436POPI   C3B 6913   8.042  12.552   8.722  0.0301  0.0211 -0.0078
  436POPI   C4B 6914   8.303  12.842   8.353 -0.0536 -0.1736  0.0200
  437POPI    C1 6915  13.440   8.544  10.223 -0.0352  0.0970  0.1247
  437POPI    C2 6916  13.799   8.460  10.378 -0.0869  0.0855  0.2395
  437POPI    C3 6917  13.524   8.171  10.341 -0.0399  0.0656  0.0296
  437POPI   PO4 6918  13.273   8.860  10.295  0.4186  0.1279 -0.4309
  437POPI   GL1 6919  13.063   9.191  10.102 -0.2079  0.0957 -0.2620
  437POPI   GL2 6920  12.830   9.364  10.022 -0.1043  0.1738 -0.0280
  437POPI   C1A 6921  13.386   9.322   9.796 -0.4420 -0.1095  0.0309
  437POPI   D2A 6922  13.629   9.343   9.380 -0.2481  0.1390 -0.0010
  437POPI   C3A 6923  14.030   9.301   9.544 -0.2378  0.0987  0.0190
  437POPI   C4A 6924  14.472   9.250   9.694  0.0900  0.1752 -0.0095
  437POPI   C1B 6925  12.953   9.618   9.692  0.2199 -0.0317  0.0460
  437POPI   C2B 6926  12.743   9.717   9.308 -0.0938  0.0750  0.1111
  437POPI   C3B 6927  12.971   9.630   8.967 -0.1051  0.0823 -0.1679
  437POPI   C4B 6928  13.108   9.910   8.656 -0.0181  0.0695  0.1217
  438POPI    C1 6929   2.254  11.766  10.468  0.0288 -0.1543  0.2452
  438POPI    C2 6930   2.130  11.977  10.151  0.2849 -0.1481  0.1461
  438POPI    C3 6931   1.919  11.982  10.491  0.2662  0.2368  0.1327
  438POPI   PO4 6932   2.342  11.549  10.412 -0.0603  0.1122  0.1891
  438POPI   GL1 6933   2.399  11.381   9.942  0.0116 -0.2577  0.2937
  438POPI   GL2 6934   2.437  11.064  10.056 -0.0538  0.3341 -0.3299
  438POPI   C1A 6935   2.406  11.371   9.564  0.0107  0.0527  0.0330
  438POPI   D2A 6936   2.559  11.530   9.201 -0.2718 -0.0291  0.1046
  438POPI   C3A 6937   2.608  11.411   8.803  0.0635 -0.2184  0.3645
  438POPI   C4A 6938   2.694  11.270   8.393 -0.1796 -0.0433  0.1230
  438POPI   C1B 6939   2.121  11.001   9.739  0.0542 -0.1933  0.1767
  438POPI   C2B 6940   1.972  10.554   9.545 -0.6998 -0.0210  0.2345
  438POPI   C3B 6941   1.598  10.256   9.528 -0.2002 -0.0353  0.1243
  438POPI   C4B 6942   1.367   9.947   9.488  0.2128  0.0107 -0.1183
  439POPI    C1 6943   4.182  11.282  10.542 -0.1254 -0.0209  0.3074
  439POPI    C2 6944   3.828  11.118  10.631 -0.1854  0.0994  0.2930
  439POPI    C3 6945   4.167  10.941  10.750 -0.2261 -0.3600 -0.2368
  439POPI   PO4 6946   4.159  11.370  10.278  0.0757  0.0819 -0.0140
  439POPI   GL1 6947   4.155  11.732   9.926  0.1024 -0.0787 -0.0128
  439POPI   GL2 6948   4.446  11.746   9.775  0.0082 -0.0128  0.2105
  439POPI   C1A 6949   3.828  11.559   9.726  0.2641  0.1089 -0.0511
  439POPI   D2A 6950   3.766  11.205   9.386 -0.0503 -0.1531  0.0897
  439POPI   C3A 6951   3.903  11.144   8.979 -0.3073 -0.1054 -0.3732
  439POPI   C4A 6952   4.109  10.990   8.655 -0.1559 -0.2202 -0.0676
  439POPI   C1B 6953   4.219  11.752   9.400 -0.2150  0.1240  0.3239
  439POPI   C2B 6954   4.000  11.608   9.085  0.1437  0.0880  0.0666
  439POPI   C3B 6955   4.082  11.490   8.684 -0.4047  0.1457  0.4870
  439POPI   C4B 6956   3.973  11.514   8.252 -0.3192 -0.1749 -0.1478
  440POPI    C1 6957   9.858  10.765  11.101  0.0973 -0.1192 -0.1826
  440POPI    C2 6958   9.636  10.506  11.309  0.0835  0.0714  0.0449
  440POPI    C3 6959  10.032  10.458  11.288  0.0545 -0.1088 -0.1252
  440POPI   PO4 6960   9.717  10.816  10.837 -0.1636  0.0186 -0.1281
  440POPI   GL1 6961   9.629  10.661  10.407  0.2357  0.5365 -0.1728
  440POPI   GL2 6962   9.917  10.683  10.439  0.0957  0.1026 -0.0024
  440POPI   C1A 6963   9.375  10.557  10.088 -0.1103 -0.1801  0.1054
  440POPI   D2A 6964   9.165  10.621   9.770  0.0766  0.1389 -0.0987
  440POPI   C3A 6965   9.180  10.528   9.370  0.0079 -0.1433  0.0457
  440POPI   C4A 6966   9.367  10.473   9.000  0.2840 -0.4562 -0.0907
  440POPI   C1B 6967   9.915  10.587   9.999  0.0400 -0.0478 -0.1179
  440POPI   C2B 6968   9.855  10.749   9.608 -0.1983 -0.0856  0.1746
  440POPI   C3B 6969  10.040  11.079   9.349  0.1466  0.1084 -0.0471
  440POPI   C4B 6970  10.150  11.248   8.886 -0.0445 -0.1456  0.0455
  441POPI    C1 6971   5.323   8.859  10.381  0.0836 -0.1302  0.1865
  441POPI    C2 6972   5.315   8.460  10.354 -0.0877 -0.1399  0.3602
  441POPI    C3 6973   5.099   8.646  10.634 -0.2685  0.0943  0.0712
  441POPI   PO4 6974   5.341   8.885  10.151  0.4191 -0.3642  0.1775
  441POPI   GL1 6975   5.348   8.526   9.858 -0.1456  0.2591  0.1483
  441POPI   GL2 6976   5.107   8.285   9.885 -0.0735  0.1080  0.0280
  441POPI   C1A 6977   5.646   8.285   9.534  0.1427 -0.4065  0.1488
  441POPI   D2A 6978   5.648   8.228   9.095  0.1000  0.1601 -0.1573
  441POPI   C3A 6979   5.792   7.765   9.042  0.1476 -0.2771  0.0851
  441POPI   C4A 6980   6.127   7.318   8.913  0.0736 -0.2265 -0.0929
  441POPI   C1B 6981   5.178   8.385   9.336 -0.0878 -0.0598  0.2122
  441POPI   C2B 6982   5.174   8.459   8.921  0.1470 -0.1231 -0.3004
  441POPI   C3B 6983   5.294   8.340   8.480  0.0946  0.0014 -0.3473
  441POPI   C4B 6984   5.675   8.240   8.253 -0.1802  0.2206  0.1147
  442POPI    C1 6985  12.843  14.936  11.224  0.0297 -0.0270  0.3880
  442POPI    C2 6986  13.068  14.633  11.355  0.0083 -0.2102  0.0141
  442POPI    C3 6987  12.672  14.626  11.411  0.0405 -0.1070  0.2664
  442POPI   PO4 6988  13.026  15.013  10.996 -0.1362  0.1591  0.3101
  442POPI   GL1 6989  13.134  15.108  10.572  0.0446  0.2812  0.1332
  442POPI   GL2 6990  13.010  14.804  10.545  0.0790  0.2200  0.3153
  442POPI   C1A 6991  12.938  15.198  10.174 -0.0033  0.1761  0.0668
  442POPI   D2A 6992  12.981  15.353   9.734 -0.1300 -0.1670  0.0841
  442POPI   C3A 6993  12.994  15.038   9.559 -0.0642 -0.1078 -0.0735
  442POPI   C4A 6994  13.003  14.771   9.097 -0.1587 -0.0298  0.2214
  442POPI   C1B 6995  12.899  14.710  10.192 -0.0338  0.0621 -0.1657
  442POPI   C2B 6996  12.945  14.599   9.824  0.1001 -0.0413 -0.4174
  442POPI   C3B 6997  12.893  14.358   9.424 -0.1950  0.0745  0.0176
  442POPI   C4B 6998  12.894  14.237   9.003 -0.3909  0.1756  0.2118
  443POPI    C1 6999  15.396  14.681  10.763 -0.2319 -0.2006  0.0700
  443POPI    C2 7000  15.560  14.455  11.050 -0.0926 -0.1678  0.0173
  443POPI    C3 7001  15.324  14.763  11.147  0.0922 -0.0514  0.1028
  443POPI   PO4 7002  15.329  14.446  10.530 -0.1130  0.0343 -0.1395
  443POPI   GL1 7003  15.046  14.416  10.139  0.2019  0.1912 -0.1742
  443POPI   GL2 7004  14.772  14.525  10.115  0.0843 -0.2361  0.1572
  443POPI   C1A 7005  15.139  14.267   9.729 -0.1077 -0.0249 -0.3670
  443POPI   D2A 7006  15.328  14.154   9.445  0.2358  0.2764 -0.6249
  443POPI   C3A 7007  15.220  14.024   9.022 -0.0384  0.3212  0.2328
  443POPI   C4A 7008  14.933  13.755   8.815 -0.1942 -0.0073  0.2877
  443POPI   C1B 7009  14.756  14.531   9.604 -0.0642 -0.3343 -0.0073
  443POPI   C2B 7010  15.021  14.446   9.150 -0.0378 -0.1359 -0.0957
  443POPI   C3B 7011  15.259  14.376   8.664 -0.1864  0.1287  0.2268
  443POPI   C4B 7012  15.228  13.977   8.398  0.1188 -0.1494  0.1148
  444POPI    C1 7013  10.401  13.715  10.767 -0.1678  0.0359 -0.0973
  444POPI    C2 7014  10.052  13.735  10.963 -0.1383  0.0866 -0.0496
  444POPI    C3 7015  10.397  13.744  11.166 -0.1068  0.1827 -0.1068
  444POPI   PO4 7016  10.359  13.875  10.438 -0.1064  0.3280 -0.0013
  444POPI   GL1 7017  10.567  14.069  10.199 -0.0185  0.1507 -0.2112
  444POPI   GL2 7018  10.451  13.810   9.973 -0.1676  0.2611 -0.1543
  444POPI   C1A 7019  10.587  14.182   9.726 -0.3131  0.5848  0.3533
  444POPI   D2A 7020  10.650  14.549   9.510  0.1089  0.0565 -0.1474
  444POPI   C3A 7021  11.057  14.724   9.184 -0.0546  0.1127 -0.0300
  444POPI   C4A 7022  11.121  15.081   8.982 -0.2417  0.1566  0.0217
  444POPI   C1B 7023  10.547  13.642   9.636 -0.1087  0.0000  0.1205
  444POPI   C2B 7024  10.393  13.702   9.162  0.0446  0.2264 -0.1970
  444POPI   C3B 7025  10.181  13.842   8.883  0.1991  0.0677  0.0278
  444POPI   C4B 7026  10.321  14.136   8.567 -0.0015  0.1562  0.1816
  445POPI    C1 7027   1.935   3.949  10.600  0.3395  0.0384  0.2022
  445POPI    C2 7028   1.977   4.344  10.644 -0.1522  0.1050  0.1300
  445POPI    C3 7029   1.658   4.159  10.796  0.0462 -0.2593  0.1152
  445POPI   PO4 7030   1.973   3.994  10.263 -0.1526 -0.2287 -0.1987
  445POPI   GL1 7031   1.761   4.077   9.865 -0.5423 -0.3010  0.2001
  445POPI   GL2 7032   1.719   4.289   9.701 -0.1165 -0.0696  0.1504
  445POPI   C1A 7033   1.830   3.736   9.586  0.0674 -0.0476 -0.2629
  445POPI   D2A 7034   2.024   3.593   9.153 -0.0393  0.0358  0.1916
  445POPI   C3A 7035   2.320   3.160   9.166 -0.1161  0.0832 -0.4138
  445POPI   C4A 7036   2.716   3.107   9.121  0.0510 -0.0581 -0.0935
  445POPI   C1B 7037   1.765   4.581   9.315  0.0461  0.0539 -0.3085
  445POPI   C2B 7038   1.780   4.408   8.909  0.2877  0.1097  0.2867
  445POPI   C3B 7039   1.717   4.351   8.420 -0.2227  0.2833  0.5233
  445POPI   C4B 7040   1.491   4.177   8.066  0.1306  0.0973  0.0054
  446POPI    C1 7041   1.355   3.277  10.462 -0.1317  0.2425 -0.1066
  446POPI    C2 7042   1.339   3.562  10.741  0.0007  0.0473  0.1042
  446POPI    C3 7043   1.389   3.180  10.849  0.1860 -0.0160 -0.1938
  446POPI   PO4 7044   1.188   3.306  10.248  0.0031  0.1092  0.0843
  446POPI   GL1 7045   1.031   3.407   9.880 -0.3046 -0.2432 -0.0184
  446POPI   GL2 7046   1.326   3.644   9.816  0.0676 -0.0550 -0.0463
  446POPI   C1A 7047   0.958   3.549   9.390 -0.0690  0.2669  0.1555
  446POPI   D2A 7048   1.115   3.806   9.104 -0.1209  0.1324  0.0245
  446POPI   C3A 7049   1.054   3.768   8.701  0.2153 -0.1873 -0.1986
  446POPI   C4A 7050   1.037   3.754   8.328  0.0227 -0.0275 -0.1810
  446POPI   C1B 7051   1.377   3.929   9.506 -0.1022 -0.0906  0.0553
  446POPI   C2B 7052   1.621   4.053   9.201 -0.0805 -0.0262  0.0085
  446POPI   C3B 7053   1.890   3.935   8.691  0.1128 -0.2383 -0.0868
  446POPI   C4B 7054   2.039   3.883   8.185 -0.4966 -0.2358  0.0467
  447POPI    C1 7055   9.720  16.504  10.720  0.0126 -0.0143 -0.0176
  447POPI    C2 7056   9.703  16.352  11.089 -0.3093  0.0937  0.0161
  447POPI    C3 7057   9.369  16.480  10.911 -0.1567  0.0422 -0.3149
  447POPI   PO4 7058   9.918  16.371  10.537 -0.1628 -0.0446  0.0906
  447POPI   GL1 7059  10.140  16.066  10.378 -0.1234  0.2422 -0.2173
  447POPI   GL2 7060   9.763  15.977  10.265 -0.0015  0.1825 -0.0201
  447POPI   C1A 7061  10.239  15.864  10.061  0.1801  0.4450 -0.1534
  447POPI   D2A 7062  10.192  15.856   9.626  0.1092  0.1086 -0.2021
  447POPI   C3A 7063   9.775  15.790   9.352 -0.2203 -0.1501  0.1636
  447POPI   C4A 7064   9.684  15.784   8.815 -0.0261  0.2555 -0.0024
  447POPI   C1B 7065   9.907  16.164   9.909  0.0594  0.1402  0.1544
  447POPI   C2B 7066   9.962  16.274   9.480  0.1194  0.0976 -0.0052
  447POPI   C3B 7067  10.109  16.185   9.143 -0.0359 -0.0984  0.4341
  447POPI   C4B 7068  10.237  15.786   9.046 -0.0906  0.3903  0.1667
  448POPI    C1 7069   0.734   7.465   9.981 -0.0477 -0.0347  0.0334
  448POPI    C2 7070   0.420   7.705  10.043 -0.1991 -0.2120 -0.0381
  448POPI    C3 7071   0.620   7.552  10.354 -0.1790 -0.0937  0.0076
  448POPI   PO4 7072   0.685   7.358   9.772  0.1292 -0.2084  0.2425
  448POPI   GL1 7073   0.745   7.389   9.342 -0.0196  0.2931 -0.1606
  448POPI   GL2 7074   0.860   7.216   9.294 -0.0726 -0.0031  0.0546
  448POPI   C1A 7075   0.548   7.363   8.955  0.1903 -0.2330 -0.2424
  448POPI   D2A 7076   0.472   7.031   8.788 -0.0803 -0.0820  0.1233
  448POPI   C3A 7077   0.498   6.965   8.361 -0.2389 -0.0303  0.1279
  448POPI   C4A 7078   0.171   6.706   8.141  0.0433 -0.1648  0.0757
  448POPI   C1B 7079   0.975   7.106   8.880  0.0084 -0.7360  0.0471
  448POPI   C2B 7080   0.882   7.259   8.519 -0.0649 -0.2896  0.1119
  448POPI   C3B 7081   0.938   7.167   8.074  0.0022 -0.0300 -0.1026
  448POPI   C4B 7082   1.229   7.302   7.917 -0.2023  0.0589 -0.0028
  449POPI    C1 7083  17.170   1.110  10.461 -0.0479  0.1513  0.2415
  449POPI    C2 7084  16.848   0.980  10.659 -0.1651  0.3013  0.1523
  449POPI    C3 7085  16.843   1.340  10.486  0.0722  0.3287  0.1996
  449POPI   PO4 7086  17.189   0.901  10.316  0.0032 -0.2904 -0.3206
  449POPI   GL1 7087  16.883   0.805  10.152 -0.1731 -0.0849  0.1264
  449POPI   GL2 7088  16.617   0.603  10.026  0.0799 -0.4851 -0.3313
  449POPI   C1A 7089  17.053   0.943   9.713 -0.0350  0.3118  0.0181
  449POPI   D2A 7090  17.145   0.907   9.324 -0.2303  0.1147  0.3562
  449POPI   C3A 7091  17.141   0.906   8.836  0.0475 -0.2184  0.1370
  449POPI   C4A 7092  16.896   0.999   8.453  0.1657 -0.2370  0.1793
  449POPI   C1B 7093  16.603   0.860   9.739  0.2631 -0.0820  0.1115
  449POPI   C2B 7094  16.648   0.949   9.285 -0.1427 -0.0400  0.1968
  449POPI   C3B 7095  16.567   1.080   8.914 -0.0720 -0.1406 -0.4374
  449POPI   C4B 7096  16.527   1.320   8.443  0.5449 -0.0297 -0.2412
  450POPI    C1 7097   5.575  15.984  10.349 -0.0665  0.1573 -0.1330
  450POPI    C2 7098   5.440  15.738  10.634  0.2990 -0.0730 -0.1512
  450POPI    C3 7099   5.610  16.085  10.735  0.0395  0.0455 -0.1125
  450POPI   PO4 7100   5.417  15.986  10.140  0.3992  0.0281  0.2771
  450POPI   GL1 7101   5.480  16.121   9.702  0.2524 -0.4404  0.1323
  450POPI   GL2 7102   5.775  16.178   9.611  0.0421  0.0780 -0.2036
  450POPI   C1A 7103   5.179  16.239   9.356 -0.0593  0.1865 -0.0097
  450POPI   D2A 7104   5.168  16.342   8.926  0.0098 -0.2130  0.1618
  450POPI   C3A 7105   5.096  16.730   8.658  0.1024  0.3495  0.0324
  450POPI   C4A 7106   5.294  17.015   8.292 -0.2068 -0.1946  0.0072
  450POPI   C1B 7107   5.678  16.238   9.153  0.3110 -0.0675  0.0395
  450POPI   C2B 7108   5.692  16.436   8.768  0.1478  0.2839 -0.1894
  450POPI   C3B 7109   5.541  16.612   8.409 -0.0197  0.0661  0.1405
  450POPI   C4B 7110   5.313  16.443   8.053 -0.0502  0.0307 -0.0407
  451POPI    C1 7111  16.942  11.182  10.212 -0.0356 -0.0829 -0.0112
  451POPI    C2 7112  16.944  11.500  10.455  0.2321 -0.0860 -0.0072
  451POPI    C3 7113  16.817  11.146  10.591  0.1090 -0.0232  0.0427
  451POPI   PO4 7114  16.861  11.205  10.017  0.0976  0.0312 -0.0167
  451POPI   GL1 7115  16.985  11.296   9.542 -0.0311  0.3549 -0.0539
  451POPI   GL2 7116  17.352  11.404   9.540 -0.3664 -0.0712  0.2030
  451POPI   C1A 7117  16.929  11.047   9.141  0.0120  0.1595  0.0015
  451POPI   D2A 7118  17.031  11.046   8.690 -0.5030 -0.2441 -0.1683
  451POPI   C3A 7119  16.755  10.817   8.333  0.0980  0.2170 -0.2041
  451POPI   C4A 7120  16.528  10.501   8.547  0.1621 -0.1569  0.2651
  451POPI   C1B 7121  17.215  11.484   9.128 -0.0880 -0.4256  0.1226
  451POPI   C2B 7122  16.936  11.746   8.924  0.0599 -0.1588 -0.0235
  451POPI   C3B 7123  16.787  11.876   8.427 -0.2001  0.1416  0.0272
  451POPI   C4B 7124  16.411  11.919   8.113  0.0782  0.2253  0.3130
  452POPI    C1 7125  17.728   5.115  10.071  0.0181  0.0995  0.2181
  452POPI    C2 7126  17.718   4.790   9.837 -0.2498  0.1993  0.0857
  452POPI    C3 7127  18.062   4.903  10.008 -0.1681 -0.1924  0.1909
  452POPI   PO4 7128  17.739   5.326   9.873 -0.0386 -0.3364 -0.0991
  452POPI   GL1 7129  17.690   5.500   9.499  0.4298  0.3076 -0.2686
  452POPI   GL2 7130  17.383   5.255   9.446 -0.1017  0.0743  0.1597
  452POPI   C1A 7131  17.473   5.686   9.159  0.1695 -0.1798 -0.0753
  452POPI   D2A 7132  17.292   5.770   8.731  0.1495  0.0539 -0.0192
  452POPI   C3A 7133  17.485   5.868   8.285  0.2716  0.2986 -0.3218
  452POPI   C4A 7134  17.555   5.622   7.876  0.1864  0.1684 -0.0746
  452POPI   C1B 7135  17.491   5.212   9.067 -0.2745  0.0730  0.0478
  452POPI   C2B 7136  17.525   5.221   8.672  0.0346  0.0900  0.0061
  452POPI   C3B 7137  17.375   5.373   8.323  0.0453 -0.1583  0.4021
  452POPI   C4B 7138  17.049   5.670   8.320 -0.1999 -0.0679 -0.1222
  453POPI    C1 7139   8.205  13.048  10.625 -0.0276  0.0289  0.2345
  453POPI    C2 7140   8.604  13.036  10.651 -0.0120  0.0755  0.0291
  453POPI    C3 7141   8.424  13.359  10.499 -0.1197 -0.0085 -0.0225
  453POPI   PO4 7142   8.179  12.806  10.573  0.0593  0.3197  0.1922
  453POPI   GL1 7143   7.945  12.808  10.180 -0.0807  0.0437  0.0673
  453POPI   GL2 7144   7.830  12.551  10.052 -0.2356  0.1144 -0.2046
  453POPI   C1A 7145   7.924  12.917   9.785 -0.1610  0.0712  0.2911
  453POPI   D2A 7146   7.990  13.049   9.395  0.1574 -0.0675  0.1344
  453POPI   C3A 7147   8.013  12.988   9.025 -0.2362  0.0952 -0.2018
  453POPI   C4A 7148   7.769  13.002   8.575  0.0134 -0.1014 -0.0319
  453POPI   C1B 7149   8.227  12.497   9.922  0.1093  0.0019 -0.2392
  453POPI   C2B 7150   8.441  12.806   9.635 -0.0787 -0.1064 -0.3225
  453POPI   C3B 7151   8.706  12.986   9.378 -0.1011 -0.1354  0.0740
  453POPI   C4B 7152   8.946  13.105   9.055 -0.0390 -0.3924 -0.0576
  454POPI    C1 7153   3.280  11.251  10.700 -0.0795 -0.0085 -0.0269
  454POPI    C2 7154   3.010  11.474  10.894 -0.1069 -0.1476  0.0959
  454POPI    C3 7155   3.186  11.166  11.079 -0.2226 -0.3571 -0.1370
  454POPI   PO4 7156   3.208  11.022  10.485 -0.0599 -0.0538  0.0216
  454POPI   GL1 7157   3.411  11.221  10.054  0.0865  0.2868 -0.5111
  454POPI   GL2 7158   3.633  11.031  10.213  0.0608  0.0315 -0.0779
  454POPI   C1A 7159   3.397  11.389   9.611 -0.1048 -0.1887  0.0891
  454POPI   D2A 7160   3.074  11.432   9.351 -0.1580  0.1672  0.1856
  454POPI   C3A 7161   2.858  11.089   9.191  0.0077  0.0341 -0.3528
  454POPI   C4A 7162   2.629  10.838   8.911  0.0340 -0.2033  0.1589
  454POPI   C1B 7163   3.864  10.830   9.764  0.3188  0.0137 -0.1472
  454POPI   C2B 7164   4.048  10.738   9.303  0.0936  0.2480  0.0291
  454POPI   C3B 7165   4.175  10.528   8.935 -0.1651 -0.1569 -0.2057
  454POPI   C4B 7166   4.102  10.565   8.471 -0.4036  0.1831 -0.1300
  455POPI    C1 7167   3.313   7.330  10.518  0.0892  0.2061  0.0080
  455POPI    C2 7168   3.708   7.369  10.467  0.0878  0.5467  0.2261
  455POPI    C3 7169   3.564   7.213  10.806  0.0437 -0.0366 -0.0487
  455POPI   PO4 7170   3.246   7.151  10.245 -0.1487  0.5358  0.1615
  455POPI   GL1 7171   3.283   7.279   9.760 -0.1499  0.1518 -0.2872
  455POPI   GL2 7172   3.426   7.082   9.593  0.1376 -0.3372  0.3178
  455POPI   C1A 7173   3.330   7.726   9.650 -0.2117 -0.0444  0.3796
  455POPI   D2A 7174   3.146   7.863   9.294 -0.0876 -0.2494  0.0927
  455POPI   C3A 7175   3.085   7.778   8.888  0.0731 -0.0192  0.0328
  455POPI   C4A 7176   2.891   7.898   8.609  0.0632 -0.0423 -0.1003
  455POPI   C1B 7177   3.359   7.265   9.215 -0.3213  0.1092 -0.1951
  455POPI   C2B 7178   3.527   7.246   8.815 -0.2271 -0.1426 -0.2528
  455POPI   C3B 7179   3.542   7.141   8.423  0.0638  0.1106 -0.0763
  455POPI   C4B 7180   3.478   7.192   7.962 -0.3768  0.1691 -0.1533
  456POPI    C1 7181   8.446   9.687  10.359 -0.1522  0.0451  0.3700
  456POPI    C2 7182   8.463  10.082  10.301 -0.0803  0.0190  0.2060
  456POPI    C3 7183   8.790   9.882  10.417 -0.0386 -0.0359 -0.0027
  456POPI   PO4 7184   8.349   9.570  10.073  0.0621  0.0962  0.0590
  456POPI   GL1 7185   8.646   9.566   9.740 -0.3992 -0.1759  0.4077
  456POPI   GL2 7186   8.722   9.811   9.886 -0.2462  0.1424  0.0786
  456POPI   C1A 7187   8.389   9.752   9.395  0.0098 -0.1588  0.0357
  456POPI   D2A 7188   8.167   9.646   9.041  0.0923  0.3348 -0.2554
  456POPI   C3A 7189   8.129   9.631   8.644  0.0753  0.0020 -0.1038
  456POPI   C4A 7190   8.415   9.875   8.460 -0.2045  0.1958  0.0550
  456POPI   C1B 7191   8.749  10.121   9.542  0.1146  0.0488  0.2904
  456POPI   C2B 7192   8.818  10.276   9.037  0.2281  0.1658 -0.1595
  456POPI   C3B 7193   8.595  10.296   8.716 -0.3672 -0.2126 -0.0063
  456POPI   C4B 7194   8.787  10.168   8.248  0.3371  0.0690  0.4003
  457POPI    C1 7195  14.305   1.062  10.757  0.0031  0.0352 -0.0033
  457POPI    C2 7196  14.585   1.130  10.479 -0.2227  0.2659 -0.1785
  457POPI    C3 7197  14.449   1.432  10.704  0.0599  0.0570  0.2872
  457POPI   PO4 7198  14.299   0.797  10.781  0.3501 -0.1530 -0.0003
  457POPI   GL1 7199  14.401   0.730  10.306  0.0501 -0.0304 -0.0155
  457POPI   GL2 7200  14.364   0.378  10.119 -0.1114 -0.3240 -0.1124
  457POPI   C1A 7201  14.531   0.797   9.876 -0.0322  0.0173  0.0551
  457POPI   D2A 7202  14.607   0.759   9.461  0.1421 -0.1901 -0.2563
  457POPI   C3A 7203  14.872   0.451   9.249  0.4249  0.1483  0.2001
  457POPI   C4A 7204  14.986   0.193   8.848  0.2916  0.2574 -0.0290
  457POPI   C1B 7205  14.033   0.611   9.865 -0.3018  0.0207 -0.1116
  457POPI   C2B 7206  14.105   0.623   9.411 -0.2460 -0.1403  0.0873
  457POPI   C3B 7207  14.398   0.405   9.124 -0.1641 -0.0993 -0.3046
  457POPI   C4B 7208  14.516   0.395   8.721  0.0002  0.1546 -0.1220
  458POPI    C1 7209   3.772   4.729  10.381  0.0730 -0.2138 -0.1663
  458POPI    C2 7210   4.077   4.982  10.325 -0.2015  0.0454 -0.5342
  458POPI    C3 7211   3.742   5.108  10.504 -0.0529 -0.2726 -0.0131
  458POPI   PO4 7212   3.684   4.677  10.192 -0.2605 -0.0019 -0.1649
  458POPI   GL1 7213   3.685   4.834   9.788  0.0543  0.3291 -0.0191
  458POPI   GL2 7214   3.593   4.516   9.624 -0.3367 -0.1794  0.1649
  458POPI   C1A 7215   3.740   4.891   9.332  0.0460  0.1616 -0.1600
  458POPI   D2A 7216   3.822   4.822   8.938  0.2506 -0.1549 -0.4512
  458POPI   C3A 7217   3.880   4.919   8.468 -0.0908 -0.0360 -0.3798
  458POPI   C4A 7218   3.921   4.901   8.062  0.3170  0.3659 -0.1046
  458POPI   C1B 7219   3.694   4.383   9.121  0.1113  0.0746  0.0404
  458POPI   C2B 7220   3.776   4.412   8.669 -0.0435 -0.2011 -0.1163
  458POPI   C3B 7221   3.852   4.241   8.301  0.2651 -0.1060 -0.0303
  458POPI   C4B 7222   3.717   4.078   7.916  0.2911  0.3522  0.2822
  459POPI    C1 7223   3.472   7.767  10.617 -0.2515  0.0396 -0.0908
  459POPI    C2 7224   3.525   7.912  10.986  0.0154  0.1452 -0.1686
  459POPI    C3 7225   3.203   7.690  10.903 -0.1451  0.2814  0.0779
  459POPI   PO4 7226   3.686   7.910  10.434  0.1307 -0.0327 -0.1251
  459POPI   GL1 7227   3.883   7.864  10.197  0.1872  0.0062  0.1806
  459POPI   GL2 7228   4.233   7.819  10.045 -0.0041  0.0308 -0.1257
  459POPI   C1A 7229   3.842   7.774   9.684 -0.1191  0.1643 -0.0983
  459POPI   D2A 7230   3.652   7.629   9.298  0.0894 -0.0365  0.0585
  459POPI   C3A 7231   3.815   7.631   8.859 -0.0952 -0.1696 -0.1295
  459POPI   C4A 7232   3.772   7.535   8.416 -0.0764  0.0366  0.1627
  459POPI   C1B 7233   4.329   7.738   9.753 -0.0445  0.0321  0.2335
  459POPI   C2B 7234   4.281   7.653   9.291  0.1603 -0.0783  0.1952
  459POPI   C3B 7235   4.281   7.563   8.845 -0.2243 -0.0209 -0.0516
  459POPI   C4B 7236   4.247   7.505   8.461  0.0028 -0.1601  0.0892
  460POPI    C1 7237   1.300   0.401  10.397 -0.2281  0.0584 -0.2647
  460POPI    C2 7238   0.947   0.482  10.567 -0.1901 -0.1552 -0.0795
  460POPI    C3 7239   1.178   0.190  10.714 -0.0032 -0.1177 -0.2926
  460POPI   PO4 7240   1.258   0.242  10.155 -0.0184  0.1321 -0.1148
  460POPI   GL1 7241   1.224   0.330   9.708  0.0944  0.0454  0.2850
  460POPI   GL2 7242   1.527   0.348   9.746 -0.0215  0.1192 -0.1940
  460POPI   C1A 7243   0.827   0.249   9.518  0.2235 -0.1841  0.0648
  460POPI   D2A 7244   0.573   0.381   9.158 -0.0342  0.1160  0.3661
  460POPI   C3A 7245   0.670   0.179   8.721  0.1531  0.0989 -0.0769
  460POPI   C4A 7246   0.788   0.128   8.295 -0.1288  0.1034 -0.0692
  460POPI   C1B 7247   1.437   0.020   9.419 -0.2598 -0.2572  0.0099
  460POPI   C2B 7248   1.180   0.191   9.117  0.0328 -0.0178  0.1624
  460POPI   C3B 7249   1.247   0.206   8.587  0.1555 -0.0842 -0.2213
  460POPI   C4B 7250   1.381   0.549   8.394 -0.0118 -0.2179 -0.0101
  461POPI    C1 7251   6.102   4.866  10.570 -0.1921  0.0082 -0.0883
  461POPI    C2 7252   6.054   5.146  10.851  0.0325 -0.1920  0.1555
  461POPI    C3 7253   6.398   4.943  10.828 -0.0671 -0.3341 -0.1239
  461POPI   PO4 7254   6.056   4.954  10.366  0.0931  0.0525  0.0677
  461POPI   GL1 7255   6.138   5.037   9.920 -0.0786 -0.1099 -0.0455
  461POPI   GL2 7256   6.280   5.348   9.954  0.0179  0.4828 -0.0547
  461POPI   C1A 7257   6.192   4.862   9.521 -0.1880 -0.0709 -0.0852
  461POPI   D2A 7258   6.292   4.800   8.975  0.3397  0.3518 -0.1815
  461POPI   C3A 7259   6.421   4.810   8.615  0.4428 -0.1752 -0.1685
  461POPI   C4A 7260   6.188   4.907   8.356  0.0249  0.0510 -0.1868
  461POPI   C1B 7261   6.368   5.411   9.536  0.2053 -0.0391 -0.0541
  461POPI   C2B 7262   6.537   5.177   9.277  0.1485 -0.0020  0.2610
  461POPI   C3B 7263   6.715   5.060   8.889  0.3167 -0.0783 -0.0381
  461POPI   C4B 7264   6.708   5.199   8.549 -0.2673 -0.0396  0.3930
  462POPI    C1 7265  17.835  12.162  10.342  0.1632  0.0855 -0.0731
  462POPI    C2 7266  17.739  12.013  10.701  0.0468  0.1218 -0.0886
  462POPI    C3 7267  18.014  12.302  10.671 -0.0799  0.2517 -0.0087
  462POPI   PO4 7268  17.600  12.255  10.166  0.1072 -0.0076  0.2197
  462POPI   GL1 7269  17.699  12.378   9.766 -0.2277  0.0832  0.0253
  462POPI   GL2 7270  18.011  12.571   9.943  0.1454 -0.0090  0.0305
  462POPI   C1A 7271  17.593  12.586   9.365 -0.0530 -0.0719 -0.2268
  462POPI   D2A 7272  17.416  12.593   8.974 -0.1197 -0.1334 -0.0710
  462POPI   C3A 7273  17.457  12.539   8.497 -0.0328  0.0275 -0.1398
  462POPI   C4A 7274  17.719  12.562   8.175  0.0970 -0.1389 -0.0376
  462POPI   C1B 7275  18.061  12.619   9.523 -0.2288 -0.0934 -0.2009
  462POPI   C2B 7276  17.975  12.759   9.028  0.0505 -0.3411 -0.1532
  462POPI   C3B 7277  17.771  12.880   8.707 -0.1678  0.0682 -0.1286
  462POPI   C4B 7278  17.583  13.047   8.399  0.0113  0.0680  0.3148
  463POPI    C1 7279   9.032  14.838  10.886 -0.0997 -0.0456 -0.0215
  463POPI    C2 7280   8.994  15.230  10.817  0.0827 -0.0075  0.0875
  463POPI    C3 7281   9.032  15.095  11.192  0.3518 -0.0981  0.0301
  463POPI   PO4 7282   9.019  14.739  10.618  0.0752  0.1215 -0.1047
  463POPI   GL1 7283   8.944  14.895  10.349  0.3509 -0.1156 -0.1490
  463POPI   GL2 7284   8.671  14.853  10.152  0.2914  0.2485 -0.1327
  463POPI   C1A 7285   9.151  14.963   9.897 -0.3597  0.2367  0.1559
  463POPI   D2A 7286   9.414  15.002   9.607 -0.0366  0.1846  0.0226
  463POPI   C3A 7287   9.771  14.870   9.617  0.3800 -0.0569  0.0549
  463POPI   C4A 7288  10.073  14.508   9.507  0.0411 -0.0274 -0.4769
  463POPI   C1B 7289   8.802  14.563   9.919 -0.1126  0.3446 -0.3239
  463POPI   C2B 7290   8.928  14.645   9.515 -0.1820 -0.0221  0.1747
  463POPI   C3B 7291   8.973  14.639   9.144  0.0150 -0.1505  0.2869
  463POPI   C4B 7292   9.092  14.508   8.770  0.0313 -0.1522 -0.2287
  464POPI    C1 7293   8.440   4.871  10.646 -0.0021  0.0810 -0.0411
  464POPI    C2 7294   8.136   4.612  10.637 -0.1648  0.2739 -0.2097
  464POPI    C3 7295   8.063   5.005  10.635  0.0787  0.3237  0.0753
  464POPI   PO4 7296   8.595   4.755  10.434 -0.2693 -0.0007 -0.0766
  464POPI   GL1 7297   8.655   4.671  10.025  0.1003 -0.3278  0.1063
  464POPI   GL2 7298   8.778   4.375   9.810 -0.2645 -0.1614 -0.1742
  464POPI   C1A 7299   8.626   4.799   9.613 -0.0275 -0.2845  0.0793
  464POPI   D2A 7300   8.889   4.809   9.297  0.3846  0.0584 -0.1859
  464POPI   C3A 7301   8.765   4.816   8.949  0.1417  0.0810 -0.1293
  464POPI   C4A 7302   8.851   4.659   8.515 -0.2514 -0.0983  0.0140
  464POPI   C1B 7303   8.753   4.314   9.389 -0.1824 -0.0457  0.3826
  464POPI   C2B 7304   8.713   4.352   8.941 -0.2119  0.3726 -0.0793
  464POPI   C3B 7305   8.624   4.197   8.615  0.2156  0.4825 -0.2081
  464POPI   C4B 7306   8.907   4.033   8.325 -0.1699  0.5099  0.0439
  465POPI    C1 7307   1.542   1.048  10.351  0.1108  0.0554  0.2033
  465POPI    C2 7308   1.187   1.232  10.354  0.0153 -0.1237  0.0964
  465POPI    C3 7309   1.248   0.912  10.586  0.1267 -0.0578  0.1586
  465POPI   PO4 7310   1.677   1.027  10.012  0.1220 -0.1393 -0.2950
  465POPI   GL1 7311   1.766   1.299   9.677  0.4476  0.2143  0.2361
  465POPI   GL2 7312   1.922   0.990   9.520  0.0886  0.4282  0.0655
  465POPI   C1A 7313   1.542   1.234   9.304 -0.1369  0.3271  0.0796
  465POPI   D2A 7314   1.470   1.172   8.952 -0.0780  0.1656  0.2191
  465POPI   C3A 7315   1.496   0.733   8.874  0.0985 -0.1254  0.0596
  465POPI   C4A 7316   1.608   0.293   8.890 -0.1133 -0.2004  0.1204
  465POPI   C1B 7317   2.226   0.704   9.296  0.2842 -0.0473  0.0121
  465POPI   C2B 7318   2.090   0.494   8.888 -0.0610 -0.2588  0.0690
  465POPI   C3B 7319   1.861   0.607   8.517 -0.1139 -0.1283  0.0798
  465POPI   C4B 7320   1.771   0.350   8.113  0.0168  0.1329 -0.1183
  466POPI    C1 7321  11.463   7.147  10.438  0.1459 -0.2821  0.1553
  466POPI    C2 7322  11.406   7.390  10.751 -0.0028  0.0085 -0.0928
  466POPI    C3 7323  11.460   6.998  10.810  0.3756  0.1149  0.3227
  466POPI   PO4 7324  11.157   7.148  10.304 -0.3046  0.1589  0.1448
  466POPI   GL1 7325  11.214   7.122   9.846 -0.1310  0.1239  0.0657
  466POPI   GL2 7326  11.458   6.937   9.695 -0.1900  0.0555  0.0703
  466POPI   C1A 7327  10.950   7.166   9.565 -0.0048  0.2066  0.2338
  466POPI   D2A 7328  11.127   7.223   9.178 -0.1648  0.1059 -0.0129
  466POPI   C3A 7329  11.111   6.908   8.879  0.0037 -0.4062 -0.2416
  466POPI   C4A 7330  10.840   6.689   8.627 -0.2501 -0.1628 -0.1807
  466POPI   C1B 7331  11.385   6.833   9.396  0.0013 -0.1953 -0.2427
  466POPI   C2B 7332  11.504   6.583   9.052 -0.0949 -0.3349 -0.0678
  466POPI   C3B 7333  11.907   6.345   8.983 -0.1582  0.1391  0.2305
  466POPI   C4B 7334  12.033   6.103   8.774  0.0366  0.3178  0.0270
  467POPI    C1 7335   7.696  17.762  10.667 -0.0003 -0.0000  0.1970
  467POPI    C2 7336   7.624  17.399  10.819  0.1943 -0.1913 -0.1556
  467POPI    C3 7337   8.001  17.526  10.772  0.1294  0.0111 -0.1406
  467POPI   PO4 7338   7.519  17.851  10.504 -0.1078 -0.0111 -0.5531
  467POPI   GL1 7339   7.353  17.757  10.108  0.1407  0.1858  0.0681
  467POPI   GL2 7340   6.959  17.763  10.088 -0.0048  0.0818 -0.0780
  467POPI   C1A 7341   7.260  17.936   9.737  0.0419 -0.0386  0.2914
  467POPI   D2A 7342   7.553  18.184   9.467 -0.3657  0.1725  0.0146
  467POPI   C3A 7343   7.762  18.135   9.094  0.0709  0.1237 -0.0310
  467POPI   C4A 7344   7.991  18.125   8.833 -0.2630 -0.0511 -0.2247
  467POPI   C1B 7345   6.913  17.617   9.726  0.0136  0.0726 -0.1225
  467POPI   C2B 7346   7.020  17.733   9.402  0.0932 -0.4620  0.2310
  467POPI   C3B 7347   6.932  17.663   8.994 -0.0693 -0.0455 -0.0608
  467POPI   C4B 7348   6.925  17.782   8.509 -0.1410  0.2305 -0.1497
  468POPI    C1 7349  11.123   2.145  10.626  0.2075 -0.4265 -0.0749
  468POPI    C2 7350  11.054   2.223  11.012 -0.0436  0.1405 -0.2238
  468POPI    C3 7351  11.368   2.388  10.827 -0.0387  0.0330 -0.3128
  468POPI   PO4 7352  10.922   1.967  10.550  0.0646 -0.2961  0.3793
  468POPI   GL1 7353  10.684   1.772  10.230  0.3365 -0.0058  0.1265
  468POPI   GL2 7354  10.959   1.761  10.048 -0.1392 -0.2301 -0.0905
  468POPI   C1A 7355  10.558   1.496   9.868  0.0801  0.1899  0.1042
  468POPI   D2A 7356  10.544   1.216   9.482  0.5635  0.0610 -0.0714
  468POPI   C3A 7357  10.957   1.139   9.215  0.2294  0.2195  0.3489
  468POPI   C4A 7358  11.023   0.895   8.833 -0.0053 -0.0213  0.3769
  468POPI   C1B 7359  10.912   1.983   9.658  0.1691 -0.0640  0.2474
  468POPI   C2B 7360  10.862   2.073   9.266 -0.0796 -0.1762  0.1855
  468POPI   C3B 7361  10.744   2.020   8.912 -0.1159 -0.0441 -0.1217
  468POPI   C4B 7362  10.743   2.013   8.445 -0.3393 -0.1421  0.1065
  469POPI    C1 7363   9.931   3.560  10.114  0.1162 -0.2110  0.0168
  469POPI    C2 7364   9.791   3.478  10.480  0.1076 -0.0617  0.0475
  469POPI    C3 7365   9.625   3.770  10.262  0.1924 -0.0683 -0.0267
  469POPI   PO4 7366  10.183   3.560  10.120  0.1427 -0.1884 -0.0036
  469POPI   GL1 7367  10.446   3.417   9.811 -0.2617 -0.4093  0.2547
  469POPI   GL2 7368  10.452   3.675   9.662 -0.2087  0.1216 -0.2850
  469POPI   C1A 7369  10.168   3.236   9.526  0.0628  0.0250  0.2640
  469POPI   D2A 7370  10.131   3.190   9.064 -0.0145 -0.3657 -0.3006
  469POPI   C3A 7371   9.774   3.353   8.815 -0.1986  0.1211  0.1108
  469POPI   C4A 7372   9.678   3.474   8.428  0.3622 -0.1240 -0.0089
  469POPI   C1B 7373  10.447   3.613   9.297  0.1338  0.2312  0.2274
  469POPI   C2B 7374  10.451   3.477   8.851 -0.1748  0.0720  0.0398
  469POPI   C3B 7375  10.542   3.547   8.492 -0.6728  0.1880 -0.1023
  469POPI   C4B 7376  10.525   3.335   8.103 -0.0512 -0.2332 -0.3396
  470POPI    C1 7377   5.069   5.351  10.803 -0.0877 -0.0833 -0.0231
  470POPI    C2 7378   5.382   5.176  10.979 -0.0926  0.1961  0.2720
  470POPI    C3 7379   5.011   5.062  11.073 -0.0863  0.0268  0.0963
  470POPI   PO4 7380   5.244   5.398  10.427 -0.0466  0.0471  0.3272
  470POPI   GL1 7381   4.923   5.404  10.080  0.2083  0.1502  0.3410
  470POPI   GL2 7382   5.126   5.052  10.021 -0.2747 -0.1727 -0.2472
  470POPI   C1A 7383   5.252   5.546   9.804  0.2857  0.1559  0.0406
  470POPI   D2A 7384   5.212   5.456   9.380 -0.2110  0.4025 -0.2663
  470POPI   C3A 7385   5.338   5.391   8.986  0.1356  0.0728  0.1659
  470POPI   C4A 7386   5.337   5.254   8.627  0.1662 -0.2007 -0.0904
  470POPI   C1B 7387   5.269   4.978   9.623  0.1076  0.2280 -0.0135
  470POPI   C2B 7388   5.298   4.912   9.173 -0.1320  0.2666 -0.0211
  470POPI   C3B 7389   5.424   4.807   8.826 -0.1157 -0.2694 -0.0235
  470POPI   C4B 7390   5.541   4.484   8.516 -0.3602  0.2008 -0.1579
  471POPI    C1 7391  17.946   7.487  10.167  0.2573  0.0175  0.0269
  471POPI    C2 7392  18.015   7.094  10.199  0.0319 -0.0358 -0.1182
  471POPI    C3 7393  18.044   7.329  10.521  0.2746 -0.1522 -0.0526
  471POPI   PO4 7394  17.747   7.559   9.978  0.4572 -0.1391 -0.0198
  471POPI   GL1 7395  17.874   7.628   9.568 -0.1320  0.2999  0.0893
  471POPI   GL2 7396  17.732   7.446   9.388 -0.1238 -0.0176  0.2103
  471POPI   C1A 7397  17.678   7.886   9.248  0.1061 -0.0455 -0.1098
  471POPI   D2A 7398  17.314   8.126   9.244 -0.1099  0.4610  0.1084
  471POPI   C3A 7399  17.179   8.374   8.888  0.4832 -0.0811  0.1899
  471POPI   C4A 7400  17.131   8.614   8.501  0.2304 -0.0370 -0.3939
  471POPI   C1B 7401  17.661   7.245   9.065  0.0527 -0.2136  0.2477
  471POPI   C2B 7402  17.534   7.325   8.749 -0.1461  0.2639  0.2404
  471POPI   C3B 7403  17.468   7.597   8.401 -0.0270 -0.1380 -0.0519
  471POPI   C4B 7404  17.608   7.669   7.940  0.0814  0.3560  0.2626
  472POPI    C1 7405   9.467  11.839  10.798 -0.0593 -0.0263  0.0605
  472POPI    C2 7406   9.205  11.625  11.013 -0.0889 -0.0548 -0.0037
  472POPI    C3 7407   9.171  12.023  10.995 -0.0423 -0.0457  0.1042
  472POPI   PO4 7408   9.480  11.654  10.596 -0.1617  0.2473  0.2423
  472POPI   GL1 7409   9.507  11.621  10.124 -0.2290 -0.2872 -0.1043
  472POPI   GL2 7410   9.182  11.632  10.102 -0.0348 -0.2128 -0.1227
  472POPI   C1A 7411   9.739  11.427   9.763  0.1834 -0.3012  0.0103
  472POPI   D2A 7412   9.742  11.557   9.288 -0.1273  0.1413  0.1413
  472POPI   C3A 7413   9.765  11.577   8.936 -0.0014 -0.0494  0.2219
  472POPI   C4A 7414   9.751  11.164   8.631 -0.1265  0.1291 -0.3459
  472POPI   C1B 7415   9.164  11.524   9.714 -0.0410  0.1919  0.3043
  472POPI   C2B 7416   9.191  11.604   9.253 -0.1281 -0.2613  0.0596
  472POPI   C3B 7417   9.202  11.771   8.915 -0.1960  0.0991  0.0382
  472POPI   C4B 7418   9.207  11.955   8.379  0.1829 -0.2796 -0.4476
  473DPPI    C1 7419   4.518  14.671  10.261 -0.1241  0.1226  0.2042
  473DPPI    C2 7420   4.473  15.018  10.067  0.2519  0.0704  0.0160
  473DPPI    C3 7421   4.563  15.017  10.457  0.1076  0.1818  0.0501
  473DPPI   PO4 7422   4.738  14.520  10.129  0.1582  0.0677 -0.0744
  473DPPI   GL1 7423   4.734  14.670   9.745  0.1082  0.0414  0.4658
  473DPPI   GL2 7424   4.744  15.018   9.660 -0.3653  0.2785 -0.0998
  473DPPI   C1A 7425   4.705  14.646   9.201 -0.1618 -0.0017 -0.1142
  473DPPI   C2A 7426   4.752  14.643   8.741  0.1105 -0.2242 -0.0397
  473DPPI   C3A 7427   4.984  14.377   8.549  0.1355 -0.2642 -0.0210
  473DPPI   C4A 7428   5.036  14.269   8.096  0.0569 -0.1973  0.1801
  473DPPI   C1B 7429   4.622  15.242   9.278 -0.1572  0.1199 -0.2475
  473DPPI   C2B 7430   4.623  15.429   8.876  0.1118 -0.1935  0.1240
  473DPPI   C3B 7431   4.574  15.447   8.353  0.0293 -0.0174 -0.1493
  473DPPI   C4B 7432   4.708  15.574   7.898  0.0217  0.2770 -0.1319
  474DPPI    C1 7433   0.255  12.121  10.431 -0.2027  0.0013  0.1957
  474DPPI    C2 7434  -0.054  12.333  10.290 -0.0522 -0.0284 -0.1920
  474DPPI    C3 7435   0.178  12.485  10.579 -0.3147  0.0720 -0.0305
  474DPPI   PO4 7436   0.494  12.082  10.216 -0.0217  0.1116  0.1623
  474DPPI   GL1 7437   0.633  12.012   9.836  0.4545 -0.1515  0.0462
  474DPPI   GL2 7438   0.704  12.410   9.673  0.2233  0.0357 -0.3050
  474DPPI   C1A 7439   0.535  11.969   9.391 -0.0553 -0.2437 -0.3055
  474DPPI   C2A 7440   0.457  12.065   9.008  0.1342 -0.0746 -0.2819
  474DPPI   C3A 7441   0.600  11.857   8.698  0.1039  0.1701 -0.1923
  474DPPI   C4A 7442   0.744  11.640   8.331 -0.6113  0.4340 -0.0240
  474DPPI   C1B 7443   0.814  12.389   9.230 -0.0989  0.3384  0.1321
  474DPPI   C2B 7444   0.712  12.394   8.794 -0.3047  0.1770 -0.0888
  474DPPI   C3B 7445   0.431  12.374   8.573 -0.1681 -0.1228 -0.1851
  474DPPI   C4B 7446   0.047  12.306   8.202 -0.0681  0.0076  0.3506
  475DPPI    C1 7447  14.438  12.425  10.848 -0.1400 -0.0594  0.0111
  475DPPI    C2 7448  14.350  12.562  11.213 -0.0982  0.0945 -0.0358
  475DPPI    C3 7449  14.646  12.297  11.165  0.0438  0.2413  0.0166
  475DPPI   PO4 7450  14.315  12.583  10.665  0.2268  0.2167 -0.0153
  475DPPI   GL1 7451  14.331  12.612  10.262 -0.2012 -0.0941  0.1388
  475DPPI   GL2 7452  14.145  12.495  10.008 -0.4412 -0.0832  0.3397
  475DPPI   C1A 7453  14.645  12.606   9.918 -0.2844  0.1182 -0.0332
  475DPPI   C2A 7454  15.082  12.758   9.785 -0.0049  0.0615 -0.0326
  475DPPI   C3A 7455  15.428  12.602   9.482  0.1490  0.0543  0.1486
  475DPPI   C4A 7456  15.645  12.341   9.096 -0.0994 -0.1220 -0.1083
  475DPPI   C1B 7457  14.213  12.615   9.527 -0.0656 -0.0616  0.4511
  475DPPI   C2B 7458  14.120  12.693   9.080  0.2580 -0.3042 -0.0382
  475DPPI   C3B 7459  13.985  12.707   8.622  0.0023  0.0326 -0.1210
  475DPPI   C4B 7460  13.884  12.850   8.187 -0.1291 -0.1858  0.0935
  476DPPI    C1 7461  14.840  18.095  10.715  0.0504  0.2105  0.0162
  476DPPI    C2 7462  15.149  17.890  10.864 -0.0327  0.0831  0.0147
  476DPPI    C3 7463  14.783  17.729  10.867 -0.0929  0.2188 -0.0167
  476DPPI   PO4 7464  15.020  18.251  10.540  0.2962 -0.1396 -0.0662
  476DPPI   GL1 7465  15.138  18.084  10.128  0.0968  0.0998 -0.0996
  476DPPI   GL2 7466  15.389  18.430  10.228  0.2440 -0.1491 -0.1680
  476DPPI   C1A 7467  15.204  18.002   9.738 -0.2641  0.1983 -0.3142
  476DPPI   C2A 7468  14.771  17.951   9.569  0.1090 -0.1051  0.0098
  476DPPI   C3A 7469  14.589  17.851   9.136 -0.1274 -0.1945 -0.2474
  476DPPI   C4A 7470  14.593  17.847   8.693  0.0184 -0.2101 -0.0855
  476DPPI   C1B 7471  15.410  18.484   9.822  0.3974  0.3095  0.2557
  476DPPI   C2B 7472  15.511  18.537   9.351  0.2306 -0.3752 -0.0607
  476DPPI   C3B 7473  15.547  18.467   9.023  0.1535 -0.0950  0.2407
  476DPPI   C4B 7474  15.372  18.437   8.670 -0.0426  0.0368  0.2029
  477DPPI    C1 7475   4.211   4.503  10.361  0.0566  0.0372 -0.1942
  477DPPI    C2 7476   4.471   4.284  10.571  0.2048 -0.0577 -0.4702
  477DPPI    C3 7477   4.220   4.532  10.759  0.3223 -0.1515 -0.1835
  477DPPI   PO4 7478   4.103   4.349  10.200 -0.5209 -0.2380 -0.2054
  477DPPI   GL1 7479   4.312   4.258   9.790  0.0506 -0.1002 -0.1213
  477DPPI   GL2 7480   4.229   3.978   9.589  0.0806 -0.0482 -0.1828
  477DPPI   C1A 7481   4.040   4.348   9.419 -0.1259  0.1468 -0.0033
  477DPPI   C2A 7482   4.159   4.427   9.011  0.2356 -0.1197  0.1368
  477DPPI   C3A 7483   4.325   4.482   8.671  0.1773 -0.0961  0.1428
  477DPPI   C4A 7484   4.243   4.553   8.287  0.0268 -0.2037  0.2447
  477DPPI   C1B 7485   4.198   3.953   9.141  0.1136  0.1842 -0.0614
  477DPPI   C2B 7486   3.915   3.983   8.843 -0.1897 -0.1903 -0.2682
  477DPPI   C3B 7487   3.731   3.803   8.431  0.0452  0.0333 -0.3819
  477DPPI   C4B 7488   3.517   3.477   8.221 -0.2611  0.0145  0.1356
  478DPPI    C1 7489  15.494  18.076  10.583 -0.0024  0.0369 -0.0569
  478DPPI    C2 7490  15.720  17.858  10.831  0.0803  0.1060 -0.0713
  478DPPI    C3 7491  15.566  18.206  10.954  0.0251  0.0843 -0.0788
  478DPPI   PO4 7492  15.589  18.000  10.386 -0.0181 -0.0257 -0.3132
  478DPPI   GL1 7493  15.595  17.805  10.085  0.1420 -0.1875  0.0666
  478DPPI   GL2 7494  15.878  18.017  10.007 -0.0447  0.1932  0.0253
  478DPPI   C1A 7495  15.630  17.626   9.632 -0.1472 -0.0310 -0.0209
  478DPPI   C2A 7496  15.375  17.697   9.204 -0.3062 -0.1032 -0.0593
  478DPPI   C3A 7497  15.425  17.698   8.780  0.2720  0.2097  0.1227
  478DPPI   C4A 7498  15.033  17.693   8.481 -0.0812 -0.0289 -0.1570
  478DPPI   C1B 7499  15.757  18.129   9.591 -0.0777 -0.0278  0.2099
  478DPPI   C2B 7500  15.854  18.050   9.124  0.0851 -0.2964  0.0928
  478DPPI   C3B 7501  15.875  18.130   8.666  0.2318  0.2896  0.1420
  478DPPI   C4B 7502  15.756  18.383   8.365 -0.2913 -0.0437  0.0074
  479DPPI    C1 7503   8.851  14.343  11.067 -0.2191 -0.1550 -0.1852
  479DPPI    C2 7504   8.472  14.454  11.002 -0.1872  0.0280 -0.0659
  479DPPI    C3 7505   8.705  14.670  11.245 -0.0117 -0.0950 -0.1227
  479DPPI   PO4 7506   8.915  14.275  10.734 -0.1521  0.0370  0.1818
  479DPPI   GL1 7507   9.057  14.227  10.245  0.1056  0.1730  0.1355
  479DPPI   GL2 7508   9.273  14.544  10.199 -0.0869  0.3551 -0.0503
  479DPPI   C1A 7509   8.712  14.055  10.012 -0.1913  0.0361  0.2468
  479DPPI   C2A 7510   8.720  13.888   9.608  0.1689  0.0086  0.0579
  479DPPI   C3A 7511   8.798  13.768   9.160 -0.4382  0.3288  0.0502
  479DPPI   C4A 7512   8.929  13.618   8.891  0.3388  0.4642  0.3175
  479DPPI   C1B 7513   9.419  14.507   9.780 -0.2758  0.1161  0.0762
  479DPPI   C2B 7514   9.543  14.543   9.321  0.2704 -0.1738 -0.1231
  479DPPI   C3B 7515   9.548  14.588   8.862  0.0678 -0.2957  0.2185
  479DPPI   C4B 7516   9.410  14.484   8.346  0.0434  0.0064 -0.0005
  480DPPI    C1 7517  14.910   6.900  10.152 -0.1542  0.0356  0.1261
  480DPPI    C2 7518  15.202   7.105  10.332 -0.1336 -0.0424  0.1822
  480DPPI    C3 7519  15.130   7.160   9.943 -0.0338 -0.0345  0.1647
  480DPPI   PO4 7520  14.938   6.628  10.320 -0.0160 -0.0499  0.2282
  480DPPI   GL1 7521  14.710   6.412   9.957 -0.3353  0.0966  0.1877
  480DPPI   GL2 7522  14.517   6.375   9.674  0.0223  0.0672 -0.0715
  480DPPI   C1A 7523  15.085   6.634   9.647 -0.0776  0.1171 -0.0221
  480DPPI   C2A 7524  14.959   6.736   9.144  0.2323 -0.1197  0.1085
  480DPPI   C3A 7525  14.696   6.642   8.671  0.1052  0.2002  0.1540
  480DPPI   C4A 7526  14.182   6.548   8.543 -0.0242 -0.2724  0.1404
  480DPPI   C1B 7527  14.830   6.259   9.400  0.2391 -0.1070 -0.1679
  480DPPI   C2B 7528  14.986   6.253   8.970  0.0226 -0.0404 -0.1054
  480DPPI   C3B 7529  15.053   6.079   8.550 -0.3420 -0.2695  0.2595
  480DPPI   C4B 7530  14.973   5.960   8.129 -0.0319 -0.1098  0.0194
  481DPPI    C1 7531   2.005   8.964  10.306  0.3185 -0.1063 -0.0102
  481DPPI    C2 7532   1.935   9.218  10.005  0.0414  0.0426  0.1748
  481DPPI    C3 7533   1.759   9.275  10.359  0.0610 -0.3488  0.2525
  481DPPI   PO4 7534   1.896   8.690  10.155  0.2679 -0.0724  0.0081
  481DPPI   GL1 7535   1.783   8.633   9.723 -0.0206 -0.3385 -0.1026
  481DPPI   GL2 7536   1.480   8.516   9.802 -0.0896 -0.3072 -0.0373
  481DPPI   C1A 7537   2.020   8.888   9.544  0.1474 -0.2631  0.2456
  481DPPI   C2A 7538   2.168   8.859   9.257 -0.2387  0.0603  0.2983
  481DPPI   C3A 7539   2.315   8.869   8.897 -0.0203 -0.0277  0.2604
  481DPPI   C4A 7540   2.417   8.669   8.578  0.3161  0.2157  0.4086
  481DPPI   C1B 7541   1.330   8.515   9.376 -0.0500 -0.3666  0.1131
  481DPPI   C2B 7542   1.284   8.657   8.940 -0.0604 -0.2572 -0.1052
  481DPPI   C3B 7543   1.360   8.916   8.555 -0.1786  0.1665 -0.1756
  481DPPI   C4B 7544   1.284   9.061   8.084  0.1826 -0.0913  0.2260
  482DPPI    C1 7545   9.311   3.414  10.562  0.0352 -0.0090 -0.2146
  482DPPI    C2 7546   9.416   3.772  10.705 -0.3557  0.1541 -0.3212
  482DPPI    C3 7547   9.302   3.482  10.956  0.1955  0.0183 -0.2152
  482DPPI   PO4 7548   9.075   3.446  10.425  0.0883 -0.1175  0.2257
  482DPPI   GL1 7549   8.920   3.372  10.048  0.0139 -0.0243  0.3047
  482DPPI   GL2 7550   8.612   3.368   9.970  0.2217 -0.1467  0.2414
  482DPPI   C1A 7551   9.180   3.126   9.839 -0.2104 -0.1096 -0.3005
  482DPPI   C2A 7552   9.246   3.026   9.485 -0.0670 -0.0397  0.0244
  482DPPI   C3A 7553   9.282   3.052   9.091 -0.0824  0.1866  0.0150
  482DPPI   C4A 7554   9.305   3.089   8.641  0.3245 -0.0444 -0.1718
  482DPPI   C1B 7555   8.828   3.416   9.576 -0.0082  0.1351  0.1439
  482DPPI   C2B 7556   8.828   3.488   9.142  0.1660 -0.1599 -0.2331
  482DPPI   C3B 7557   8.825   3.254   8.726 -0.0030 -0.0293 -0.0488
  482DPPI   C4B 7558   8.777   3.165   8.278  0.4319  0.1292 -0.3491
  483DPPI    C1 7559   6.129   8.212  10.362  0.2538 -0.3624 -0.1621
  483DPPI    C2 7560   6.099   8.070  10.735 -0.2710  0.0143 -0.0496
  483DPPI    C3 7561   6.422   8.279  10.626  0.0091 -0.3275  0.1059
  483DPPI   PO4 7562   6.112   8.031  10.237 -0.1743 -0.1575  0.2127
  483DPPI   GL1 7563   6.133   8.006   9.877 -0.2804 -0.2198  0.0479
  483DPPI   GL2 7564   6.035   8.336   9.837 -0.0832  0.1013  0.0053
  483DPPI   C1A 7565   5.950   7.694   9.551  0.3288  0.0471 -0.0484
  483DPPI   C2A 7566   5.936   7.374   9.396 -0.5962 -0.1345 -0.1788
  483DPPI   C3A 7567   6.232   7.017   9.353 -0.0671  0.0432  0.2325
  483DPPI   C4A 7568   6.408   6.895   9.626 -0.1524 -0.1893  0.1659
  483DPPI   C1B 7569   6.145   8.587   9.479  0.3244  0.0394  0.0619
  483DPPI   C2B 7570   6.172   8.693   9.065  0.0743 -0.1181  0.1343
  483DPPI   C3B 7571   6.232   8.740   8.614 -0.0163 -0.0013  0.3393
  483DPPI   C4B 7572   6.277   8.931   8.239  0.1020 -0.2873  0.4034
  484DPPI    C1 7573   4.300   9.932  10.945  0.3617  0.0966 -0.2715
  484DPPI    C2 7574   4.506  10.101  11.243 -0.0749 -0.0352  0.1174
  484DPPI    C3 7575   4.327   9.748  11.299 -0.2644 -0.0047 -0.2643
  484DPPI   PO4 7576   4.387  10.132  10.728  0.0480 -0.0804 -0.0169
  484DPPI   GL1 7577   4.194  10.208  10.214  0.1353  0.0982  0.2171
  484DPPI   GL2 7578   3.930  10.357  10.081 -0.0959  0.0636  0.1670
  484DPPI   C1A 7579   4.369  10.001   9.890 -0.0446  0.1574 -0.1845
  484DPPI   C2A 7580   4.488   9.857   9.504 -0.0505 -0.0408 -0.0586
  484DPPI   C3A 7581   4.751   9.684   9.238  0.4883  0.1191 -0.1017
  484DPPI   C4A 7582   4.657   9.679   8.781 -0.4244  0.0835 -0.2206
  484DPPI   C1B 7583   4.117  10.434   9.731  0.5653  0.0006  0.5150
  484DPPI   C2B 7584   4.322  10.320   9.389  0.1003  0.1316 -0.1122
  484DPPI   C3B 7585   4.439  10.061   9.094 -0.3124 -0.0798  0.1956
  484DPPI   C4B 7586   4.566  10.248   8.731 -0.2943  0.0407 -0.0817
  485DPPI    C1 7587   2.207   9.769  10.443 -0.0504  0.1593  0.2327
  485DPPI    C2 7588   2.212   9.389  10.570  0.0231  0.0798 -0.0027
  485DPPI    C3 7589   2.272   9.687  10.830  0.0425 -0.0728  0.1700
  485DPPI   PO4 7590   1.936   9.700  10.222 -0.3746  0.0084 -0.4366
  485DPPI   GL1 7591   2.132   9.652   9.918 -0.0637  0.2174 -0.1369
  485DPPI   GL2 7592   2.301   9.837   9.823  0.0659  0.5996 -0.0911
  485DPPI   C1A 7593   2.127   9.387   9.554 -0.1571  0.0116  0.1733
  485DPPI   C2A 7594   2.075   9.413   9.189 -0.1420  0.2019 -0.0921
  485DPPI   C3A 7595   1.983   9.687   8.836  0.0378 -0.1809  0.0175
  485DPPI   C4A 7596   1.710   9.824   8.560  0.3286 -0.1953  0.0117
  485DPPI   C1B 7597   2.463   9.767   9.408  0.1443 -0.2567  0.0206
  485DPPI   C2B 7598   2.435   9.836   9.047  0.6729 -0.3265 -0.1083
  485DPPI   C3B 7599   2.371   9.900   8.599  0.1704  0.1955  0.0606
  485DPPI   C4B 7600   2.280  10.113   8.138 -0.1105  0.2196 -0.0814
  486DPPI    C1 7601  17.144  10.763  10.191 -0.2566  0.2413 -0.1335
  486DPPI    C2 7602  16.835  10.677   9.954 -0.1806 -0.0146 -0.1425
  486DPPI    C3 7603  16.791  10.666  10.351 -0.1552 -0.1605 -0.1432
  486DPPI   PO4 7604  17.349  10.593  10.103 -0.1708 -0.2556  0.3678
  486DPPI   GL1 7605  17.509  10.698   9.748 -0.0141 -0.1624 -0.2796
  486DPPI   GL2 7606  17.227  10.840   9.681 -0.1127  0.0547  0.0023
  486DPPI   C1A 7607  17.490  10.457   9.381  0.3463  0.0523  0.1340
  486DPPI   C2A 7608  17.558  10.317   9.054  0.2508  0.0443 -0.0993
  486DPPI   C3A 7609  17.871  10.367   8.714 -0.2244 -0.2659 -0.0077
  486DPPI   C4A 7610  17.958  10.363   8.318 -0.1727 -0.2905  0.1680
  486DPPI   C1B 7611  17.453  10.936   9.263 -0.2156  0.2156  0.1810
  486DPPI   C2B 7612  17.501  10.821   8.936 -0.0166 -0.0032 -0.0200
  486DPPI   C3B 7613  17.575  10.852   8.538 -0.0726  0.1352  0.0343
  486DPPI   C4B 7614  17.544  11.186   8.259 -0.0619 -0.1158 -0.1426
  487DPPI    C1 7615  11.105  11.999  10.647 -0.3050  0.0922 -0.3374
  487DPPI    C2 7616  11.249  12.359  10.547 -0.0777  0.0728 -0.0938
  487DPPI    C3 7617  10.886  12.327  10.710  0.0250  0.2280  0.1707
  487DPPI   PO4 7618  11.120  11.825  10.405  0.0746  0.0494 -0.1075
  487DPPI   GL1 7619  11.174  11.961   9.990 -0.1302 -0.1417 -0.0272
  487DPPI   GL2 7620  11.387  12.211  10.071  0.0129 -0.2137  0.2506
  487DPPI   C1A 7621  11.094  12.124   9.576  0.0717 -0.1446  0.1459
  487DPPI   C2A 7622  11.031  12.151   9.155  0.0375 -0.0670  0.1823
  487DPPI   C3A 7623  10.954  11.980   8.794 -0.3252  0.0284 -0.0378
  487DPPI   C4A 7624  11.139  12.186   8.405  0.0453  0.1456 -0.0561
  487DPPI   C1B 7625  11.589  12.079   9.716 -0.4495 -0.1321 -0.1935
  487DPPI   C2B 7626  11.521  12.145   9.253  0.1019 -0.1631 -0.1963
  487DPPI   C3B 7627  11.495  12.185   8.795  0.0864 -0.2850  0.0817
  487DPPI   C4B 7628  11.710  12.219   8.479  0.1672  0.0368  0.2486
  488DPPI    C1 7629   4.460  15.529  10.122  0.0035 -0.1041  0.1679
  488DPPI    C2 7630   4.475  15.536  10.522 -0.0772 -0.0010  0.1695
  488DPPI    C3 7631   4.186  15.331  10.336 -0.1290  0.0752  0.1659
  488DPPI   PO4 7632   4.734  15.406  10.032  0.1414 -0.0859  0.2217
  488DPPI   GL1 7633   5.128  15.378   9.854  0.1549  0.1544 -0.1559
  488DPPI   GL2 7634   5.084  15.689   9.719 -0.0276 -0.2246  0.0310
  488DPPI   C1A 7635   5.116  15.237   9.430  0.1841  0.0575  0.1426
  488DPPI   C2A 7636   5.080  15.394   8.989 -0.1149  0.1001 -0.2086
  488DPPI   C3A 7637   5.042  15.107   8.544 -0.1365 -0.2609  0.4141
  488DPPI   C4A 7638   5.000  14.760   8.272 -0.2806  0.0742  0.2426
  488DPPI   C1B 7639   4.928  15.751   9.408 -0.1142  0.1172  0.2863
  488DPPI   C2B 7640   4.903  15.848   8.926  0.1508  0.0460  0.2611
  488DPPI   C3B 7641   5.051  15.820   8.547 -0.2389  0.5668  0.1630
  488DPPI   C4B 7642   5.063  15.874   8.054 -0.1850 -0.3744  0.2225
  489DPPI    C1 7643  17.612  17.056  10.639 -0.0425  0.0476 -0.1543
  489DPPI    C2 7644  17.417  17.345  10.836  0.2272  0.0868  0.0596
  489DPPI    C3 7645  17.528  17.011  11.027 -0.0024 -0.1217 -0.1646
  489DPPI   PO4 7646  17.683  17.249  10.420 -0.0392 -0.1174 -0.0502
  489DPPI   GL1 7647  17.660  17.291   9.989 -0.1446 -0.2755 -0.0367
  489DPPI   GL2 7648  17.510  17.600   9.919 -0.3961  0.1961 -0.4141
  489DPPI   C1A 7649  17.480  17.119   9.687  0.2040  0.0437  0.0806
  489DPPI   C2A 7650  17.459  17.111   9.216  0.1153 -0.1246 -0.1123
  489DPPI   C3A 7651  17.252  17.104   8.786 -0.1594 -0.2720 -0.0821
  489DPPI   C4A 7652  16.968  17.343   8.433  0.1273 -0.2228  0.0443
  489DPPI   C1B 7653  17.699  17.650   9.512 -0.0951 -0.1432 -0.0968
  489DPPI   C2B 7654  17.849  17.916   9.168  0.1252 -0.0002 -0.1364
  489DPPI   C3B 7655  18.161  18.008   8.955  0.0962 -0.1182  0.3651
  489DPPI   C4B 7656  18.477  18.197   8.732  0.0443 -0.0253  0.1917
  490DPPI    C1 7657   8.650   1.843  10.947 -0.1889 -0.3050  0.0507
  490DPPI    C2 7658   8.867   1.743  11.268 -0.0337 -0.0581  0.0255
  490DPPI    C3 7659   8.605   2.045  11.290 -0.0230 -0.0410 -0.0793
  490DPPI   PO4 7660   8.686   1.811  10.631 -0.0627  0.2167 -0.0261
  490DPPI   GL1 7661   8.645   2.173  10.217  0.1894  0.0522 -0.0215
  490DPPI   GL2 7662   8.944   2.261  10.111  0.1580  0.1245  0.2197
  490DPPI   C1A 7663   8.365   1.894   9.954 -0.1412 -0.2746  0.1290
  490DPPI   C2A 7664   8.001   2.158   9.735 -0.4229 -0.0905  0.0593
  490DPPI   C3A 7665   7.997   2.115   9.281  0.4025 -0.0632 -0.0014
  490DPPI   C4A 7666   7.908   1.937   8.981  0.2265  0.2165 -0.2969
  490DPPI   C1B 7667   9.286   2.156   9.890  0.2927 -0.0032 -0.2110
  490DPPI   C2B 7668   9.591   2.248   9.555 -0.3044  0.2827  0.0738
  490DPPI   C3B 7669   9.792   2.415   9.222  0.2571  0.0235 -0.1500
  490DPPI   C4B 7670   9.753   2.935   9.227  0.1402 -0.2840 -0.0935
  491DPPI    C1 7671  12.373   6.182  10.524  0.0909  0.0416  0.0890
  491DPPI    C2 7672  12.731   6.126  10.693  0.1123  0.0489  0.0462
  491DPPI    C3 7673  12.570   6.492  10.682  0.0250  0.0165  0.2217
  491DPPI   PO4 7674  12.287   5.976  10.279 -0.2300 -0.0343  0.0581
  491DPPI   GL1 7675  12.052   5.754   9.883  0.1717  0.2435  0.3084
  491DPPI   GL2 7676  12.293   5.786   9.730 -0.3827 -0.1896  0.0113
  491DPPI   C1A 7677  11.720   5.749   9.538  0.0985  0.0271 -0.1546
  491DPPI   C2A 7678  11.569   5.678   9.128  0.3335 -0.1046  0.0703
  491DPPI   C3A 7679  11.502   5.338   8.822  0.0013 -0.0440  0.0218
  491DPPI   C4A 7680  11.304   5.257   8.452 -0.1692 -0.2362 -0.0186
  491DPPI   C1B 7681  12.233   5.444   9.348 -0.1859 -0.0206 -0.2181
  491DPPI   C2B 7682  12.339   5.399   8.972  0.3026 -0.1381 -0.0552
  491DPPI   C3B 7683  12.335   5.414   8.584 -0.2682  0.1311  0.1108
  491DPPI   C4B 7684  12.496   5.412   8.136  0.3329 -0.1523  0.1199
  492DPPI    C1 7685  13.016   6.979  10.409  0.0310 -0.2145  0.0579
  492DPPI    C2 7686  12.882   7.077  10.773 -0.1332 -0.2516  0.0084
  492DPPI    C3 7687  12.932   7.360  10.495 -0.0339 -0.2271  0.0508
  492DPPI   PO4 7688  12.909   6.736  10.353  0.1617 -0.0237  0.0286
  492DPPI   GL1 7689  12.733   6.704   9.904 -0.0953 -0.1027  0.3149
  492DPPI   GL2 7690  12.841   7.062   9.980 -0.3742  0.0038 -0.0593
  492DPPI   C1A 7691  12.797   6.558   9.515  0.1717 -0.0683 -0.1333
  492DPPI   C2A 7692  12.955   6.792   9.173  0.2033 -0.2539 -0.1627
  492DPPI   C3A 7693  12.912   7.077   8.804  0.1583 -0.1257 -0.0880
  492DPPI   C4A 7694  12.973   7.351   8.508 -0.0583 -0.0264 -0.1387
  492DPPI   C1B 7695  12.747   7.224   9.608  0.0363 -0.3384 -0.4462
  492DPPI   C2B 7696  12.782   7.281   9.236  0.5003 -0.1667 -0.2362
  492DPPI   C3B 7697  12.657   7.641   9.082  0.0636  0.4599  0.1780
  492DPPI   C4B 7698  12.479   7.469   8.664  0.0867 -0.0444 -0.2134
  493DPPI    C1 7699  10.766   4.354  10.284 -0.0142 -0.3204  0.3714
  493DPPI    C2 7700  10.388   4.431  10.179  0.0861 -0.1156  0.1510
  493DPPI    C3 7701  10.466   4.259  10.531 -0.2018 -0.0067  0.2714
  493DPPI   PO4 7702  10.860   4.341  10.077 -0.0264  0.0056  0.2799
  493DPPI   GL1 7703  10.972   4.736   9.842 -0.0183  0.1871  0.1921
  493DPPI   GL2 7704  10.811   4.856   9.963 -0.1408 -0.1498 -0.0906
  493DPPI   C1A 7705  10.769   4.639   9.497  0.2827  0.2710  0.0705
  493DPPI   C2A 7706  10.648   4.532   9.010 -0.2600  0.0717 -0.2177
  493DPPI   C3A 7707  10.624   4.476   8.622 -0.0678 -0.1172  0.5426
  493DPPI   C4A 7708  10.785   4.349   8.187 -0.0569  0.2650  0.2022
  493DPPI   C1B 7709  10.771   5.213   9.547 -0.1922 -0.0649  0.2978
  493DPPI   C2B 7710  10.668   5.101   9.167 -0.1241 -0.0072  0.1147
  493DPPI   C3B 7711  10.553   4.952   8.685  0.0166 -0.0955 -0.1437
  493DPPI   C4B 7712  10.319   5.012   8.354  0.0940 -0.0325 -0.1696
  494DPPI    C1 7713   9.989  17.176  10.486 -0.1751 -0.2961  0.0388
  494DPPI    C2 7714   9.740  17.304  10.772  0.0295  0.0457  0.0696
  494DPPI    C3 7715   9.934  17.569  10.542 -0.1694 -0.2232 -0.4231
  494DPPI   PO4 7716   9.852  16.918  10.399  0.2404  0.1198 -0.1323
  494DPPI   GL1 7717  10.049  16.622  10.142  0.0212  0.1187 -0.0807
  494DPPI   GL2 7718  10.380  16.944  10.223 -0.0566 -0.0742 -0.0115
  494DPPI   C1A 7719   9.885  16.630   9.770  0.0614  0.0067  0.0400
  494DPPI   C2A 7720  10.001  16.775   9.380  0.0288  0.0635 -0.1275
  494DPPI   C3A 7721   9.758  16.762   9.002  0.0951  0.1308  0.1297
  494DPPI   C4A 7722   9.656  16.876   8.615  0.0157 -0.1601  0.1289
  494DPPI   C1B 7723  10.433  17.052   9.783  0.2547  0.4466 -0.2140
  494DPPI   C2B 7724  10.539  16.937   9.356 -0.0864 -0.4182  0.0107
  494DPPI   C3B 7725  10.400  17.268   8.965 -0.0915 -0.0287 -0.0984
  494DPPI   C4B 7726  10.657  17.639   8.817  0.0041 -0.2170 -0.0102
  495DPPI    C1 7727  17.357  11.833  10.467 -0.2224  0.0442 -0.2975
  495DPPI    C2 7728  17.135  12.141  10.339 -0.0215  0.3800  0.1346
  495DPPI    C3 7729  17.111  12.022  10.720  0.2301  0.1444  0.0802
  495DPPI   PO4 7730  17.368  11.657  10.225 -0.0102 -0.2980 -0.2530
  495DPPI   GL1 7731  17.092  11.619   9.878 -0.4530  0.1597  0.0388
  495DPPI   GL2 7732  16.882  11.698  10.007 -0.0756 -0.1466 -0.1637
  495DPPI   C1A 7733  17.025  11.780   9.516  0.0611 -0.0694  0.0879
  495DPPI   C2A 7734  16.788  11.981   9.320  0.1027 -0.0670 -0.0058
  495DPPI   C3A 7735  16.557  12.063   8.894  0.0059 -0.0890 -0.1800
  495DPPI   C4A 7736  16.258  12.202   8.571  0.1754 -0.1456  0.2138
  495DPPI   C1B 7737  16.884  12.182   9.862  0.2586  0.0674 -0.0873
  495DPPI   C2B 7738  17.166  12.452   9.666  0.1124 -0.3882  0.2254
  495DPPI   C3B 7739  17.073  12.570   9.296 -0.3056 -0.0800  0.2625
  495DPPI   C4B 7740  16.878  12.420   8.976 -0.0975  0.1629  0.1454
  496DPPI    C1 7741   2.124  15.192  10.005 -0.1202 -0.2455 -0.0240
  496DPPI    C2 7742   1.950  15.176  10.365 -0.1568 -0.2107 -0.0401
  496DPPI    C3 7743   2.345  15.127  10.332 -0.1395 -0.1133  0.0163
  496DPPI   PO4 7744   1.907  15.074   9.873  0.0075 -0.1246  0.1821
  496DPPI   GL1 7745   1.719  14.815   9.543  0.1143 -0.1393  0.0201
  496DPPI   GL2 7746   1.856  14.469   9.482 -0.0963 -0.1254  0.2964
  496DPPI   C1A 7747   1.481  14.830   9.154 -0.0957 -0.3164  0.1135
  496DPPI   C2A 7748   1.628  14.643   8.718  0.2576 -0.1158  0.0681
  496DPPI   C3A 7749   1.633  14.238   8.457  0.0511 -0.1817  0.0441
  496DPPI   C4A 7750   1.856  13.937   8.307 -0.2951 -0.1738  0.1109
  496DPPI   C1B 7751   2.037  14.303   9.197  0.0232  0.2757  0.3258
  496DPPI   C2B 7752   2.147  14.208   8.831 -0.1491  0.0924  0.0807
  496DPPI   C3B 7753   2.307  14.112   8.472 -0.0527  0.0229  0.1671
  496DPPI   C4B 7754   2.672  14.164   8.113 -0.2038  0.0063  0.0215
  497DPPI    C1 7755   1.277  17.007  10.135 -0.1211 -0.2863 -0.0447
  497DPPI    C2 7756   1.536  17.205  10.367  0.0266 -0.2489 -0.2388
  497DPPI    C3 7757   1.291  16.933  10.527  0.2262 -0.3268 -0.0611
  497DPPI   PO4 7758   1.451  16.935   9.952  0.2105  0.3091 -0.2876
  497DPPI   GL1 7759   1.555  17.156   9.596  0.0259 -0.0165 -0.1312
  497DPPI   GL2 7760   1.246  17.190   9.483  0.0291  0.3612 -0.1042
  497DPPI   C1A 7761   1.728  17.046   9.317 -0.0140  0.2933 -0.0668
  497DPPI   C2A 7762   1.745  16.775   8.959  0.2186 -0.0873 -0.0083
  497DPPI   C3A 7763   1.573  16.490   8.567 -0.1123  0.0150 -0.1708
  497DPPI   C4A 7764   1.428  16.554   8.217  0.3739 -0.1586 -0.1347
  497DPPI   C1B 7765   1.176  17.128   9.009 -0.0031 -0.4133  0.3605
  497DPPI   C2B 7766   1.294  17.242   8.496  0.1731 -0.0968 -0.3482
  497DPPI   C3B 7767   1.518  17.324   8.163 -0.0286  0.1561  0.0262
  497DPPI   C4B 7768   1.494  17.381   7.724 -0.1983 -0.2099 -0.1802
  498DPPI    C1 7769   8.930   7.400  10.464  0.4580  0.0983 -0.2863
  498DPPI    C2 7770   9.170   7.167  10.682 -0.0098 -0.1495 -0.0207
  498DPPI    C3 7771   9.146   7.558  10.761  0.3603 -0.1064 -0.1039
  498DPPI   PO4 7772   8.992   7.374  10.232 -0.1943  0.1932 -0.0415
  498DPPI   GL1 7773   8.998   7.171   9.831  0.1624 -0.1647 -0.0614
  498DPPI   GL2 7774   9.044   6.948   9.736 -0.1003  0.1123 -0.1296
  498DPPI   C1A 7775   9.174   7.346   9.415  0.0048 -0.1791 -0.1818
  498DPPI   C2A 7776   9.137   7.317   8.996 -0.0119  0.0849 -0.0207
  498DPPI   C3A 7777   9.274   7.503   8.625  0.0719  0.1575 -0.1723
  498DPPI   C4A 7778   9.081   7.657   8.188  0.2025  0.0462  0.0687
  498DPPI   C1B 7779   9.112   6.801   9.367 -0.1696 -0.1539 -0.2099
  498DPPI   C2B 7780   9.202   6.807   8.903  0.0522  0.2306  0.2425
  498DPPI   C3B 7781   9.197   7.023   8.525  0.1300 -0.1204 -0.1072
  498DPPI   C4B 7782   9.065   7.118   8.121  0.0436  0.0388  0.3714
  499DPPI    C1 7783   2.220  16.293  10.198 -0.2688 -0.0372  0.0709
  499DPPI    C2 7784   2.142  16.574  10.472 -0.1032 -0.1318  0.2169
  499DPPI    C3 7785   2.503  16.401  10.459 -0.1373 -0.1892 -0.0067
  499DPPI   PO4 7786   2.137  16.398  10.014 -0.0790  0.0280 -0.2927
  499DPPI   GL1 7787   2.219  16.283   9.622 -0.2291 -0.0510  0.0020
  499DPPI   GL2 7788   2.448  15.971   9.700  0.0972  0.0677 -0.0808
  499DPPI   C1A 7789   2.003  15.986   9.408 -0.1396 -0.0520  0.1625
  499DPPI   C2A 7790   1.734  15.730   9.062  0.0704  0.0050  0.1071
  499DPPI   C3A 7791   1.539  15.756   8.586  0.2963 -0.0058  0.0130
  499DPPI   C4A 7792   1.540  15.884   8.196 -0.0415  0.0206  0.0126
  499DPPI   C1B 7793   2.505  16.151   9.177  0.1647  0.3324 -0.3302
  499DPPI   C2B 7794   2.418  16.129   8.720 -0.1352 -0.0709 -0.1945
  499DPPI   C3B 7795   2.497  15.981   8.312 -0.1002 -0.1491 -0.2028
  499DPPI   C4B 7796   2.484  16.093   7.922 -0.1691 -0.1661 -0.1175
  500DPPI    C1 7797   6.363   3.577  10.646 -0.1036 -0.1696 -0.3274
  500DPPI    C2 7798   6.405   3.180  10.666  0.0925 -0.1355  0.0236
  500DPPI    C3 7799   6.349   3.392  11.000 -0.0305  0.1323 -0.1635
  500DPPI   PO4 7800   6.194   3.619  10.424 -0.0967 -0.1369 -0.0235
  500DPPI   GL1 7801   6.150   3.764   9.959  0.1123  0.3728 -0.0435
  500DPPI   GL2 7802   5.854   3.579   9.854  0.0768 -0.0436 -0.0820
  500DPPI   C1A 7803   6.217   3.863   9.579  0.0355 -0.3635 -0.2841
  500DPPI   C2A 7804   6.147   3.871   9.088  0.3547 -0.0735 -0.2188
  500DPPI   C3A 7805   6.148   3.875   8.695  0.1053  0.1363 -0.0977
  500DPPI   C4A 7806   6.055   3.592   8.494  0.1242  0.0503  0.0096
  500DPPI   C1B 7807   5.871   3.528   9.465  0.1658 -0.1112 -0.0015
  500DPPI   C2B 7808   5.672   3.591   8.989  0.1387 -0.2015 -0.2134
  500DPPI   C3B 7809   5.483   3.487   8.618  0.3261  0.0664  0.0928
  500DPPI   C4B 7810   5.403   3.190   8.283 -0.3750  0.1711 -0.0057
  501DPPI    C1 7811   6.725   5.486  10.241 -0.0768  0.1149  0.0896
  501DPPI    C2 7812   6.529   5.156  10.352 -0.0803  0.0700 -0.0482
  501DPPI    C3 7813   6.503   5.488  10.574  0.0614 -0.0715  0.1850
  501DPPI   PO4 7814   6.884   5.404  10.111 -0.0258 -0.2066 -0.2153
  501DPPI   GL1 7815   7.186   5.461   9.724  0.4420 -0.0062 -0.0857
  501DPPI   GL2 7816   6.902   5.428   9.545 -0.1076 -0.1994  0.2226
  501DPPI   C1A 7817   7.308   5.635   9.383 -0.2596 -0.1349 -0.0325
  501DPPI   C2A 7818   7.217   5.524   8.960  0.2920 -0.1267 -0.0617
  501DPPI   C3A 7819   7.179   5.481   8.538  0.0163  0.3297 -0.2397
  501DPPI   C4A 7820   7.402   5.664   8.193 -0.0300 -0.0112  0.1385
  501DPPI   C1B 7821   6.754   5.691   9.312  0.2477 -0.2724 -0.3710
  501DPPI   C2B 7822   6.734   5.553   8.876  0.0802 -0.1323  0.1178
  501DPPI   C3B 7823   6.682   5.710   8.475 -0.4874 -0.0517 -0.0334
  501DPPI   C4B 7824   6.608   5.608   8.005 -0.2077  0.1858  0.2132
  502DPPI    C1 7825   8.727   8.015  10.199  0.0766 -0.2081  0.0729
  502DPPI    C2 7826   8.681   8.229  10.534 -0.1206 -0.0710 -0.0396
  502DPPI    C3 7827   8.740   7.834  10.556  0.3514  0.0039  0.1743
  502DPPI   PO4 7828   8.496   8.099   9.961 -0.2451  0.2498 -0.2444
  502DPPI   GL1 7829   8.590   8.155   9.567 -0.1729 -0.1224  0.0357
  502DPPI   GL2 7830   8.306   8.331   9.490  0.2339 -0.3212 -0.4493
  502DPPI   C1A 7831   8.645   8.298   9.101 -0.1777 -0.1581  0.1335
  502DPPI   C2A 7832   8.691   8.427   8.701  0.0009  0.0613 -0.2510
  502DPPI   C3A 7833   8.581   8.868   8.561 -0.0616  0.0884 -0.3122
  502DPPI   C4A 7834   8.628   9.029   8.125  0.3617 -0.0148 -0.1177
  502DPPI   C1B 7835   8.319   8.687   9.274 -0.1518 -0.0156  0.1418
  502DPPI   C2B 7836   8.813   8.803   9.157  0.0280  0.1250  0.4003
  502DPPI   C3B 7837   9.089   8.843   8.699  0.0809  0.3136 -0.0356
  502DPPI   C4B 7838   9.013   8.711   8.371 -0.0179 -0.0460 -0.0296
  503DPPI    C1 7839   9.365   4.218  10.510  0.2870  0.0990  0.2499
  503DPPI    C2 7840   9.467   4.414  10.844 -0.1571 -0.0912  0.5064
  503DPPI    C3 7841   9.097   4.448  10.697  0.0489  0.0348 -0.0067
  503DPPI   PO4 7842   9.548   4.281  10.281 -0.4949  0.2229  0.2193
  503DPPI   GL1 7843   9.590   4.138   9.926 -0.2472  0.3198  0.0423
  503DPPI   GL2 7844   9.762   4.366   9.778 -0.1291  0.0226  0.1473
  503DPPI   C1A 7845   9.270   4.182   9.660 -0.1126  0.2044 -0.2403
  503DPPI   C2A 7846   9.286   4.351   9.347 -0.0357  0.1138 -0.1890
  503DPPI   C3A 7847   9.175   4.450   9.051 -0.0225 -0.0551 -0.2044
  503DPPI   C4A 7848   9.158   4.334   8.670 -0.1076 -0.1837  0.3160
  503DPPI   C1B 7849   9.669   4.680   9.332 -0.0065 -0.1454 -0.0250
  503DPPI   C2B 7850   9.639   4.680   8.867 -0.0299 -0.1447  0.1836
  503DPPI   C3B 7851   9.633   4.585   8.492  0.0166  0.1632  0.2672
  503DPPI   C4B 7852   9.366   4.380   8.175 -0.0874 -0.1756 -0.1817
  504DPPI    C1 7853  11.073  10.868  10.895  0.0293 -0.0370 -0.0479
  504DPPI    C2 7854  10.698  10.742  10.959 -0.0070  0.0534 -0.0810
  504DPPI    C3 7855  10.938  10.824  11.269 -0.0045 -0.0337 -0.0596
  504DPPI   PO4 7856  11.151  10.716  10.705 -0.0339  0.1098  0.1792
  504DPPI   GL1 7857  11.162  10.756  10.314  0.0268 -0.1756 -0.1091
  504DPPI   GL2 7858  11.357  10.983  10.199  0.0508  0.0319 -0.2473
  504DPPI   C1A 7859  11.352  10.501  10.065 -0.0101  0.0047  0.1211
  504DPPI   C2A 7860  11.404  10.417   9.670 -0.2019 -0.1824 -0.3133
  504DPPI   C3A 7861  11.355  10.471   9.228 -0.4112 -0.1662 -0.0090
  504DPPI   C4A 7862  11.212  10.606   8.941  0.3432 -0.2784  0.2870
  504DPPI   C1B 7863  11.236  10.960   9.783 -0.1380  0.3255 -0.0627
  504DPPI   C2B 7864  11.190  11.018   9.445 -0.1006  0.0831 -0.1323
  504DPPI   C3B 7865  11.123  11.068   9.084 -0.2760  0.0077  0.0287
  504DPPI   C4B 7866  10.997  10.956   8.601 -0.1571 -0.2646  0.1165
  505DPPI    C1 7867   5.757   2.026  10.678  0.0681  0.2404  0.0498
  505DPPI    C2 7868   5.781   1.795  11.003 -0.0163 -0.2292 -0.2671
  505DPPI    C3 7869   5.541   2.115  11.002  0.0722 -0.1547  0.1655
  505DPPI   PO4 7870   5.890   1.904  10.500  0.1921  0.1127 -0.0586
  505DPPI   GL1 7871   5.851   1.777  10.057  0.1056 -0.0938  0.0988
  505DPPI   GL2 7872   6.119   1.940   9.959 -0.0835 -0.3269 -0.0197
  505DPPI   C1A 7873   5.574   1.809   9.669 -0.0312  0.1628 -0.1853
  505DPPI   C2A 7874   5.412   2.152   9.414 -0.2769 -0.1491  0.3157
  505DPPI   C3A 7875   5.361   2.234   8.919  0.1533  0.2724 -0.0781
  505DPPI   C4A 7876   5.512   2.255   8.590  0.2130  0.0075  0.2201
  505DPPI   C1B 7877   6.104   1.954   9.410 -0.1004  0.0002  0.0661
  505DPPI   C2B 7878   5.808   1.995   9.077  0.0934 -0.2064 -0.1418
  505DPPI   C3B 7879   5.607   1.758   8.737  0.2113 -0.1728 -0.3642
  505DPPI   C4B 7880   5.619   1.457   8.314  0.0926 -0.0000  0.0634
  506DPPI    C1 7881  15.465   3.543  10.629 -0.0245  0.0788 -0.0587
  506DPPI    C2 7882  15.564   3.220  10.842  0.1565  0.1533 -0.0281
  506DPPI    C3 7883  15.746   3.569  10.912  0.1952  0.1858 -0.2827
  506DPPI   PO4 7884  15.567   3.519  10.301  0.0813  0.4143 -0.1467
  506DPPI   GL1 7885  15.298   3.277   9.996  0.3199  0.2747  0.0240
  506DPPI   GL2 7886  15.601   3.129   9.903  0.1697 -0.2740  0.0016
  506DPPI   C1A 7887  14.997   3.014   9.754  0.1613 -0.1709  0.0550
  506DPPI   C2A 7888  15.064   2.956   9.272  0.0890 -0.2694  0.0483
  506DPPI   C3A 7889  15.010   3.065   8.884 -0.0120  0.1209  0.4379
  506DPPI   C4A 7890  14.891   2.836   8.545  0.0754 -0.0767 -0.1828
  506DPPI   C1B 7891  15.434   3.259   9.485 -0.1088  0.1453 -0.0748
  506DPPI   C2B 7892  15.361   3.376   9.067 -0.3007  0.2116 -0.1037
  506DPPI   C3B 7893  15.311   3.503   8.708  0.1216 -0.0913 -0.0488
  506DPPI   C4B 7894  15.452   3.530   8.380 -0.0246 -0.1455  0.1360
  507DPPI    C1 7895   1.070  12.235  10.484 -0.0603  0.1113 -0.0190
  507DPPI    C2 7896   0.716  12.394  10.581  0.0619  0.3199  0.0930
  507DPPI    C3 7897   1.034  12.458  10.815  0.1567  0.0673  0.0357
  507DPPI   PO4 7898   0.968  12.299  10.114  0.2087  0.3284  0.0144
  507DPPI   GL1 7899   1.329  12.154   9.666 -0.0007 -0.0864 -0.2442
  507DPPI   GL2 7900   1.252  12.461   9.675  0.3276 -0.1434  0.0867
  507DPPI   C1A 7901   1.300  12.173   9.185 -0.0423  0.0944  0.2013
  507DPPI   C2A 7902   1.284  12.107   8.701  0.1250 -0.1185  0.0344
  507DPPI   C3A 7903   0.942  12.136   8.424  0.1982  0.1885 -0.2591
  507DPPI   C4A 7904   0.733  12.361   8.164 -0.1798 -0.0247 -0.0078
  507DPPI   C1B 7905   1.551  12.582   9.341  0.0622  0.2249 -0.0990
  507DPPI   C2B 7906   1.684  12.475   8.955  0.2840 -0.1642 -0.2703
  507DPPI   C3B 7907   1.610  12.538   8.622  0.0935 -0.0889  0.0502
  507DPPI   C4B 7908   1.682  12.638   8.184  0.1199 -0.0662 -0.1675
  508DPPI    C1 7909  10.001  15.435  11.148  0.0415 -0.1805 -0.1794
  508DPPI    C2 7910  10.265  15.375  11.443  0.1069  0.1532 -0.1665
  508DPPI    C3 7911   9.963  15.118  11.390 -0.0071  0.1810  0.3025
  508DPPI   PO4 7912  10.134  15.519  10.952 -0.0089 -0.0296  0.0797
  508DPPI   GL1 7913   9.920  15.539  10.573  0.0423  0.3431  0.5253
  508DPPI   GL2 7914  10.177  15.493  10.340  0.2968  0.0236 -0.1545
  508DPPI   C1A 7915   9.668  15.520  10.207  0.1888 -0.1764 -0.3288
  508DPPI   C2A 7916   9.828  15.566   9.898  0.2335  0.0401 -0.2234
  508DPPI   C3A 7917   9.980  15.364   9.626 -0.0494 -0.1297 -0.1352
  508DPPI   C4A 7918  10.161  15.282   9.193 -0.0214  0.4659  0.2770
  508DPPI   C1B 7919  10.418  15.366  10.013  0.2569  0.2004 -0.0202
  508DPPI   C2B 7920  10.487  15.452   9.630 -0.3514  0.1131 -0.0503
  508DPPI   C3B 7921  10.611  15.536   9.344  0.1227 -0.2800 -0.1793
  508DPPI   C4B 7922  10.846  15.511   8.975  0.0840  0.0795 -0.0201
  509DPPI    C1 7923  17.571   3.587  10.531  0.1108 -0.1146 -0.0307
  509DPPI    C2 7924  17.442   3.272  10.741 -0.0501  0.0661  0.1444
  509DPPI    C3 7925  17.301   3.638  10.821  0.1408  0.1851 -0.0525
  509DPPI   PO4 7926  17.646   3.450  10.327  0.1724  0.2268  0.3318
  509DPPI   GL1 7927  17.428   3.412   9.796  0.1395  0.1194 -0.2200
  509DPPI   GL2 7928  17.138   3.292   9.890 -0.1542 -0.0754  0.0496
  509DPPI   C1A 7929  17.543   3.214   9.372  0.1088 -0.0346 -0.1287
  509DPPI   C2A 7930  17.536   3.211   8.910  0.2344  0.1772 -0.0440
  509DPPI   C3A 7931  17.713   3.473   8.522  0.1235  0.0777  0.0558
  509DPPI   C4A 7932  17.895   3.348   8.130 -0.0854 -0.0027 -0.0984
  509DPPI   C1B 7933  16.910   3.391   9.577  0.0610 -0.0818  0.0982
  509DPPI   C2B 7934  16.949   3.408   9.080  0.0793 -0.0775 -0.3173
  509DPPI   C3B 7935  17.063   3.369   8.737  0.1638 -0.1381 -0.0974
  509DPPI   C4B 7936  16.979   3.494   8.320  0.0645 -0.0311  0.2274
  510DPPI    C1 7937   3.876   8.800  10.792  0.1299 -0.1048  0.3964
  510DPPI    C2 7938   3.600   8.515  10.844 -0.1225  0.0314 -0.1291
  510DPPI    C3 7939   3.508   8.897  10.916 -0.0940  0.0839 -0.3641
  510DPPI   PO4 7940   3.884   8.894  10.539 -0.2137 -0.1822  0.0980
  510DPPI   GL1 7941   3.746   8.979  10.109  0.1479 -0.1888  0.0040
  510DPPI   GL2 7942   3.751   8.667   9.856 -0.2407 -0.2022  0.2243
  510DPPI   C1A 7943   3.974   9.077   9.639 -0.3481 -0.0366  0.0793
  510DPPI   C2A 7944   4.055   9.055   9.204 -0.0684 -0.1701  0.2060
  510DPPI   C3A 7945   4.239   8.901   8.846  0.0413  0.1639 -0.1884
  510DPPI   C4A 7946   4.456   8.917   8.359 -0.0436  0.1898 -0.2992
  510DPPI   C1B 7947   3.790   8.636   9.412  0.0196  0.0874  0.0102
  510DPPI   C2B 7948   3.796   8.638   8.971 -0.1734 -0.4091  0.0278
  510DPPI   C3B 7949   3.867   8.760   8.558 -0.1940  0.1086  0.1017
  510DPPI   C4B 7950   3.711   8.804   8.133  0.0686 -0.1776 -0.1810
  511DPPI    C1 7951  15.753   0.350  10.803 -0.2218  0.1199  0.2143
  511DPPI    C2 7952  15.970   0.118  11.047 -0.0507  0.2979  0.2343
  511DPPI    C3 7953  15.657   0.322  11.190 -0.1321  0.1702  0.2405
  511DPPI   PO4 7954  15.781   0.175  10.526  0.2367  0.2390 -0.5407
  511DPPI   GL1 7955  15.828   0.318  10.136 -0.0500 -0.0213  0.0588
  511DPPI   GL2 7956  15.864   0.624  10.154  0.1413 -0.0274  0.0157
  511DPPI   C1A 7957  15.805   0.423   9.703 -0.1228 -0.2851 -0.1257
  511DPPI   C2A 7958  15.866   0.523   9.251 -0.2961 -0.2522 -0.2686
  511DPPI   C3A 7959  15.826   0.591   8.853  0.2173 -0.1106  0.1758
  511DPPI   C4A 7960  15.755   0.933   8.564 -0.0993 -0.0323  0.0957
  511DPPI   C1B 7961  16.098   0.803   9.856 -0.2692  0.1405  0.1533
  511DPPI   C2B 7962  16.126   0.948   9.396 -0.4769  0.1388 -0.0251
  511DPPI   C3B 7963  15.984   1.086   9.052 -0.2976 -0.0035  0.0059
  511DPPI   C4B 7964  16.094   1.258   8.745  0.1425 -0.0117  0.2935
  512DPPI    C1 7965  10.291   7.155  10.176  0.0371  0.0593 -0.3045
  512DPPI    C2 7966  10.588   7.031  10.414 -0.1466  0.0681 -0.0669
  512DPPI    C3 7967  10.457   7.409  10.436 -0.1626  0.0699 -0.1849
  512DPPI   PO4 7968  10.323   7.043   9.994  0.3061  0.0769  0.2498
  512DPPI   GL1 7969   9.985   7.135   9.669 -0.1846 -0.2666 -0.2033
  512DPPI   GL2 7970  10.020   7.268   9.310  0.0918 -0.0585 -0.4016
  512DPPI   C1A 7971   9.991   6.801   9.199 -0.2942 -0.3395  0.1425
  512DPPI   C2A 7972  10.243   6.735   8.853 -0.2377  0.0166 -0.1244
  512DPPI   C3A 7973  10.438   6.610   8.460  0.1578  0.3833 -0.1468
  512DPPI   C4A 7974  10.200   6.402   8.039  0.1202  0.4754 -0.0891
  512DPPI   C1B 7975  10.045   7.316   8.897 -0.1910 -0.1543 -0.1075
  512DPPI   C2B 7976  10.048   7.114   8.549  0.3092  0.2131  0.0774
  512DPPI   C3B 7977  10.334   6.973   8.139 -0.1542 -0.1343  0.0592
  512DPPI   C4B 7978  10.566   6.972   7.772  0.0010  0.5689 -0.1829
  513PYPI    C1 7979   2.969   6.318  10.194  0.0445 -0.2386 -0.0761
  513PYPI    C2 7980   3.355   6.300  10.094  0.0175  0.0427 -0.2416
  513PYPI    C3 7981   3.232   6.562  10.370 -0.0573 -0.0426 -0.1932
  513PYPI   PO4 7982   2.854   6.362   9.890  0.0957  0.1358  0.1065
  513PYPI   GL1 7983   2.800   6.245   9.561 -0.0093 -0.1386 -0.0706
  513PYPI   GL2 7984   2.746   5.887   9.504  0.0300 -0.0781  0.1725
  513PYPI   C1A 7985   2.800   6.377   9.084 -0.2075 -0.0438  0.3148
  513PYPI   C2A 7986   2.708   6.454   8.617 -0.3082  0.2929 -0.0499
  513PYPI   D3A 7987   2.861   6.466   8.178  0.0409 -0.1621 -0.1418
  513PYPI   C4A 7988   3.003   6.029   8.062 -0.3642 -0.3979  0.1711
  513PYPI   C1B 7989   2.552   6.008   9.178  0.0529  0.0332 -0.0666
  513PYPI   C2B 7990   2.617   5.982   8.782  0.4567 -0.1091  0.2589
  513PYPI   C3B 7991   2.564   5.964   8.257  0.1436  0.2471 -0.3162
  513PYPI   C4B 7992   2.416   5.637   8.026 -0.0798  0.0203  0.1037
  514PYPI    C1 7993  16.560  15.473  10.626  0.0912 -0.0364  0.1117
  514PYPI    C2 7994  16.724  15.837  10.606 -0.1150  0.0520 -0.0091
  514PYPI    C3 7995  16.594  15.696  10.957 -0.1009  0.1247  0.0255
  514PYPI   PO4 7996  16.489  15.447  10.342 -0.1147 -0.2759 -0.0375
  514PYPI   GL1 7997  16.237  15.291  10.011  0.1933  0.0534  0.2081
  514PYPI   GL2 7998  15.930  15.363  10.101 -0.0180 -0.0884  0.1401
  514PYPI   C1A 7999  16.226  15.630   9.798 -0.0965  0.2643 -0.1357
  514PYPI   C2A 8000  16.501  16.006   9.643  0.0406 -0.0371  0.1361
  514PYPI   D3A 8001  16.761  16.150   9.204  0.1277 -0.0797  0.2995
  514PYPI   C4A 8002  16.728  16.329   8.745 -0.1192 -0.3485  0.2896
  514PYPI   C1B 8003  15.791  15.484   9.756 -0.4308  0.0619 -0.0583
  514PYPI   C2B 8004  15.722  15.415   9.336 -0.3041  0.0191 -0.1423
  514PYPI   C3B 8005  15.817  15.555   8.954 -0.0275  0.0140  0.1356
  514PYPI   C4B 8006  15.885  15.720   8.530 -0.1950  0.1431  0.0907
  515PYPI    C1 8007   8.426   4.160  10.296  0.2125 -0.0941 -0.1268
  515PYPI    C2 8008   8.255   4.024  10.631  0.0814 -0.1177 -0.2031
  515PYPI    C3 8009   8.549   4.293  10.653 -0.1102  0.0850 -0.0782
  515PYPI   PO4 8010   8.202   4.357  10.120  0.0643 -0.1747  0.0008
  515PYPI   GL1 8011   8.268   4.522   9.716 -0.2192 -0.2844 -0.1642
  515PYPI   GL2 8012   7.953   4.286   9.695  0.1814 -0.1173 -0.1674
  515PYPI   C1A 8013   8.384   4.566   9.255  0.1623 -0.0973 -0.0160
  515PYPI   C2A 8014   8.265   4.673   8.789 -0.0041  0.2959  0.1133
  515PYPI   D3A 8015   8.345   4.695   8.346  0.1599 -0.1327  0.0896
  515PYPI   C4A 8016   8.622   4.386   8.133  0.2482 -0.0132  0.1936
  515PYPI   C1B 8017   7.867   4.316   9.226  0.3056 -0.2121 -0.2115
  515PYPI   C2B 8018   7.868   4.253   8.820 -0.2337 -0.1761 -0.0176
  515PYPI   C3B 8019   8.124   4.254   8.514 -0.0089  0.1031 -0.2271
  515PYPI   C4B 8020   8.293   4.034   8.223  0.0204  0.0499  0.3374
  516PYPI    C1 8021  13.820  12.368  10.664 -0.0479 -0.0419  0.0723
  516PYPI    C2 8022  13.702  12.165  10.988  0.1390 -0.0620  0.1289
  516PYPI    C3 8023  13.850  12.535  11.026 -0.3302  0.1448  0.0129
  516PYPI   PO4 8024  13.712  12.457  10.396  0.2334 -0.2807 -0.1444
  516PYPI   GL1 8025  13.785  12.828  10.218 -0.2260 -0.1624  0.1290
  516PYPI   GL2 8026  14.052  13.051  10.353 -0.0293 -0.0646  0.2036
  516PYPI   C1A 8027  13.774  12.623   9.767  0.3567 -0.0790 -0.0550
  516PYPI   C2A 8028  13.645  12.610   9.350 -0.1346 -0.1016  0.0456
  516PYPI   D3A 8029  13.308  12.577   9.140  0.0717 -0.1671 -0.4175
  516PYPI   C4A 8030  13.201  12.758   8.738 -0.0955 -0.0076  0.1019
  516PYPI   C1B 8031  14.090  12.992   9.886 -0.0919 -0.2382  0.0862
  516PYPI   C2B 8032  13.858  13.040   9.480 -0.1044 -0.0467  0.3816
  516PYPI   C3B 8033  13.744  13.045   8.948  0.0134  0.0263 -0.3483
  516PYPI   C4B 8034  13.527  13.099   8.545 -0.3608 -0.1089  0.0454
  517PYPI    C1 8035   1.770  12.633  10.451 -0.2374 -0.0206  0.0319
  517PYPI    C2 8036   1.555  12.365  10.655 -0.0525 -0.0969  0.1291
  517PYPI    C3 8037   1.428  12.743  10.627 -0.1015 -0.0952  0.3501
  517PYPI   PO4 8038   1.921  12.435  10.309 -0.0657 -0.2375 -0.1673
  517PYPI   GL1 8039   1.944  12.374   9.804  0.2923 -0.1617  0.2821
  517PYPI   GL2 8040   1.775  12.561   9.791  0.4682  0.0393  0.0258
  517PYPI   C1A 8041   1.849  12.182   9.337 -0.3634  0.2994 -0.2191
  517PYPI   C2A 8042   1.918  12.048   8.935  0.1587 -0.0568  0.0890
  517PYPI   D3A 8043   1.811  12.113   8.492  0.2883  0.0618  0.1534
  517PYPI   C4A 8044   2.138  11.915   8.259  0.1763 -0.1359 -0.1552
  517PYPI   C1B 8045   2.024  12.610   9.334  0.0864  0.1118 -0.1155
  517PYPI   C2B 8046   2.209  12.473   8.985 -0.1400  0.0140 -0.1189
  517PYPI   C3B 8047   2.125  12.620   8.598 -0.0788  0.0138  0.0268
  517PYPI   C4B 8048   2.155  12.762   8.127  0.3371  0.6539  0.1843
  518PYPI    C1 8049  13.963   7.139  10.968  0.3402  0.1818  0.1301
  518PYPI    C2 8050  14.071   6.779  11.106 -0.1494 -0.0425 -0.0498
  518PYPI    C3 8051  14.174   7.109  11.307 -0.0199 -0.3031  0.3234
  518PYPI   PO4 8052  13.876   7.088  10.756 -0.5583 -0.1475 -0.0134
  518PYPI   GL1 8053  13.791   7.335  10.202  0.5017 -0.0619 -0.1020
  518PYPI   GL2 8054  13.760   7.103   9.989 -0.1682  0.0916 -0.1100
  518PYPI   C1A 8055  13.869   7.553   9.787  0.0344 -0.0250 -0.2312
  518PYPI   C2A 8056  13.786   7.569   9.499  0.3567 -0.3590  0.1722
  518PYPI   D3A 8057  13.662   7.605   9.116  0.0301 -0.2506  0.2618
  518PYPI   C4A 8058  13.588   7.780   8.798  0.1081 -0.0364  0.0332
  518PYPI   C1B 8059  14.157   7.224   9.592 -0.1726 -0.0463 -0.4604
  518PYPI   C2B 8060  14.169   7.442   9.142  0.2425  0.2998 -0.3919
  518PYPI   C3B 8061  14.309   7.599   8.771  0.2935 -0.1106  0.0496
  518PYPI   C4B 8062  13.953   7.439   8.512 -0.0389 -0.0941 -0.1925
  519PYPI    C1 8063  11.542   1.977  10.595 -0.3324 -0.3244 -0.1336
  519PYPI    C2 8064  11.294   1.775  10.835 -0.0668 -0.3837  0.0969
  519PYPI    C3 8065  11.690   1.744  10.885 -0.0178  0.1843  0.1303
  519PYPI   PO4 8066  11.374   1.847  10.332  0.0960 -0.0841 -0.1656
  519PYPI   GL1 8067  11.401   1.895   9.931 -0.2065 -0.1131  0.0188
  519PYPI   GL2 8068  11.616   2.154   9.964 -0.0615 -0.1016 -0.2030
  519PYPI   C1A 8069  11.361   1.980   9.531  0.1629 -0.0541  0.0230
  519PYPI   C2A 8070  11.197   1.738   9.131 -0.1462 -0.2979  0.1136
  519PYPI   D3A 8071  11.088   1.757   8.696  0.0576  0.4511  0.1425
  519PYPI   C4A 8072  11.094   1.551   8.267  0.0847 -0.1126 -0.0645
  519PYPI   C1B 8073  11.696   2.330   9.522 -0.2031 -0.2979  0.0580
  519PYPI   C2B 8074  11.773   2.446   9.180  0.2855 -0.1010 -0.1199
  519PYPI   C3B 8075  11.761   2.287   8.798 -0.1157 -0.3403 -0.1298
  519PYPI   C4B 8076  11.820   2.127   8.459 -0.4133  0.0146 -0.1955
  520PYPI    C1 8077  15.364   5.814  10.137 -0.1625  0.1947  0.0918
  520PYPI    C2 8078  15.446   5.752  10.524  0.0105 -0.0001  0.0258
  520PYPI    C3 8079  15.580   6.082  10.341  0.1717 -0.0453  0.0610
  520PYPI   PO4 8080  15.435   5.514  10.012 -0.1516 -0.1529 -0.4201
  520PYPI   GL1 8081  15.452   5.461   9.626  0.2426 -0.1429 -0.1403
  520PYPI   GL2 8082  15.805   5.358   9.442  0.2782 -0.2590  0.2685
  520PYPI   C1A 8083  15.381   5.394   9.167  0.1552 -0.2797  0.1858
  520PYPI   C2A 8084  15.443   5.135   8.868 -0.0739 -0.4525 -0.1513
  520PYPI   D3A 8085  15.453   5.173   8.437  0.1610  0.0453  0.2424
  520PYPI   C4A 8086  15.116   5.328   8.131  0.0442 -0.4089  0.1458
  520PYPI   C1B 8087  15.894   5.154   9.067  0.0180 -0.3227  0.0281
  520PYPI   C2B 8088  15.902   5.098   8.616  0.2259 -0.0608 -0.0251
  520PYPI   C3B 8089  15.819   4.963   8.191  0.2547 -0.1103  0.0313
  520PYPI   C4B 8090  15.540   5.202   7.943 -0.0721 -0.3204 -0.0134
  521PYPI    C1 8091  15.800   8.979  10.990  0.0678  0.0377  0.0171
  521PYPI    C2 8092  16.190   9.063  10.963  0.0893 -0.0686 -0.0083
  521PYPI    C3 8093  15.974   9.212  11.264  0.1882 -0.1528  0.1052
  521PYPI   PO4 8094  15.592   8.895  10.730 -0.3632  0.3396  0.0031
  521PYPI   GL1 8095  15.496   8.569  10.377 -0.1134  0.1689  0.3010
  521PYPI   GL2 8096  15.182   8.750  10.450 -0.0585  0.1738 -0.5271
  521PYPI   C1A 8097  15.259   8.291  10.038  0.0855  0.1149  0.0031
  521PYPI   C2A 8098  14.952   8.141   9.717  0.2681 -0.0370 -0.1681
  521PYPI   D3A 8099  14.713   8.002   9.371  0.1908 -0.0180 -0.0066
  521PYPI   C4A 8100  14.506   8.017   9.033  0.3617 -0.1346 -0.1592
  521PYPI   C1B 8101  15.189   8.836   9.988 -0.0592  0.1053  0.3656
  521PYPI   C2B 8102  15.147   8.672   9.471  0.2269 -0.1778 -0.1425
  521PYPI   C3B 8103  15.206   8.705   8.945 -0.1943 -0.0950 -0.0723
  521PYPI   C4B 8104  14.947   8.763   8.631  0.2864  0.2745  0.3591
  522PYPI    C1 8105   0.489  17.679  10.298 -0.0286 -0.0236  0.0097
  522PYPI    C2 8106   0.544  17.516  10.660 -0.0595 -0.3045 -0.1092
  522PYPI    C3 8107   0.182  17.509  10.490 -0.1351  0.1749  0.0168
  522PYPI   PO4 8108   0.648  17.583  10.201 -0.0272 -0.2170  0.0086
  522PYPI   GL1 8109   0.785  17.491   9.855 -0.1221  0.0432  0.2836
  522PYPI   GL2 8110   0.865  17.194   9.924  0.2754 -0.1613 -0.0345
  522PYPI   C1A 8111   1.094  17.697   9.546  0.2062  0.1098  0.1881
  522PYPI   C2A 8112   1.195  17.588   9.114 -0.2262 -0.3221 -0.1224
  522PYPI   D3A 8113   1.607  17.754   8.914 -0.2239 -0.0279  0.2287
  522PYPI   C4A 8114   1.656  17.795   8.413  0.0932  0.1013 -0.0280
  522PYPI   C1B 8115   0.796  17.233   9.428  0.4037 -0.0612 -0.3417
  522PYPI   C2B 8116   0.624  17.326   8.959 -0.2815  0.1688  0.2172
  522PYPI   C3B 8117   0.722  17.353   8.508 -0.0427  0.0944 -0.0209
  522PYPI   C4B 8118   0.943  17.232   8.106  0.1899 -0.3274 -0.1279
  523PYPI    C1 8119   9.793   1.810  10.784  0.0220 -0.0884  0.0139
  523PYPI    C2 8120   9.546   2.002  10.534  0.0685  0.0409  0.0659
  523PYPI    C3 8121   9.631   2.160  10.891  0.1917 -0.0249  0.0664
  523PYPI   PO4 8122   9.979   1.685  10.570  0.0512  0.2197 -0.1182
  523PYPI   GL1 8123  10.101   1.607  10.158 -0.1297 -0.1104 -0.0527
  523PYPI   GL2 8124  10.160   1.266  10.245 -0.0700 -0.2767 -0.4451
  523PYPI   C1A 8125  10.107   1.500   9.692  0.2139 -0.0693 -0.0895
  523PYPI   C2A 8126   9.942   1.447   9.309  0.2335  0.0247  0.0746
  523PYPI   D3A 8127   9.806   1.596   8.865 -0.0146 -0.2657 -0.1827
  523PYPI   C4A 8128   9.614   1.538   8.493  0.1432  0.0644  0.0814
  523PYPI   C1B 8129  10.255   0.989   9.903 -0.0094  0.1192 -0.2311
  523PYPI   C2B 8130  10.105   0.917   9.536  0.0681 -0.2878  0.1050
  523PYPI   C3B 8131  10.120   0.894   9.162 -0.3452 -0.1562 -0.0189
  523PYPI   C4B 8132   9.826   0.747   8.967  0.3249  0.2504  0.0835
  524PYPI    C1 8133  13.960   1.271  11.074 -0.0317 -0.1879  0.0083
  524PYPI    C2 8134  14.292   1.417  11.242 -0.0459 -0.0931 -0.0452
  524PYPI    C3 8135  13.937   1.477  11.416 -0.0692  0.0686 -0.1458
  524PYPI   PO4 8136  13.939   1.365  10.783 -0.0665 -0.2383  0.0414
  524PYPI   GL1 8137  13.997   1.260  10.356  0.0517 -0.0001 -0.2711
  524PYPI   GL2 8138  13.731   1.162  10.186  0.2480 -0.0572  0.0455
  524PYPI   C1A 8139  14.188   1.146  10.008 -0.1531  0.2173  0.1058
  524PYPI   C2A 8140  14.224   1.102   9.591 -0.0288 -0.6143 -0.0809
  524PYPI   D3A 8141  14.291   1.038   9.077 -0.0101  0.0421 -0.1133
  524PYPI   C4A 8142  14.189   1.139   8.620  0.0458  0.0066 -0.0443
  524PYPI   C1B 8143  13.746   1.002   9.712  0.0099  0.1022  0.2270
  524PYPI   C2B 8144  13.743   0.902   9.303  0.1292  0.1278  0.4509
  524PYPI   C3B 8145  13.804   0.997   8.911 -0.0704 -0.0056 -0.4394
  524PYPI   C4B 8146  13.600   1.059   8.438 -0.0281  0.1473 -0.3046
  525PYPI    C1 8147   8.940  13.196  11.269 -0.1786  0.1719 -0.2238
  525PYPI    C2 8148   9.067  13.539  11.432  0.0282  0.0856 -0.2005
  525PYPI    C3 8149   9.244  13.194  11.530 -0.0386 -0.0025 -0.3859
  525PYPI   PO4 8150   8.870  13.262  11.013 -0.0818 -0.0135  0.1435
  525PYPI   GL1 8151   9.020  13.398  10.540 -0.2255  0.0310 -0.1045
  525PYPI   GL2 8152   8.966  13.168  10.294 -0.2009  0.2607  0.0835
  525PYPI   C1A 8153   8.966  13.625  10.099  0.2368  0.3484  0.0928
  525PYPI   C2A 8154   9.197  13.816   9.769  0.1540 -0.1702 -0.2185
  525PYPI   D3A 8155   9.143  14.201   9.456 -0.0027 -0.1398  0.0891
  525PYPI   C4A 8156   9.341  14.161   9.051  0.3407  0.1975  0.1693
  525PYPI   C1B 8157   8.718  13.280   9.846  0.0303  0.3123  0.1350
  525PYPI   C2B 8158   8.975  13.483   9.501  0.0048 -0.0939 -0.2167
  525PYPI   C3B 8159   9.353  13.707   9.360 -0.1124  0.2803 -0.2164
  525PYPI   C4B 8160   9.618  14.019   9.587  0.2522 -0.1221  0.2863
  526PYPI    C1 8161   5.734   7.283  10.602  0.0105  0.0410  0.1146
  526PYPI    C2 8162   5.837   7.547  10.884 -0.0372  0.0453  0.1280
  526PYPI    C3 8163   5.717   7.180  10.988  0.0732  0.0030  0.1073
  526PYPI   PO4 8164   5.828   7.226  10.405 -0.2478 -0.1236 -0.0129
  526PYPI   GL1 8165   5.504   7.166  10.107 -0.1620  0.0057  0.1065
  526PYPI   GL2 8166   5.192   7.161  10.128 -0.3542 -0.0831  0.5120
  526PYPI   C1A 8167   5.467   7.457   9.770  0.3218  0.0911  0.2182
  526PYPI   C2A 8168   5.452   7.424   9.350 -0.0199 -0.1759  0.0165
  526PYPI   D3A 8169   5.354   7.525   8.899  0.2889  0.0522 -0.2961
  526PYPI   C4A 8170   5.519   7.902   8.600 -0.1512  0.1373 -0.2216
  526PYPI   C1B 8171   5.008   7.186   9.667 -0.1898 -0.2573  0.3132
  526PYPI   C2B 8172   5.071   7.131   9.175 -0.1270 -0.0268  0.2063
  526PYPI   C3B 8173   5.084   7.156   8.697 -0.1583 -0.1972 -0.0913
  526PYPI   C4B 8174   5.207   7.493   8.343  0.1272 -0.0259  0.1569
  527PYPI    C1 8175   2.211   3.469  10.268  0.1074 -0.0066 -0.0034
  527PYPI    C2 8176   2.273   3.149  10.500  0.0332 -0.1920 -0.2341
  527PYPI    C3 8177   2.401   3.510  10.617  0.1307 -0.3072  0.0222
  527PYPI   PO4 8178   2.250   3.319  10.005 -0.1540  0.1463 -0.0798
  527PYPI   GL1 8179   2.556   3.467   9.779 -0.0531  0.2025 -0.0429
  527PYPI   GL2 8180   2.866   3.512   9.809 -0.2296 -0.2693 -0.1910
  527PYPI   C1A 8181   2.461   3.618   9.390  0.0246  0.0990 -0.0622
  527PYPI   C2A 8182   2.476   3.523   8.831 -0.4113 -0.4055 -0.2520
  527PYPI   D3A 8183   2.736   3.496   8.449 -0.1655  0.1229 -0.1582
  527PYPI   C4A 8184   2.746   3.402   7.988 -0.3302 -0.0796 -0.1143
  527PYPI   C1B 8185   2.942   3.415   9.426 -0.2663  0.0073 -0.1534
  527PYPI   C2B 8186   3.141   3.559   9.070  0.0075  0.0520  0.4746
  527PYPI   C3B 8187   3.260   3.439   8.667  0.2075  0.0368  0.2426
  527PYPI   C4B 8188   3.299   3.071   8.460  0.0590  0.0508  0.0885
  528PYPI    C1 8189   9.176  18.036  11.040 -0.2240  0.1691  0.0170
  528PYPI    C2 8190   9.022  18.018  11.409 -0.2544  0.2222  0.0071
  528PYPI    C3 8191   9.393  18.158  11.353 -0.2039  0.0993  0.0307
  528PYPI   PO4 8192   9.044  18.201  10.881  0.0129  0.1312  0.1312
  528PYPI   GL1 8193   9.186  18.177  10.443  0.2932  0.0846  0.0390
  528PYPI   GL2 8194   8.997  18.191  10.116 -0.0830 -0.5087  0.3375
  528PYPI   C1A 8195   9.434  18.492  10.154  0.1260  0.1228 -0.0635
  528PYPI   C2A 8196   9.593  18.705   9.802 -0.0776 -0.1457 -0.0735
  528PYPI   D3A 8197   9.671  18.389   9.476 -0.1179 -0.0156  0.1987
  528PYPI   C4A 8198   9.684  18.222   9.032 -0.1932  0.1310  0.0232
  528PYPI   C1B 8199   8.895  18.285   9.768 -0.0313 -0.1353 -0.0549
  528PYPI   C2B 8200   8.676  18.203   9.407 -0.3144 -0.0639 -0.3393
  528PYPI   C3B 8201   8.608  18.072   9.003 -0.3567 -0.1165 -0.1836
  528PYPI   C4B 8202   8.430  18.160   8.601 -0.1227  0.1897  0.2043
  529PYPI    C1 8203  13.730  14.638  10.828  0.1323  0.0808 -0.1133
  529PYPI    C2 8204  14.023  14.390  10.715 -0.0210 -0.1250 -0.0654
  529PYPI    C3 8205  13.792  14.297  11.028 -0.0044  0.1372  0.0269
  529PYPI   PO4 8206  13.680  14.770  10.661  0.3778  0.0812  0.0677
  529PYPI   GL1 8207  13.405  14.781  10.285 -0.0241 -0.4881  0.0857
  529PYPI   GL2 8208  13.435  14.566  10.061 -0.1515 -0.2916  0.1536
  529PYPI   C1A 8209  13.413  14.991   9.849  0.3292 -0.1397  0.3825
  529PYPI   C2A 8210  13.469  14.988   9.379  0.1452  0.0016  0.2480
  529PYPI   D3A 8211  13.263  15.096   8.913 -0.0044  0.2094 -0.0106
  529PYPI   C4A 8212  13.588  15.187   8.709  0.0375  0.2975 -0.2552
  529PYPI   C1B 8213  13.352  14.520   9.565  0.0076 -0.1635  0.0272
  529PYPI   C2B 8214  13.391  14.459   9.099 -0.1374  0.0291 -0.1584
  529PYPI   C3B 8215  13.191  14.517   8.664 -0.0017  0.3006 -0.2675
  529PYPI   C4B 8216  12.706  14.475   8.501 -0.1729 -0.1118  0.0969
  530PYPI    C1 8217  16.197   0.491  10.510 -0.1922  0.0627 -0.0775
  530PYPI    C2 8218  16.351   0.306  10.831  0.0161 -0.0814 -0.2574
  530PYPI    C3 8219  16.457   0.683  10.746 -0.1029 -0.0143 -0.1127
  530PYPI   PO4 8220  16.343   0.361  10.296  0.2419 -0.0509 -0.1701
  530PYPI   GL1 8221  16.340   0.276   9.847 -0.1621  0.1140 -0.0421
  530PYPI   GL2 8222  16.076   0.060   9.847 -0.1716 -0.1010  0.0541
  530PYPI   C1A 8223  16.330   0.489   9.506  0.0033  0.3917 -0.4007
  530PYPI   C2A 8224  16.366   0.503   9.072  0.1152  0.0111 -0.0535
  530PYPI   D3A 8225  16.560   0.650   8.751  0.3211 -0.2311 -0.4461
  530PYPI   C4A 8226  16.243   0.814   8.565  0.0167 -0.0330 -0.1524
  530PYPI   C1B 8227  16.117   0.015   9.422  0.0636 -0.2639 -0.0096
  530PYPI   C2B 8228  16.049   0.072   8.997  0.0551 -0.1162 -0.2070
  530PYPI   C3B 8229  16.208   0.288   8.690  0.1285 -0.2042 -0.1918
  530PYPI   C4B 8230  16.137   0.290   8.311 -0.0047  0.2596  0.1479
  531PYPI    C1 8231   6.395   5.953  10.546 -0.1207 -0.1756 -0.0049
  531PYPI    C2 8232   6.029   5.947  10.708 -0.1142 -0.0391  0.0160
  531PYPI    C3 8233   6.262   6.270  10.751  0.0260 -0.1425  0.0404
  531PYPI   PO4 8234   6.403   5.899  10.206  0.0480 -0.1235  0.1388
  531PYPI   GL1 8235   6.135   5.795   9.938 -0.1496 -0.0929  0.0686
  531PYPI   GL2 8236   5.792   5.758   9.923 -0.0135 -0.0772 -0.1286
  531PYPI   C1A 8237   6.114   5.801   9.401 -0.0775  0.0408 -0.0373
  531PYPI   C2A 8238   6.260   5.663   9.140 -0.1757 -0.3621  0.1763
  531PYPI   D3A 8239   6.292   5.334   8.930  0.0686 -0.1384  0.1145
  531PYPI   C4A 8240   6.199   5.395   8.490 -0.0047  0.0467 -0.4699
  531PYPI   C1B 8241   5.591   5.718   9.486  0.0052 -0.2819 -0.5758
  531PYPI   C2B 8242   5.691   5.701   9.039 -0.2183  0.1333 -0.0450
  531PYPI   C3B 8243   5.750   5.670   8.565 -0.0385 -0.1430  0.2374
  531PYPI   C4B 8244   5.630   5.335   8.164 -0.1887 -0.2924 -0.3199
  532PYPI    C1 8245  10.704  18.091  11.028  0.0780 -0.3804  0.0806
  532PYPI    C2 8246  10.791  18.478  10.975 -0.2074 -0.3649 -0.3178
  532PYPI    C3 8247  11.060  18.233  11.142 -0.0699  0.0265  0.0501
  532PYPI   PO4 8248  10.648  18.005  10.812  0.3076  0.0855  0.1594
  532PYPI   GL1 8249  10.725  18.148  10.367 -0.1071 -0.0689  0.1029
  532PYPI   GL2 8250  11.000  18.269  10.544  0.1933 -0.2601 -0.0054
  532PYPI   C1A 8251  10.871  18.244   9.954 -0.5027  0.1694  0.0859
  532PYPI   C2A 8252  10.912  18.422   9.520  0.1507  0.1462  0.1857
  532PYPI   D3A 8253  11.273  18.532   9.221 -0.0633  0.0649  0.0205
  532PYPI   C4A 8254  11.083  18.332   8.858 -0.0955 -0.0643  0.1228
  532PYPI   C1B 8255  11.149  18.532  10.284  0.2630 -0.2251 -0.1468
  532PYPI   C2B 8256  11.305  18.597   9.899 -0.1410 -0.1180 -0.0837
  532PYPI   C3B 8257  11.629  18.798   9.638 -0.1209 -0.1431 -0.0172
  532PYPI   C4B 8258  11.663  18.866   9.186  0.0934 -0.0944 -0.0127
  533PYPI    C1 8259   3.402  13.450  10.114  0.0622 -0.0977  0.0729
  533PYPI    C2 8260   3.617  13.121  10.186  0.0960 -0.0795  0.0558
  533PYPI    C3 8261   3.299  13.206  10.413  0.0335 -0.1712  0.0034
  533PYPI   PO4 8262   3.533  13.592   9.935 -0.0125  0.0544  0.0072
  533PYPI   GL1 8263   3.832  13.518   9.580 -0.2258  0.0101 -0.0304
  533PYPI   GL2 8264   3.700  13.255   9.677  0.0548 -0.2274  0.2367
  533PYPI   C1A 8265   3.773  13.529   9.199 -0.0646 -0.5361 -0.1240
  533PYPI   C2A 8266   3.861  13.531   8.721 -0.1716  0.2086  0.0948
  533PYPI   D3A 8267   4.068  13.667   8.317 -0.1073 -0.0125 -0.0238
  533PYPI   C4A 8268   4.372  13.511   8.230 -0.0139  0.0454  0.3049
  533PYPI   C1B 8269   3.716  12.933   9.422  0.0016  0.1699  0.3934
  533PYPI   C2B 8270   3.725  13.064   8.963 -0.1087 -0.1950 -0.0220
  533PYPI   C3B 8271   3.611  12.979   8.616  0.0954  0.3551  0.1306
  533PYPI   C4B 8272   3.495  12.902   8.183 -0.4211 -0.1067  0.4897
  534PYPI    C1 8273   2.096  15.794  10.088 -0.3486  0.0631 -0.0606
  534PYPI    C2 8274   1.993  15.655  10.448 -0.1984  0.0824 -0.0092
  534PYPI    C3 8275   1.873  16.019  10.331  0.0510  0.2238  0.1664
  534PYPI   PO4 8276   2.135  15.649   9.982 -0.1481  0.2093 -0.0716
  534PYPI   GL1 8277   2.237  15.502   9.634 -0.0100  0.0570 -0.3048
  534PYPI   GL2 8278   1.888  15.482   9.595 -0.0490 -0.1838 -0.1368
  534PYPI   C1A 8279   2.304  15.651   9.240 -0.1827 -0.3622 -0.1111
  534PYPI   C2A 8280   2.228  15.617   8.848  0.1363 -0.0555 -0.1843
  534PYPI   D3A 8281   2.104  15.491   8.548  0.3406 -0.0289 -0.0967
  534PYPI   C4A 8282   2.324  15.612   8.067 -0.1473 -0.0961 -0.1893
  534PYPI   C1B 8283   1.972  15.294   9.218 -0.0462  0.0339 -0.2796
  534PYPI   C2B 8284   1.824  15.170   8.931  0.0920  0.0470 -0.0173
  534PYPI   C3B 8285   1.712  15.188   8.547 -0.1294 -0.1455  0.0717
  534PYPI   C4B 8286   1.505  15.383   8.232 -0.2050 -0.3623  0.3707
  535PYPI    C1 8287   6.494   0.928  10.957 -0.0482 -0.0747  0.0196
  535PYPI    C2 8288   6.198   0.694  11.091  0.0478  0.0737  0.5082
  535PYPI    C3 8289   6.328   1.001  11.313  0.0989  0.4398 -0.0095
  535PYPI   PO4 8290   6.513   1.109  10.642 -0.0038 -0.1674  0.2537
  535PYPI   GL1 8291   6.696   1.127  10.259  0.0901 -0.2549 -0.2667
  535PYPI   GL2 8292   6.923   1.408  10.393  0.1731  0.0979 -0.1656
  535PYPI   C1A 8293   6.550   1.227   9.811 -0.1841 -0.0144  0.1907
  535PYPI   C2A 8294   6.076   0.992   9.674 -0.1102  0.1222  0.0339
  535PYPI   D3A 8295   5.678   0.969   9.645  0.1850  0.1415  0.2586
  535PYPI   C4A 8296   5.513   0.927   9.192 -0.1131  0.1702  0.1230
  535PYPI   C1B 8297   7.050   1.312   9.924  0.0993 -0.2197  0.3009
  535PYPI   C2B 8298   6.911   1.218   9.489  0.0046  0.1249 -0.2377
  535PYPI   C3B 8299   6.961   0.981   9.208 -0.0736  0.0071  0.1681
  535PYPI   C4B 8300   6.748   0.812   8.886 -0.1880  0.0773  0.0868
  536PYPI    C1 8301   4.869  11.973  10.381  0.1988  0.0764 -0.2154
  536PYPI    C2 8302   5.098  12.236  10.577 -0.0520  0.1041  0.0473
  536PYPI    C3 8303   4.824  12.365  10.315  0.1813  0.0743 -0.2158
  536PYPI   PO4 8304   5.048  11.827  10.265 -0.1877  0.0884  0.1484
  536PYPI   GL1 8305   5.354  11.689  10.014 -0.0149  0.1127 -0.1071
  536PYPI   GL2 8306   5.408  11.509   9.652 -0.1287 -0.0653  0.0642
  536PYPI   C1A 8307   5.301  11.953   9.629  0.0832 -0.1831 -0.2781
  536PYPI   C2A 8308   5.290  11.994   9.185 -0.0545  0.2376  0.2022
  536PYPI   D3A 8309   5.476  11.802   8.862  0.0800  0.0442 -0.2289
  536PYPI   C4A 8310   5.558  11.936   8.511  0.0787 -0.2570  0.2983
  536PYPI   C1B 8311   5.285  11.475   9.219  0.2318  0.0681 -0.1743
  536PYPI   C2B 8312   5.351  11.310   8.813  0.1401  0.0023 -0.2329
  536PYPI   C3B 8313   5.687  11.259   8.587  0.1762 -0.1771 -0.0911
  536PYPI   C4B 8314   5.828  11.195   8.167  0.0246 -0.2480  0.3036
  537PYPI    C1 8315  13.011  18.091  10.754 -0.1147  0.0185  0.0917
  537PYPI    C2 8316  13.118  18.451  10.615 -0.3064 -0.0202 -0.1619
  537PYPI    C3 8317  12.880  18.423  10.935 -0.0727  0.0732  0.0226
  537PYPI   PO4 8318  13.228  18.000  10.715 -0.3058 -0.1591  0.3419
  537PYPI   GL1 8319  13.272  17.877  10.242 -0.0665  0.0688 -0.1267
  537PYPI   GL2 8320  13.122  18.123  10.262 -0.2556  0.0626 -0.1151
  537PYPI   C1A 8321  13.285  17.862   9.799 -0.2999 -0.2085 -0.1924
  537PYPI   C2A 8322  13.321  17.896   9.381 -0.0400 -0.2672 -0.1377
  537PYPI   D3A 8323  13.527  17.911   8.948 -0.1349  0.0996 -0.2371
  537PYPI   C4A 8324  13.193  17.987   8.715 -0.0827  0.0480  0.0699
  537PYPI   C1B 8325  12.948  18.222   9.916 -0.0893  0.1436 -0.0619
  537PYPI   C2B 8326  12.943  18.366   9.431  0.0300  0.1287 -0.4193
  537PYPI   C3B 8327  13.083  18.310   9.096 -0.1692  0.0525  0.0256
  537PYPI   C4B 8328  12.850  18.310   8.734  0.1743 -0.1864  0.2105
  538PYPI    C1 8329   4.494   5.915  10.028 -0.2677 -0.1780  0.0834
  538PYPI    C2 8330   4.569   6.084  10.383 -0.0166 -0.1106  0.0004
  538PYPI    C3 8331   4.281   5.808  10.349 -0.0191 -0.1428  0.2632
  538PYPI   PO4 8332   4.706   5.856   9.957 -0.0129  0.0639  0.3810
  538PYPI   GL1 8333   4.753   5.677   9.585  0.2269  0.1628  0.3923
  538PYPI   GL2 8334   4.354   5.699   9.618  0.0221 -0.0339  0.2594
  538PYPI   C1A 8335   4.869   5.685   9.066  0.1665  0.0676 -0.0345
  538PYPI   C2A 8336   5.084   5.783   8.709  0.0190  0.2706  0.1702
  538PYPI   D3A 8337   5.264   5.659   8.413 -0.0596 -0.0809  0.3953
  538PYPI   C4A 8338   5.504   5.857   8.124 -0.1568  0.0272 -0.2484
  538PYPI   C1B 8339   4.414   5.510   9.209  0.1663 -0.2974 -0.0258
  538PYPI   C2B 8340   4.481   5.577   8.808  0.0627 -0.1196 -0.1221
  538PYPI   C3B 8341   4.716   5.601   8.459 -0.3368 -0.1066  0.0723
  538PYPI   C4B 8342   4.785   5.547   7.972 -0.0927  0.2737 -0.0680
  539PYPI    C1 8343   7.262   1.984  10.817 -0.1709  0.0270 -0.3182
  539PYPI    C2 8344   6.965   2.185  10.994 -0.2504 -0.0383 -0.3766
  539PYPI    C3 8345   7.074   1.826  11.133 -0.0597  0.0755 -0.2268
  539PYPI   PO4 8346   7.248   1.816  10.525  0.1088  0.1724 -0.1621
  539PYPI   GL1 8347   7.044   1.970  10.148 -0.2277  0.3708  0.1265
  539PYPI   GL2 8348   7.231   1.773   9.971 -0.1143  0.0172  0.0500
  539PYPI   C1A 8349   6.727   1.728   9.907  0.0986  0.0035 -0.1761
  539PYPI   C2A 8350   6.583   1.645   9.552  0.0352 -0.3007  0.1823
  539PYPI   D3A 8351   6.572   1.556   9.204 -0.2040 -0.2292  0.0749
  539PYPI   C4A 8352   6.348   1.814   8.960  0.1437  0.1894 -0.2899
  539PYPI   C1B 8353   7.204   1.633   9.470  0.0334 -0.0573  0.3592
  539PYPI   C2B 8354   7.132   1.475   8.985 -0.0898 -0.2095  0.1730
  539PYPI   C3B 8355   7.183   1.960   8.583 -0.3602  0.1517 -0.0463
  539PYPI   C4B 8356   7.364   1.854   8.184 -0.0541  0.3233  0.1411
  540ERGO   ROH 8357   3.882   5.486   6.004  0.0269 -0.1679 -0.0889
  540ERGO    R1 8358   3.916   5.387   6.267 -0.0477 -0.0219 -0.0236
  540ERGO    R2 8359   4.148   5.425   6.411 -0.0304 -0.0760 -0.0380
  540ERGO    R3 8360   3.978   5.529   6.596  0.0259  0.1498 -0.1098
  540ERGO    R4 8361   4.190   5.401   6.754 -0.1582 -0.0549 -0.0203
  540ERGO    R5 8362   3.976   5.367   6.773 -0.2055  0.1848 -0.0769
  540ERGO    C1 8363   4.055   5.485   7.126 -0.1797  0.1694 -0.0774
  540ERGO    C2 8364   3.940   5.687   7.420 -0.0817 -0.0848 -0.1573
  541ERGO   ROH 8365   4.385  17.198   9.824  0.2799 -0.1149 -0.0887
  541ERGO    R1 8366   4.451  17.300   9.568  0.2678  0.1446  0.0078
  541ERGO    R2 8367   4.272  17.301   9.358  0.3737  0.0101 -0.0854
  541ERGO    R3 8368   4.331  17.566   9.350 -0.0122  0.1097  0.1144
  541ERGO    R4 8369   4.214  17.508   9.087  0.4288  0.0320 -0.0797
  541ERGO    R5 8370   4.406  17.603   9.126  0.2430  0.3123  0.2263
  541ERGO    C1 8371   4.236  17.878   8.922  0.0987  0.1383  0.1111
  541ERGO    C2 8372   4.097  18.054   8.598 -0.1855  0.2191 -0.2505
  542ERGO   ROH 8373  11.137   4.309   9.574 -0.3380 -0.2510  0.0565
  542ERGO    R1 8374  11.050   4.323   9.305 -0.1693  0.1415  0.0160
  542ERGO    R2 8375  11.159   4.499   9.122  0.3903 -0.0182  0.1769
  542ERGO    R3 8376  11.198   4.273   8.976 -0.1210 -0.0442  0.0650
  542ERGO    R4 8377  11.155   4.484   8.777  0.4413  0.1847  0.1662
  542ERGO    R5 8378  11.047   4.295   8.792 -0.0288  0.4278  0.0333
  542ERGO    C1 8379  11.188   4.262   8.439 -0.0090  0.2785  0.0548
  542ERGO    C2 8380  11.248   4.013   8.175 -0.0389  0.0789  0.1622
  543ERGO   ROH 8381   7.823  14.090   6.093  0.1540 -0.1780  0.0667
  543ERGO    R1 8382   7.776  14.023   6.364  0.0786 -0.0434  0.0880
  543ERGO    R2 8383   7.799  14.207   6.569 -0.0809  0.0857 -0.0060
  543ERGO    R3 8384   7.545  14.126   6.625 -0.0684  0.0078 -0.0608
  543ERGO    R4 8385   7.651  14.223   6.881 -0.1923  0.1437 -0.0617
  543ERGO    R5 8386   7.561  14.029   6.843 -0.1034  0.0951 -0.0196
  543ERGO    C1 8387   7.326  14.158   7.115 -0.2454  0.1045 -0.1456
  543ERGO    C2 8388   7.179  14.272   7.433 -0.0577  0.2631  0.0282
  544ERGO   ROH 8389  13.890  15.038  10.280  0.0345  0.0188  0.0024
  544ERGO    R1 8390  13.850  15.155  10.025  0.0173 -0.0397 -0.0220
  544ERGO    R2 8391  14.039  15.315   9.904  0.0386 -0.1248 -0.1033
  544ERGO    R3 8392  14.010  15.139   9.699 -0.0504 -0.1737 -0.0489
  544ERGO    R4 8393  14.036  15.400   9.569  0.3217 -0.2533 -0.1415
  544ERGO    R5 8394  13.875  15.256   9.538  0.1710 -0.0819 -0.1704
  544ERGO    C1 8395  14.007  15.285   9.181  0.4031 -0.3740 -0.1126
  544ERGO    C2 8396  14.034  15.414   8.955  0.1634  0.4191  0.0647
  545ERGO   ROH 8397  10.410   8.091   9.743 -0.0294 -0.1629  0.0052
  545ERGO    R1 8398  10.389   8.156   9.468 -0.0327 -0.1166  0.0155
  545ERGO    R2 8399  10.533   8.362   9.352 -0.0420 -0.0830  0.0514
  545ERGO    R3 8400  10.612   8.166   9.181 -0.0284 -0.0547  0.0221
  545ERGO    R4 8401  10.637   8.413   9.027  0.1421 -0.0221  0.1187
  545ERGO    R5 8402  10.528   8.235   8.968  0.1072  0.0422  0.0027
  545ERGO    C1 8403  10.773   8.259   8.677  0.2619  0.0400  0.1304
  545ERGO    C2 8404  10.934   8.159   8.402  0.2281 -0.0839 -0.1699
  546ERGO   ROH 8405   3.473  15.299   5.850 -0.1612  0.0418 -0.1466
  546ERGO    R1 8406   3.665  15.264   6.056 -0.1929 -0.0352 -0.1293
  546ERGO    R2 8407   3.768  15.476   6.201 -0.0590 -0.0659 -0.1764
  546ERGO    R3 8408   3.684  15.328   6.413 -0.1678  0.0404 -0.1444
  546ERGO    R4 8409   3.837  15.549   6.532 -0.0541 -0.0160 -0.1884
  546ERGO    R5 8410   3.868  15.336   6.567 -0.1809 -0.0238 -0.1264
  546ERGO    C1 8411   3.798  15.453   6.924 -0.1534  0.1130 -0.1654
  546ERGO    C2 8412   3.528  15.404   7.119 -0.2127 -0.0258  0.0433
  547ERGO   ROH 8413   3.187   4.582   5.928 -0.0441 -0.2239 -0.0397
  547ERGO    R1 8414   3.242   4.714   6.171 -0.0124 -0.1674 -0.0788
  547ERGO    R2 8415   3.045   4.832   6.325  0.0122 -0.1197 -0.0917
  547ERGO    R3 8416   3.149   4.675   6.521  0.0215 -0.0737 -0.0578
  547ERGO    R4 8417   3.082   4.927   6.655 -0.0955 -0.0823 -0.0889
  547ERGO    R5 8418   3.275   4.827   6.657 -0.0585 -0.0188 -0.0393
  547ERGO    C1 8419   3.201   4.836   7.031 -0.1495 -0.0173 -0.0555
  547ERGO    C2 8420   3.144   4.945   7.153 -0.2101 -0.2336  0.0548
  548ERGO   ROH 8421  11.662  10.088   9.984 -0.2602 -0.0778  0.0849
  548ERGO    R1 8422  11.739  10.015   9.721 -0.1645  0.0083  0.0882
  548ERGO    R2 8423  11.556   9.941   9.528 -0.0863 -0.0316  0.0278
  548ERGO    R3 8424  11.677  10.137   9.384 -0.1350  0.0507  0.0983
  548ERGO    R4 8425  11.618   9.926   9.188  0.3590 -0.1061  0.1063
  548ERGO    R5 8426  11.812  10.018   9.225  0.2080  0.1393  0.3140
  548ERGO    C1 8427  11.767  10.101   8.855  0.5726 -0.0722  0.2180
  548ERGO    C2 8428  11.666  10.127   8.587  0.3752  0.0257  0.0504
  549ERGO   ROH 8429  13.181  15.866  10.832 -0.0865  0.1111 -0.0362
  549ERGO    R1 8430  13.232  15.787  10.565  0.0103  0.1538 -0.0306
  549ERGO    R2 8431  13.033  15.700  10.394  0.1170 -0.1359 -0.0139
  549ERGO    R3 8432  13.131  15.895  10.233 -0.1545 -0.0144 -0.0366
  549ERGO    R4 8433  13.010  15.703  10.049 -0.0548 -0.1068 -0.0033
  549ERGO    R5 8434  13.213  15.779  10.041 -0.1333  0.0952 -0.0937
  549ERGO    C1 8435  13.088  15.888   9.698 -0.4098  0.0243 -0.0184
  549ERGO    C2 8436  13.187  15.893   9.396 -0.0444 -0.0053 -0.0841
  550ERGO   ROH 8437  15.186  10.830   6.329  0.0111  0.0940 -0.0910
  550ERGO    R1 8438  15.278  10.733   6.578  0.0187  0.0860 -0.0988
  550ERGO    R2 8439  15.340  10.900   6.789 -0.1053  0.0661 -0.0587
  550ERGO    R3 8440  15.164  10.742   6.924 -0.0403 -0.0546 -0.1106
  550ERGO    R4 8441  15.323  10.871   7.133 -0.0392 -0.0851 -0.0660
  550ERGO    R5 8442  15.290  10.657   7.109  0.0253 -0.0972 -0.1627
  550ERGO    C1 8443  15.148  10.706   7.460  0.0602 -0.2866 -0.1189
  550ERGO    C2 8444  14.980  10.628   7.846  0.0864 -0.1917 -0.0569
  551ERGO   ROH 8445   6.791   8.136   9.682  0.1174  0.0370 -0.0324
  551ERGO    R1 8446   6.951   8.058   9.461  0.1233  0.1189 -0.0579
  551ERGO    R2 8447   6.857   7.890   9.262  0.2359 -0.0803  0.0523
  551ERGO    R3 8448   6.936   8.092   9.099 -0.0582 -0.0591 -0.0683
  551ERGO    R4 8449   6.937   7.855   8.928  0.1262 -0.1263  0.0305
  551ERGO    R5 8450   7.102   7.994   8.957 -0.0129  0.0671 -0.1008
  551ERGO    C1 8451   7.057   8.025   8.580 -0.2137 -0.1332 -0.0955
  551ERGO    C2 8452   7.209   8.120   8.204 -0.2342 -0.1188  0.2194
  552ERGO   ROH 8453  14.949  10.798  10.168  0.1830 -0.3848  0.1299
  552ERGO    R1 8454  14.835  10.882   9.922  0.2792 -0.2054  0.1450
  552ERGO    R2 8455  14.922  10.786   9.678  0.1561 -0.2773  0.1276
  552ERGO    R3 8456  14.659  10.725   9.645  0.0754  0.0526  0.1248
  552ERGO    R4 8457  14.769  10.728   9.373  0.0870 -0.1037  0.1282
  552ERGO    R5 8458  14.596  10.839   9.444  0.2241  0.1215  0.1163
  552ERGO    C1 8459  14.433  10.637   9.165 -0.0290  0.3071  0.1258
  552ERGO    C2 8460  14.298  10.418   8.848  0.2169  0.2392 -0.0552
  553ERGO   ROH 8461  10.597   2.874   6.114  0.0149 -0.1292 -0.1645
  553ERGO    R1 8462  10.702   2.800   6.366  0.1029 -0.0390 -0.1738
  553ERGO    R2 8463  10.860   2.969   6.517  0.0057  0.0848 -0.2051
  553ERGO    R3 8464  10.675   2.919   6.709  0.0651 -0.0349 -0.1790
  553ERGO    R4 8465  10.933   2.897   6.847  0.0944  0.0970 -0.2220
  553ERGO    R5 8466  10.775   2.748   6.844  0.1790  0.0104 -0.2084
  553ERGO    C1 8467  10.802   2.808   7.220  0.2016 -0.0083 -0.2073
  553ERGO    C2 8468  11.108   2.711   7.491 -0.1500 -0.0082  0.2580
  554ERGO   ROH 8469   9.199  17.943   6.297  0.3529 -0.0805  0.0526
  554ERGO    R1 8470   9.225  17.879   6.572  0.1113 -0.2208  0.0430
  554ERGO    R2 8471   9.316  18.060   6.759  0.2992 -0.4293  0.1462
  554ERGO    R3 8472   9.083  17.996   6.885  0.1315 -0.1130  0.0142
  554ERGO    R4 8473   9.240  18.140   7.087  0.2757 -0.4260  0.1424
  554ERGO    R5 8474   9.149  17.943   7.109 -0.0492 -0.3027  0.0301
  554ERGO    C1 8475   8.977  18.126   7.396  0.1045 -0.1273  0.0162
  554ERGO    C2 8476   8.851  18.236   7.775  0.1604  0.1346  0.1996
  555ERGO   ROH 8477  16.140  18.321   7.997  0.4536  0.0228 -0.3465
  555ERGO    R1 8478  15.957  18.106   7.980  0.3322  0.0901  0.0032
  555ERGO    R2 8479  15.959  17.926   7.770 -0.1030  0.0521  0.0177
  555ERGO    R3 8480  15.976  17.743   7.970  0.1769  0.0819  0.0233
  555ERGO    R4 8481  15.854  17.597   7.748 -0.2005  0.0667  0.2429
  555ERGO    R5 8482  15.776  17.613   7.950  0.1209  0.1143  0.3628
  555ERGO    C1 8483  15.810  17.234   7.923  0.0055  0.1032  0.3793
  555ERGO    C2 8484  15.715  17.002   7.946 -0.5248 -0.3160  0.0586
  556ERGO   ROH 8485   3.362   9.836   6.222 -0.1117  0.0423  0.2671
  556ERGO    R1 8486   3.420   9.692   6.459 -0.0252 -0.0078  0.2161
  556ERGO    R2 8487   3.619   9.768   6.635  0.0153 -0.0260  0.1762
  556ERGO    R3 8488   3.417   9.760   6.817  0.0701 -0.0953  0.2345
  556ERGO    R4 8489   3.662   9.760   6.978  0.1247 -0.1626  0.1601
  556ERGO    R5 8490   3.499   9.616   6.990  0.1246 -0.1669  0.1526
  556ERGO    C1 8491   3.498   9.748   7.348  0.2400 -0.3073  0.2055
  556ERGO    C2 8492   3.713   9.746   7.587  0.2061 -0.2264  0.1094
  557ERGO   ROH 8493   5.526  12.877   9.815 -0.0076 -0.3897 -0.0020
  557ERGO    R1 8494   5.408  12.879   9.557  0.0014 -0.1507 -0.0068
  557ERGO    R2 8495   5.388  13.109   9.404  0.1585 -0.0378  0.1338
  557ERGO    R3 8496   5.516  12.957   9.219  0.0662 -0.0089  0.0464
  557ERGO    R4 8497   5.439  13.200   9.075  0.0144  0.0172  0.1261
  557ERGO    R5 8498   5.395  12.996   9.016 -0.0219  0.0330  0.1087
  557ERGO    C1 8499   5.589  13.110   8.709 -0.1562  0.0762  0.0396
  557ERGO    C2 8500   5.704  13.081   8.474 -0.0947  0.1931  0.1396
  558ERGO   ROH 8501   6.567   1.632   6.166 -0.0531 -0.1785 -0.0631
  558ERGO    R1 8502   6.591   1.739   6.427 -0.0043 -0.0884 -0.1040
  558ERGO    R2 8503   6.421   1.668   6.633 -0.0096  0.0347 -0.0643
  558ERGO    R3 8504   6.654   1.609   6.761 -0.0161  0.0173 -0.0606
  558ERGO    R4 8505   6.443   1.542   6.954 -0.0222  0.0466 -0.0589
  558ERGO    R5 8506   6.614   1.674   6.988 -0.0100  0.0307 -0.0639
  558ERGO    C1 8507   6.674   1.415   7.262 -0.0359  0.0372 -0.0522
  558ERGO    C2 8508   6.815   1.362   7.601 -0.1177  0.2075  0.1465
  559ERGO   ROH 8509   6.572   2.193  10.009  0.0696  0.0402  0.1445
  559ERGO    R1 8510   6.464   2.244   9.753  0.0906  0.2406  0.1748
  559ERGO    R2 8511   6.592   2.401   9.565  0.2842  0.0814  0.1769
  559ERGO    R3 8512   6.560   2.182   9.407 -0.0715  0.1514  0.1433
  559ERGO    R4 8513   6.615   2.402   9.221  0.3833  0.0905  0.1828
  559ERGO    R5 8514   6.445   2.265   9.214  0.1270  0.3929  0.1197
  559ERGO    C1 8515   6.598   2.197   8.871  0.1070  0.1614  0.1547
  559ERGO    C2 8516   6.403   2.018   8.500 -0.2901 -0.1955 -0.0158
  560ERGO   ROH 8517  12.641  16.355   6.690 -0.0600 -0.0210  0.1627
  560ERGO    R1 8518  12.560  16.389   6.959 -0.1414  0.1238  0.1205
  560ERGO    R2 8519  12.729  16.340   7.172 -0.2910 -0.0309  0.2040
  560ERGO    R3 8520  12.662  16.595   7.241 -0.0294  0.0623  0.1258
  560ERGO    R4 8521  12.787  16.482   7.482  0.0866  0.0924  0.0826
  560ERGO    R5 8522  12.591  16.577   7.469  0.1487  0.2420  0.1990
  560ERGO    C1 8523  12.758  16.804   7.727  0.5522  0.2515 -0.0614
  560ERGO    C2 8524  12.886  17.056   7.877 -0.1874 -0.0066  0.6002
  561ERGO   ROH 8525   1.053  11.680   9.831 -0.1000 -0.0410 -0.0264
  561ERGO    R1 8526   0.923  11.671   9.580  0.0143 -0.0667 -0.0849
  561ERGO    R2 8527   0.989  11.841   9.372  0.0480 -0.0293 -0.0417
  561ERGO    R3 8528   1.020  11.609   9.234  0.1881 -0.0080 -0.0480
  561ERGO    R4 8529   1.036  11.819   9.031 -0.0480  0.0047 -0.0578
  561ERGO    R5 8530   0.904  11.646   9.028  0.0881 -0.1030 -0.0104
  561ERGO    C1 8531   1.093  11.588   8.702  0.0275  0.0444 -0.0732
  561ERGO    C2 8532   1.306  11.344   8.536  0.0666  0.1195 -0.2211
  562ERGO   ROH 8533   5.697   5.261  10.037 -0.0706  0.2564 -0.0902
  562ERGO    R1 8534   5.678   5.311   9.759 -0.1598 -0.0140 -0.1358
  562ERGO    R2 8535   5.900   5.353   9.599 -0.2260  0.2797 -0.1601
  562ERGO    R3 8536   5.792   5.150   9.453  0.1623 -0.0609  0.0060
  562ERGO    R4 8537   5.947   5.306   9.260 -0.1400  0.0787 -0.1216
  562ERGO    R5 8538   5.738   5.251   9.243 -0.0366 -0.3445 -0.0805
  562ERGO    C1 8539   5.874   5.089   8.926  0.2747 -0.3581  0.0567
  562ERGO    C2 8540   5.800   5.178   8.671 -0.0777  0.1762 -0.1136
  563ERGO   ROH 8541   6.974  14.263   9.811  0.3455 -0.0226 -0.0225
  563ERGO    R1 8542   6.943  14.182   9.542  0.0715  0.1271 -0.0390
  563ERGO    R2 8543   6.864  14.356   9.343  0.2977  0.3472  0.0618
  563ERGO    R3 8544   7.091  14.269   9.221  0.0877 -0.0310 -0.0759
  563ERGO    R4 8545   6.932  14.389   9.005  0.2190  0.3967  0.0503
  563ERGO    R5 8546   7.017  14.188   9.008 -0.1637  0.2217 -0.0920
  563ERGO    C1 8547   7.185  14.327   8.695 -0.0240  0.0704 -0.0856
  563ERGO    C2 8548   7.295  14.602   8.364  0.0974  0.0309 -0.1901
  564ERGO   ROH 8549   7.179   0.636   6.160  0.1655  0.1364  0.0282
  564ERGO    R1 8550   7.218   0.539   6.423  0.1340  0.0027 -0.0165
  564ERGO    R2 8551   7.106   0.660   6.644  0.1243 -0.0997  0.0306
  564ERGO    R3 8552   7.009   0.410   6.691  0.1011 -0.1162 -0.0974
  564ERGO    R4 8553   7.025   0.534   6.956 -0.0750 -0.1798 -0.0506
  564ERGO    R5 8554   7.113   0.344   6.897 -0.0282 -0.1640 -0.0439
  564ERGO    C1 8555   6.888   0.227   7.181 -0.2129 -0.2420 -0.2182
  564ERGO    C2 8556   6.946  -0.034   7.500  0.0384 -0.4170  0.0249
  565ERGO   ROH 8557  16.300   9.749   9.777 -0.0044 -0.2069  0.1186
  565ERGO    R1 8558  16.115   9.768   9.564  0.0214 -0.0109  0.1128
  565ERGO    R2 8559  16.065  10.006   9.432  0.3045  0.0365  0.0880
  565ERGO    R3 8560  16.127   9.859   9.212  0.1354 -0.0602  0.1029
  565ERGO    R4 8561  15.993  10.096   9.106  0.3925  0.0829  0.0811
  565ERGO    R5 8562  15.941   9.889   9.065  0.1602  0.1315  0.1061
  565ERGO    C1 8563  16.009  10.011   8.710  0.2852  0.0191  0.0910
  565ERGO    C2 8564  16.157  10.155   8.488 -0.0694  0.0836 -0.2547
  566ERGO   ROH 8565  10.374   9.225   9.982  0.0552 -0.0546 -0.0411
  566ERGO    R1 8566  10.201   9.354   9.799  0.0781  0.1232  0.0607
  566ERGO    R2 8567  10.247   9.610   9.706  0.3458  0.0391 -0.0463
  566ERGO    R3 8568  10.226   9.490   9.462 -0.0062 -0.0064  0.0009
  566ERGO    R4 8569  10.194   9.776   9.408  0.2378  0.0144 -0.0419
  566ERGO    R5 8570  10.058   9.617   9.348  0.0145  0.1368  0.1262
  566ERGO    C1 8571  10.144   9.761   9.006 -0.1556 -0.0426  0.0052
  566ERGO    C2 8572  10.225   9.661   8.720 -0.4915  0.1244  0.2083
  567ERGO   ROH 8573  14.046   6.060   9.765 -0.1417 -0.1024 -0.0790
  567ERGO    R1 8574  14.041   5.865   9.560 -0.1870  0.0257 -0.2001
  567ERGO    R2 8575  13.816   5.814   9.407 -0.1805  0.2082 -0.2640
  567ERGO    R3 8576  13.985   5.861   9.200 -0.1337  0.2656 -0.2143
  567ERGO    R4 8577  13.784   5.677   9.092 -0.0269  0.1585 -0.2594
  567ERGO    R5 8578  14.000   5.650   9.087 -0.0065  0.2544 -0.1877
  567ERGO    C1 8579  13.924   5.641   8.713  0.1065  0.1835 -0.2103
  567ERGO    C2 8580  13.760   5.553   8.473  0.0577 -0.3053  0.1695
  568ERGO   ROH 8581  10.459  12.794  10.110 -0.0209  0.0944  0.2946
  568ERGO    R1 8582  10.479  12.978   9.896 -0.0294  0.1496  0.3409
  568ERGO    R2 8583  10.561  12.904   9.642  0.1800  0.2574  0.3738
  568ERGO    R3 8584  10.326  13.020   9.568  0.1360  0.0952  0.2562
  568ERGO    R4 8585  10.500  13.044   9.332  0.1660  0.0307  0.2723
  568ERGO    R5 8586  10.393  13.206   9.432  0.0682  0.0422  0.1497
  568ERGO    C1 8587  10.244  13.234   9.082  0.1168 -0.2534  0.1028
  568ERGO    C2 8588  10.066  13.371   8.800  0.0345 -0.0441 -0.1646
  569ERGO   ROH 8589   7.338  12.765   9.997  0.1831 -0.0149  0.1324
  569ERGO    R1 8590   7.436  12.621   9.773 -0.0917 -0.1154  0.0717
  569ERGO    R2 8591   7.273  12.539   9.566 -0.2660  0.2403  0.0568
  569ERGO    R3 8592   7.455  12.672   9.413 -0.0428 -0.0202  0.0878
  569ERGO    R4 8593   7.330  12.480   9.230 -0.1497  0.0292  0.1124
  569ERGO    R5 8594   7.544  12.505   9.267 -0.1418 -0.1808  0.2105
  569ERGO    C1 8595   7.534  12.571   8.892  0.1275 -0.3381  0.1740
  569ERGO    C2 8596   7.494  12.590   8.565  0.1540  0.2977 -0.2443
  570ERGO   ROH 8597  10.703  15.883  10.168 -0.0113 -0.0344  0.0500
  570ERGO    R1 8598  10.931  15.765  10.050  0.0406  0.1060  0.0089
  570ERGO    R2 8599  10.918  15.531   9.904  0.1754  0.0401  0.1057
  570ERGO    R3 8600  11.040  15.680   9.713 -0.0180  0.0652 -0.0007
  570ERGO    R4 8601  11.036  15.408   9.604  0.1481  0.0142  0.1052
  570ERGO    R5 8602  11.211  15.537   9.625  0.0599  0.1615 -0.0134
  570ERGO    C1 8603  11.219  15.477   9.249 -0.0494  0.0225  0.0050
  570ERGO    C2 8604  11.307  15.564   8.772  0.1141  0.2437 -0.1415
  571ERGO   ROH 8605   7.402   8.862   9.496 -0.0298  0.1136  0.0714
  571ERGO    R1 8606   7.534   8.906   9.250  0.0726  0.0822  0.1205
  571ERGO    R2 8607   7.710   8.723   9.141 -0.0487 -0.0306  0.1113
  571ERGO    R3 8608   7.548   8.743   8.924  0.0244  0.1725  0.0733
  571ERGO    R4 8609   7.814   8.693   8.813  0.0092 -0.0303  0.1292
  571ERGO    R5 8610   7.680   8.858   8.761  0.1666  0.1021  0.1388
  571ERGO    C1 8611   7.722   8.696   8.418  0.1115  0.1607  0.1039
  571ERGO    C2 8612   7.694   8.522   8.137  0.1575  0.0103 -0.3886
  572ERGO   ROH 8613   6.480   6.194   9.798 -0.0514 -0.0193  0.0502
  572ERGO    R1 8614   6.465   6.121   9.525  0.0600 -0.0935  0.0628
  572ERGO    R2 8615   6.424   6.307   9.324 -0.1713 -0.1826  0.0241
  572ERGO    R3 8616   6.650   6.197   9.221 -0.0167  0.0921  0.0606
  572ERGO    R4 8617   6.495   6.281   8.987 -0.0916 -0.1080  0.0349
  572ERGO    R5 8618   6.576   6.082   9.024  0.1513 -0.0095  0.0540
  572ERGO    C1 8619   6.748   6.162   8.694  0.0999  0.1933  0.0754
  572ERGO    C2 8620   6.949   6.183   8.441  0.0530 -0.0847 -0.0138
  573ERGO   ROH 8621  12.829   8.768   9.889  0.2385  0.0696  0.1419
  573ERGO    R1 8622  12.821   8.902   9.640  0.1320  0.0305  0.1245
  573ERGO    R2 8623  12.962   9.135   9.592  0.1631 -0.0159  0.0077
  573ERGO    R3 8624  13.060   8.994   9.381  0.0085 -0.0717 -0.0288
  573ERGO    R4 8625  13.116   9.274   9.315  0.0637 -0.0918 -0.0875
  573ERGO    R5 8626  13.010   9.130   9.190 -0.0497 -0.0742 -0.0185
  573ERGO    C1 8627  13.297   9.223   8.956 -0.1395 -0.1884 -0.1773
  573ERGO    C2 8628  13.406   9.285   8.629  0.0838 -0.1972  0.2543
  574ERGO   ROH 8629   7.740   5.740   6.100 -0.0034  0.1852  0.2074
  574ERGO    R1 8630   7.682   5.638   6.358  0.0996  0.0160  0.1670
  574ERGO    R2 8631   7.878   5.535   6.525  0.1982  0.0679  0.0973
  574ERGO    R3 8632   7.777   5.717   6.700  0.0896 -0.0827  0.1905
  574ERGO    R4 8633   8.003   5.596   6.841  0.2259  0.0736  0.0838
  574ERGO    R5 8634   7.799   5.612   6.914  0.2387 -0.1311  0.1460
  574ERGO    C1 8635   7.981   5.802   7.190  0.1401 -0.0645  0.1633
  574ERGO    C2 8636   8.132   5.999   7.455  0.1550 -0.2116 -0.0855
  575ERGO   ROH 8637  11.730  13.978   6.308  0.0089 -0.0442 -0.0262
  575ERGO    R1 8638  11.856  13.921   6.555  0.0967  0.0776 -0.0424
  575ERGO    R2 8639  11.972  14.117   6.711 -0.0647  0.1899 -0.0619
  575ERGO    R3 8640  11.810  14.014   6.904  0.0565  0.0400 -0.0377
  575ERGO    R4 8641  11.928  14.253   7.026 -0.3201  0.2844 -0.1356
  575ERGO    R5 8642  11.929  14.051   7.108 -0.0286  0.3226 -0.0348
  575ERGO    C1 8643  11.750  14.235   7.390 -0.3549  0.1988 -0.1557
  575ERGO    C2 8644  11.632  14.198   7.723  0.3133  0.1184 -0.0109
  576ERGO   ROH 8645  15.447   1.356   9.903 -0.0187  0.0126  0.1030
  576ERGO    R1 8646  15.308   1.416   9.663  0.0331 -0.1700  0.0255
  576ERGO    R2 8647  15.403   1.598   9.479 -0.1604  0.0521  0.1389
  576ERGO    R3 8648  15.374   1.390   9.306  0.3262  0.0373  0.0611
  576ERGO    R4 8649  15.274   1.623   9.159 -0.2245 -0.1337  0.1492
  576ERGO    R5 8650  15.168   1.435   9.193  0.2104 -0.4025  0.0798
  576ERGO    C1 8651  15.171   1.442   8.811  0.1947 -0.2559  0.0818
  576ERGO    C2 8652  15.093   1.523   8.572 -0.2022  0.0582  0.0378
  577ERGO   ROH 8653   8.241   6.639   9.435 -0.0755  0.1049  0.0562
  577ERGO    R1 8654   8.139   6.726   9.186 -0.1176  0.1176  0.0782
  577ERGO    R2 8655   8.297   6.849   8.995 -0.1654  0.1883  0.0866
  577ERGO    R3 8656   8.200   6.652   8.835 -0.1265  0.1897  0.0605
  577ERGO    R4 8657   8.316   6.848   8.650 -0.2880  0.3105  0.0782
  577ERGO    R5 8658   8.114   6.768   8.644 -0.2538  0.2109  0.1278
  577ERGO    C1 8659   8.236   6.663   8.299 -0.3228  0.3830  0.0490
  577ERGO    C2 8660   8.478   6.611   8.114  0.1852  0.1260 -0.1076
  578ERGO   ROH 8661  17.200  18.253   5.785 -0.1489 -0.0841  0.0767
  578ERGO    R1 8662  17.294  18.278   6.051 -0.0677  0.1036  0.0325
  578ERGO    R2 8663  17.123  18.293   6.268  0.0002 -0.0272  0.0979
  578ERGO    R3 8664  17.272  18.084   6.358  0.2788  0.1672  0.1015
  578ERGO    R4 8665  17.173  18.214   6.601 -0.2129 -0.1711  0.0975
  578ERGO    R5 8666  17.380  18.168   6.554 -0.0727  0.2280  0.2782
  578ERGO    C1 8667  17.342  17.972   6.879 -0.0752 -0.0724  0.1006
  578ERGO    C2 8668  17.171  17.870   7.185 -0.5092 -0.3784 -0.2164
  579ERGO   ROH 8669   0.230   6.581   9.705 -0.1511 -0.0402 -0.0156
  579ERGO    R1 8670   0.349   6.495   9.463 -0.1929 -0.1519  0.0038
  579ERGO    R2 8671   0.207   6.361   9.267 -0.3166  0.0791 -0.0628
  579ERGO    R3 8672   0.302   6.560   9.108  0.0023 -0.0155 -0.0003
  579ERGO    R4 8673   0.233   6.342   8.923 -0.4629  0.1755 -0.0804
  579ERGO    R5 8674   0.425   6.446   8.937 -0.2571 -0.1777 -0.0903
  579ERGO    C1 8675   0.337   6.518   8.573 -0.2487  0.1429 -0.0321
  579ERGO    C2 8676   0.199   6.230   8.377  0.3272 -0.3559 -0.2061
  580ERGO   ROH 8677  10.160   7.731   6.264 -0.0454  0.0266 -0.1534
  580ERGO    R1 8678  10.098   7.816   6.527  0.0749  0.1215 -0.1565
  580ERGO    R2 8679  10.016   7.642   6.725 -0.1062  0.2328 -0.1407
  580ERGO    R3 8680  10.223   7.753   6.862  0.0311  0.0104 -0.1584
  580ERGO    R4 8681  10.026   7.685   7.068 -0.0108  0.1574 -0.1320
  580ERGO    R5 8682  10.118   7.880   7.036  0.1751  0.0832 -0.1147
  580ERGO    C1 8683  10.225   7.815   7.396  0.1736 -0.0954 -0.1435
  580ERGO    C2 8684  10.311   7.624   7.734  0.4145 -0.1769  0.0182
  581ERGO   ROH 8685   9.003   1.545   6.234  0.3414  0.0054 -0.0355
  581ERGO    R1 8686   9.166   1.534   6.465  0.2037  0.0293  0.0638
  581ERGO    R2 8687   9.182   1.743   6.646 -0.0335 -0.0186  0.1413
  581ERGO    R3 8688   9.116   1.549   6.825 -0.0308 -0.1150  0.0399
  581ERGO    R4 8689   9.224   1.767   6.988  0.1836 -0.2848  0.1376
  581ERGO    R5 8690   9.288   1.559   6.991  0.0763 -0.3254 -0.0525
  581ERGO    C1 8691   9.185   1.600   7.355  0.3127 -0.5302  0.0402
  581ERGO    C2 8692   9.166   1.579   7.635  0.0266  0.2332 -0.0791
  582ERGO   ROH 8693   5.762   8.903   9.796 -0.2413 -0.2172  0.0750
  582ERGO    R1 8694   5.629   8.871   9.548 -0.0969 -0.0794 -0.0231
  582ERGO    R2 8695   5.728   8.974   9.311  0.1277 -0.0873  0.0623
  582ERGO    R3 8696   5.703   8.717   9.226  0.0242 -0.0543 -0.0072
  582ERGO    R4 8697   5.718   8.876   8.980 -0.0010  0.0109  0.0365
  582ERGO    R5 8698   5.563   8.732   9.033 -0.0280  0.0440  0.0391
  582ERGO    C1 8699   5.689   8.577   8.708 -0.1732  0.0990 -0.0439
  582ERGO    C2 8700   5.734   8.727   8.350 -0.2354 -0.2449 -0.0150
  583ERGO   ROH 8701   3.247  18.247   5.834  0.0683  0.2119 -0.2218
  583ERGO    R1 8702   3.330  18.234   6.105  0.1265  0.1044 -0.2433
  583ERGO    R2 8703   3.578  18.321   6.189  0.0899  0.2209 -0.2357
  583ERGO    R3 8704   3.431  18.471   6.362  0.0156  0.0216 -0.1244
  583ERGO    R4 8705   3.703  18.481   6.469  0.0288  0.2095 -0.2025
  583ERGO    R5 8706   3.524  18.422   6.577  0.1162  0.0117 -0.1750
  583ERGO    C1 8707   3.638  18.715   6.794 -0.0764  0.0158 -0.0789
  583ERGO    C2 8708   3.793  18.887   6.994 -0.3086  0.1203 -0.1131
  584ERGO   ROH 8709   2.961   3.209   6.089 -0.0502 -0.1025  0.0110
  584ERGO    R1 8710   2.976   3.344   6.337 -0.0014 -0.0798 -0.0045
  584ERGO    R2 8711   2.895   3.228   6.575  0.0272 -0.0502  0.0173
  584ERGO    R3 8712   3.145   3.295   6.655  0.0442 -0.0607 -0.0251
  584ERGO    R4 8713   2.989   3.282   6.903  0.1184 -0.2135  0.0192
  584ERGO    R5 8714   3.111   3.449   6.835  0.0768 -0.1595  0.0693
  584ERGO    C1 8715   3.279   3.376   7.169  0.1874 -0.3185 -0.0194
  584ERGO    C2 8716   3.171   3.442   7.493 -0.0532  0.0164 -0.1598
  585ERGO   ROH 8717   3.407   6.872   5.770  0.1419  0.2303 -0.1004
  585ERGO    R1 8718   3.358   6.937   6.040  0.0839  0.0082 -0.0540
  585ERGO    R2 8719   3.352   6.747   6.241  0.1154 -0.1527 -0.1942
  585ERGO    R3 8720   3.538   6.909   6.356  0.0523 -0.1802 -0.0544
  585ERGO    R4 8721   3.455   6.725   6.570 -0.0603 -0.2114 -0.1424
  585ERGO    R5 8722   3.456   6.943   6.579 -0.0625 -0.2218 -0.0959
  585ERGO    C1 8723   3.690   6.864   6.870 -0.2219 -0.2714  0.0191
  585ERGO    C2 8724   3.956   6.775   7.082  0.0026 -0.3438  0.0871
  586ERGO   ROH 8725   0.208   4.112   9.854 -0.0759 -0.0448 -0.0610
  586ERGO    R1 8726   0.273   4.151   9.581 -0.0452 -0.1284 -0.0663
  586ERGO    R2 8727   0.522   4.093   9.478 -0.0107 -0.0933 -0.0063
  586ERGO    R3 8728   0.379   3.943   9.302  0.0608 -0.2028  0.0287
  586ERGO    R4 8729   0.648   3.956   9.187 -0.0205  0.1629 -0.1339
  586ERGO    R5 8730   0.461   4.009   9.087 -0.1475 -0.0238 -0.0001
  586ERGO    C1 8731   0.587   3.735   8.852  0.0408  0.2093 -0.1753
  586ERGO    C2 8732   0.609   3.587   8.558  0.4767  0.2025  0.3037
  587ERGO   ROH 8733   7.762   7.384   5.976 -0.3394  0.0541 -0.0699
  587ERGO    R1 8734   7.852   7.445   6.238 -0.1364 -0.0850 -0.1055
  587ERGO    R2 8735   7.703   7.597   6.414  0.1150  0.0356 -0.0010
  587ERGO    R3 8736   7.738   7.383   6.578 -0.0180 -0.0275 -0.0529
  587ERGO    R4 8737   7.712   7.613   6.759 -0.0958 -0.0722  0.0115
  587ERGO    R5 8738   7.874   7.467   6.756 -0.1107 -0.1002  0.0603
  587ERGO    C1 8739   7.750   7.421   7.114 -0.3434 -0.1943 -0.0300
  587ERGO    C2 8740   7.580   7.474   7.425 -0.0822  0.1210 -0.0811
  588ERGO   ROH 8741   9.990   6.031   5.806 -0.2813  0.0190  0.0055
  588ERGO    R1 8742  10.012   5.859   6.031 -0.4105 -0.0575 -0.0407
  588ERGO    R2 8743  10.157   5.926   6.256 -0.1159 -0.3465 -0.1424
  588ERGO    R3 8744   9.923   5.873   6.383 -0.1182  0.0432  0.0330
  588ERGO    R4 8745  10.126   5.871   6.596  0.0452 -0.2464 -0.1094
  588ERGO    R5 8746   9.982   5.713   6.552 -0.2456 -0.0325  0.0120
  588ERGO    C1 8747   9.888   5.789   6.913  0.1368  0.1778  0.0745
  588ERGO    C2 8748  10.091   5.758   7.252 -0.6045 -0.1710  0.3073
  589ERGO   ROH 8749  16.719  15.502   9.865 -0.0710 -0.1052  0.1549
  589ERGO    R1 8750  16.856  15.517   9.617 -0.0341 -0.2493  0.1652
  589ERGO    R2 8751  16.773  15.377   9.393 -0.1296 -0.2126  0.1724
  589ERGO    R3 8752  16.777  15.623   9.278  0.0826 -0.2272  0.1461
  589ERGO    R4 8753  16.741  15.438   9.055 -0.3317 -0.1995  0.1933
  589ERGO    R5 8754  16.895  15.591   9.072 -0.1267 -0.3898  0.0525
  589ERGO    C1 8755  16.726  15.705   8.750 -0.2500 -0.2054  0.1806
  589ERGO    C2 8756  16.530  15.898   8.532  0.0156  0.2419 -0.0621
  590ERGO   ROH 8757   3.626   5.566   9.531  0.3371 -0.2155 -0.0150
  590ERGO    R1 8758   3.470   5.652   9.311  0.1803 -0.3280  0.0489
  590ERGO    R2 8759   3.567   5.824   9.117 -0.0915 -0.0797  0.1164
  590ERGO    R3 8760   3.488   5.627   8.948  0.1762 -0.1190  0.0357
  590ERGO    R4 8761   3.583   5.842   8.773 -0.2645  0.1354  0.1177
  590ERGO    R5 8762   3.389   5.743   8.763 -0.0970 -0.1882  0.1425
  590ERGO    C1 8763   3.519   5.667   8.413 -0.1140  0.2238  0.0428
  590ERGO    C2 8764   3.509   5.891   8.078  0.0040  0.3525 -0.0117
  591ERGO   ROH 8765   7.995   5.924   9.833 -0.1673 -0.4093 -0.0053
  591ERGO    R1 8766   7.955   5.793   9.586 -0.5970 -0.2115 -0.0505
  591ERGO    R2 8767   7.741   5.848   9.420 -0.2591  0.8279 -0.2118
  591ERGO    R3 8768   7.936   5.889   9.235  0.1184 -0.0391 -0.0605
  591ERGO    R4 8769   7.702   5.807   9.079 -0.1361  0.8723 -0.2323
  591ERGO    R5 8770   7.900   5.718   9.072 -0.4611  0.0209 -0.0248
  591ERGO    C1 8771   7.862   5.823   8.707  0.2899  0.0843 -0.1021
  591ERGO    C2 8772   7.835   5.861   8.350 -0.2293  0.2379  0.1402
  592ERGO   ROH 8773   0.145  12.369   9.856  0.0262  0.0098 -0.1754
  592ERGO    R1 8774   0.113  12.499   9.606 -0.2532 -0.0639 -0.1788
  592ERGO    R2 8775   0.274  12.445   9.388 -0.1535  0.2546 -0.1757
  592ERGO    R3 8776   0.037  12.399   9.265 -0.0727 -0.2336 -0.1747
  592ERGO    R4 8777   0.221  12.464   9.047 -0.2662  0.6158 -0.1439
  592ERGO    R5 8778   0.030  12.559   9.087 -0.5495  0.0358  0.0552
  592ERGO    C1 8779  -0.033  12.432   8.733 -0.2558  0.3681 -0.1243
  592ERGO    C2 8780  -0.305  12.532   8.439 -0.5417 -0.1405  0.0166
  593ERGO   ROH 8781   5.449  13.757   5.813 -0.2708  0.2127 -0.0081
  593ERGO    R1 8782   5.342  13.779   6.075 -0.0888  0.1446  0.0725
  593ERGO    R2 8783   5.311  13.560   6.241 -0.0054  0.0980  0.0227
  593ERGO    R3 8784   5.458  13.710   6.413  0.1326  0.0207 -0.0248
  593ERGO    R4 8785   5.256  13.581   6.582  0.0036  0.2589  0.0153
  593ERGO    R5 8786   5.298  13.795   6.570  0.2025  0.2211 -0.0550
  593ERGO    C1 8787   5.361  13.735   6.942  0.1384  0.2800 -0.0336
  593ERGO    C2 8788   5.270  13.863   7.164 -0.0393 -0.3504  0.3851
  594ERGO   ROH 8789   6.352  12.424  10.266  0.2018  0.0899  0.1740
  594ERGO    R1 8790   6.344  12.259  10.036 -0.1489  0.0408  0.2182
  594ERGO    R2 8791   6.137  12.269   9.852 -0.0455  0.5668  0.1311
  594ERGO    R3 8792   6.340  12.309   9.676  0.1549 -0.0443  0.1978
  594ERGO    R4 8793   6.115  12.222   9.510 -0.1519  0.7898  0.1029
  594ERGO    R5 8794   6.314  12.134   9.514 -0.4214  0.0891  0.1137
  594ERGO    C1 8795   6.293  12.231   9.146 -0.0258  0.3460  0.1491
  594ERGO    C2 8796   6.450  12.286   8.887  0.4210  0.1307 -0.1171
  595ERGO   ROH 8797   3.813   8.288   6.128  0.0735  0.0070  0.0515
  595ERGO    R1 8798   3.789   8.324   6.408  0.0885 -0.0191  0.0550
  595ERGO    R2 8799   4.008   8.336   6.576  0.0980  0.0344  0.0322
  595ERGO    R3 8800   3.896   8.572   6.653  0.0359 -0.0038  0.0640
  595ERGO    R4 8801   4.038   8.475   6.891  0.1606  0.0555  0.0184
  595ERGO    R5 8802   3.828   8.533   6.879  0.1312 -0.0238  0.0917
  595ERGO    C1 8803   3.950   8.777   7.147  0.1386  0.0318  0.0402
  595ERGO    C2 8804   3.998   8.944   7.480 -0.1880  0.4041 -0.2191
  596ERGO   ROH 8805   5.525   5.030   5.689  0.1164  0.1799  0.1910
  596ERGO    R1 8806   5.428   4.891   5.916  0.0793  0.1230  0.1415
  596ERGO    R2 8807   5.459   4.618   5.948 -0.0886  0.0794 -0.0079
  596ERGO    R3 8808   5.571   4.692   6.185  0.0172 -0.1103  0.0027
  596ERGO    R4 8809   5.455   4.429   6.238 -0.1414 -0.0502 -0.0931
  596ERGO    R5 8810   5.419   4.611   6.351  0.0087 -0.0848  0.0012
  596ERGO    C1 8811   5.557   4.388   6.628 -0.0729 -0.3038 -0.1327
  596ERGO    C2 8812   5.478   4.320   6.939  0.0522 -0.2894 -0.0839
  597ERGO   ROH 8813   2.799  13.925   5.828 -0.0829 -0.1419 -0.1100
  597ERGO    R1 8814   2.869  14.089   6.048  0.2912 -0.1367 -0.2233
  597ERGO    R2 8815   2.689  14.152   6.249  0.3928  0.4805 -0.2985
  597ERGO    R3 8816   2.885  14.053   6.409  0.1191  0.0939 -0.1920
  597ERGO    R4 8817   2.737  14.238   6.580  0.4225  0.4190 -0.2875
  597ERGO    R5 8818   2.951  14.238   6.545  0.4423 -0.0271 -0.1849
  597ERGO    C1 8819   2.948  14.195   6.924  0.1829  0.0204 -0.1812
  597ERGO    C2 8820   3.050  14.035   7.237  0.1920  0.0758  0.0865
  598ERGO   ROH 8821   3.744   7.194   9.970  0.0707  0.1823 -0.0942
  598ERGO    R1 8822   3.851   7.262   9.717  0.1935  0.0348 -0.0833
  598ERGO    R2 8823   4.073   7.137   9.611  0.0279 -0.2841 -0.0649
  598ERGO    R3 8824   3.908   7.093   9.400 -0.0186 -0.0438 -0.0811
  598ERGO    R4 8825   4.176   7.099   9.284 -0.0075 -0.2799 -0.0764
  598ERGO    R5 8826   4.005   7.218   9.221  0.1123 -0.0814 -0.0380
  598ERGO    C1 8827   4.081   7.035   8.895 -0.0717 -0.0519 -0.0983
  598ERGO    C2 8828   4.070   7.029   8.457 -0.0478 -0.2634  0.4901
  599ERGO   ROH 8829   6.541   7.431   6.126  0.1747  0.0173 -0.0084
  599ERGO    R1 8830   6.654   7.421   6.385 -0.0092  0.0023  0.0731
  599ERGO    R2 8831   6.798   7.630   6.494  0.1266 -0.0940  0.0911
  599ERGO    R3 8832   6.619   7.606   6.697 -0.0409  0.1557 -0.0222
  599ERGO    R4 8833   6.824   7.789   6.799  0.0676 -0.0240  0.0600
  599ERGO    R5 8834   6.754   7.606   6.895 -0.1843  0.0820  0.0725
  599ERGO    C1 8835   6.672   7.859   7.168 -0.1240  0.2513 -0.0645
  599ERGO    C2 8836   6.602   8.089   7.551  0.2559  0.0237 -0.2183
  600ERGO   ROH 8837   1.137   1.652   9.379  0.1778 -0.0969 -0.1509
  600ERGO    R1 8838   1.119   1.546   9.117  0.2833 -0.0585 -0.1747
  600ERGO    R2 8839   1.025   1.692   8.903 -0.0430 -0.1596 -0.1085
  600ERGO    R3 8840   1.262   1.621   8.791  0.0553  0.2856 -0.1993
  600ERGO    R4 8841   1.077   1.655   8.564 -0.2413 -0.5055 -0.1063
  600ERGO    R5 8842   1.199   1.479   8.607  0.2535 -0.1438  0.0520
  600ERGO    C1 8843   1.331   1.568   8.260 -0.2645 -0.2891 -0.1904
  600ERGO    C2 8844   1.346   1.665   7.969 -0.1887  0.0586 -0.0205
  601ERGO   ROH 8845  15.758  18.390   6.093  0.4335  0.0577 -0.0657
  601ERGO    R1 8846  15.682  18.294   6.348  0.3489 -0.1328 -0.1610
  601ERGO    R2 8847  15.840  18.121   6.495  0.5258  0.1305 -0.0426
  601ERGO    R3 8848  15.815  18.312   6.687 -0.0237  0.0500 -0.0176
  601ERGO    R4 8849  15.851  18.063   6.836  0.3863  0.0737 -0.0467
  601ERGO    R5 8850  15.689  18.206   6.860  0.0540 -0.2597 -0.1372
  601ERGO    C1 8851  15.833  18.208   7.214 -0.2108 -0.0347 -0.0255
  601ERGO    C2 8852  15.800  18.338   7.532 -0.2582 -0.0165 -0.1642
  602ERGO   ROH 8853  13.268   5.918   5.634 -0.0046  0.1088  0.1068
  602ERGO    R1 8854  13.092   5.981   5.847 -0.0321  0.0673  0.0962
  602ERGO    R2 8855  13.036   5.803   6.051  0.0915  0.0976  0.1561
  602ERGO    R3 8856  13.115   6.010   6.209 -0.0296  0.1989  0.0865
  602ERGO    R4 8857  13.051   5.794   6.396  0.1902  0.1871  0.1547
  602ERGO    R5 8858  12.972   5.997   6.400  0.0291  0.1282  0.1275
  602ERGO    C1 8859  13.134   5.983   6.745  0.1339  0.3344  0.0885
  602ERGO    C2 8860  13.271   5.819   7.022  0.0516  0.4587 -0.2195
  603ERGO   ROH 8861   5.639  15.662   9.681 -0.0330 -0.1572 -0.0174
  603ERGO    R1 8862   5.534  15.618   9.422 -0.0559  0.0205 -0.0391
  603ERGO    R2 8863   5.397  15.814   9.282  0.1080  0.1840  0.0222
  603ERGO    R3 8864   5.582  15.760   9.090  0.0767  0.1020  0.0147
  603ERGO    R4 8865   5.378  15.922   8.955  0.1656  0.2252  0.0322
  603ERGO    R5 8866   5.453  15.727   8.891  0.0582  0.1916  0.0128
  603ERGO    C1 8867   5.540  15.935   8.583  0.1698  0.1723  0.0312
  603ERGO    C2 8868   5.576  16.010   8.150  0.3418 -0.1027 -0.1859
  604ERGO   ROH 8869   1.387   8.975   9.525  0.0573 -0.1482  0.0833
  604ERGO    R1 8870   1.519   9.137   9.335  0.0364 -0.0738  0.1335
  604ERGO    R2 8871   1.712   9.039   9.164 -0.1314 -0.0534 -0.0648
  604ERGO    R3 8872   1.552   9.147   8.972 -0.1834  0.2025  0.1162
  604ERGO    R4 8873   1.823   9.161   8.860 -0.2721 -0.2501 -0.1989
  604ERGO    R5 8874   1.682   9.327   8.881  0.0156 -0.0095 -0.0370
  604ERGO    C1 8875   1.738   9.334   8.503 -0.4029 -0.1246 -0.1070
  604ERGO    C2 8876   1.993   9.412   8.131  0.0205  0.0992  0.2241
  605ERGO   ROH 8877   3.077   7.396   5.920  0.2571  0.2407  0.1569
  605ERGO    R1 8878   3.208   7.394   6.171  0.1818 -0.0181  0.1971
  605ERGO    R2 8879   3.085   7.482   6.403  0.1701 -0.0973  0.2204
  605ERGO    R3 8880   3.156   7.236   6.495 -0.0189 -0.2090  0.0748
  605ERGO    R4 8881   3.020   7.364   6.721  0.4796 -0.0524  0.3040
  605ERGO    R5 8882   3.219   7.274   6.723  0.3715 -0.3208 -0.0048
  605ERGO    C1 8883   3.048   7.064   6.993  0.4823 -0.1312  0.2161
  605ERGO    C2 8884   3.118   6.922   7.356  0.0425  0.0319  0.4006
  606ERGO   ROH 8885   0.503   2.521   9.549  0.1275  0.0023 -0.0346
  606ERGO    R1 8886   0.380   2.538   9.295  0.1547  0.0479 -0.0448
  606ERGO    R2 8887   0.428   2.355   9.094  0.0428 -0.0160 -0.0138
  606ERGO    R3 8888   0.157   2.331   9.095  0.0254  0.1684 -0.0279
  606ERGO    R4 8889   0.237   2.254   8.824  0.0201 -0.1775  0.0611
  606ERGO    R5 8890   0.090   2.406   8.877  0.1120 -0.0167 -0.1214
  606ERGO    C1 8891  -0.128   2.174   8.667 -0.0093 -0.0984  0.0915
  606ERGO    C2 8892  -0.398   1.979   8.461  0.1687  0.1129  0.0236
  607ERGO   ROH 8893  14.741   1.654   6.203  0.1808 -0.1253  0.0341
  607ERGO    R1 8894  14.612   1.607   6.450  0.0985  0.1166  0.0412
  607ERGO    R2 8895  14.566   1.352   6.547 -0.2119  0.1992  0.1325
  607ERGO    R3 8896  14.697   1.446   6.766 -0.1173  0.1300  0.1057
  607ERGO    R4 8897  14.486   1.272   6.874  0.2059 -0.2398  0.1379
  607ERGO    R5 8898  14.524   1.480   6.928 -0.0011 -0.2515  0.3159
  607ERGO    C1 8899  14.563   1.314   7.270  0.5381 -0.5604  0.1160
  607ERGO    C2 8900  14.598   0.920   7.552  0.0284  0.1609 -0.0703
  608ERGO   ROH 8901   1.816   3.267   9.554  0.1190 -0.1184  0.0308
  608ERGO    R1 8902   1.828   3.094   9.330 -0.1343 -0.1323  0.0250
  608ERGO    R2 8903   1.625   3.080   9.142 -0.1376  0.2145 -0.0101
  608ERGO    R3 8904   1.827   3.131   8.968 -0.0176 -0.1102  0.0279
  608ERGO    R4 8905   1.608   3.035   8.800 -0.1276  0.2191 -0.0110
  608ERGO    R5 8906   1.811   2.957   8.805 -0.2487 -0.0956  0.0373
  608ERGO    C1 8907   1.787   3.056   8.437 -0.0090 -0.0830  0.0242
  608ERGO    C2 8908   1.739   2.914   8.115  0.0855  0.0606  0.4169
  609ERGO   ROH 8909   5.376  17.214   9.524  0.0229 -0.0370 -0.0688
  609ERGO    R1 8910   5.470  17.397   9.329  0.0015 -0.0068 -0.0512
  609ERGO    R2 8911   5.619  17.318   9.111  0.0707  0.0409 -0.0221
  609ERGO    R3 8912   5.426  17.448   8.971  0.0548 -0.0233 -0.0600
  609ERGO    R4 8913   5.666  17.471   8.805  0.0396 -0.0824 -0.0891
  609ERGO    R5 8914   5.539  17.635   8.873  0.0394 -0.0590 -0.1460
  609ERGO    C1 8915   5.511  17.683   8.496  0.0065 -0.2143 -0.1639
  609ERGO    C2 8916   5.474  17.542   8.211 -0.0809 -0.0928 -0.0511
  610ERGO   ROH 8917  15.939  10.939   9.961  0.0249  0.0480 -0.0340
  610ERGO    R1 8918  15.944  10.929   9.678  0.1172 -0.0441 -0.0308
  610ERGO    R2 8919  15.964  11.157   9.522  0.0642 -0.0837 -0.1015
  610ERGO    R3 8920  16.176  11.025   9.415  0.1583 -0.0271  0.0128
  610ERGO    R4 8921  16.033  11.135   9.184  0.1993 -0.1620 -0.0694
  610ERGO    R5 8922  16.090  10.927   9.214  0.2762 -0.1255  0.0129
  610ERGO    C1 8923  16.272  10.999   8.887  0.3662 -0.1546  0.0568
  610ERGO    C2 8924  16.544  10.938   8.747  0.0873  0.1000 -0.0603
  611ERGO   ROH 8925   8.079   7.170   7.153 -0.2157  0.1102 -0.0475
  611ERGO    R1 8926   8.082   7.299   7.406 -0.3024  0.2617 -0.1223
  611ERGO    R2 8927   8.278   7.251   7.595 -0.5933  0.0552  0.1363
  611ERGO    R3 8928   8.306   7.521   7.586 -0.1454  0.0117 -0.0041
  611ERGO    R4 8929   8.472   7.437   7.812 -0.2868 -0.1477  0.0421
  611ERGO    R5 8930   8.315   7.588   7.816 -0.0413  0.1181 -0.0379
  611ERGO    C1 8931   8.612   7.798   7.931  0.3121 -0.3066 -0.1445
  611ERGO    C2 8932   8.853   7.902   7.810 -0.0196  0.0792 -0.0022
  612ERGO   ROH 8933   3.316   1.145  10.013  0.0685  0.2041  0.0734
  612ERGO    R1 8934   3.464   1.242   9.792  0.0096  0.2294  0.0456
  612ERGO    R2 8935   3.604   1.076   9.622  0.1896  0.2720  0.1539
  612ERGO    R3 8936   3.457   1.202   9.430  0.1006  0.0371  0.0638
  612ERGO    R4 8937   3.708   1.128   9.297  0.2314  0.2714  0.1667
  612ERGO    R5 8938   3.619   1.327   9.305 -0.0003  0.1775  0.0682
  612ERGO    C1 8939   3.632   1.275   8.927  0.1722  0.0506  0.0895
  612ERGO    C2 8940   3.564   1.253   8.629 -0.1633 -0.3034  0.0635
  613ERGO   ROH 8941   0.402   9.021   9.770 -0.3494 -0.0632 -0.0893
  613ERGO    R1 8942   0.475   8.957   9.504 -0.2290 -0.1654 -0.0328
  613ERGO    R2 8943   0.292   8.869   9.317 -0.1690 -0.1141 -0.1185
  613ERGO    R3 8944   0.390   9.076   9.171  0.0252 -0.1996 -0.1110
  613ERGO    R4 8945   0.301   8.880   8.972 -0.0497 -0.1571 -0.1167
  613ERGO    R5 8946   0.499   8.971   8.985  0.0106 -0.2962 -0.0644
  613ERGO    C1 8947   0.399   9.080   8.633  0.2019 -0.2623 -0.1089
  613ERGO    C2 8948   0.400   9.175   8.275  0.0430  0.0890 -0.0461
  614ERGO   ROH 8949   1.832  13.020   9.642 -0.0352  0.1277 -0.0231
  614ERGO    R1 8950   1.742  13.034   9.374 -0.0555  0.1807 -0.0134
  614ERGO    R2 8951   1.816  13.237   9.203  0.1325  0.0809 -0.0520
  614ERGO    R3 8952   1.894  13.031   9.044 -0.0985 -0.0244 -0.0333
  614ERGO    R4 8953   1.738  13.207   8.867  0.1242  0.1568 -0.0572
  614ERGO    R5 8954   1.706  12.993   8.899 -0.1349  0.1925 -0.0475
  614ERGO    C1 8955   1.766  12.996   8.523 -0.0976  0.1021 -0.0426
  614ERGO    C2 8956   1.838  13.144   8.213 -0.2088  0.0034  0.4292
  615ERGO   ROH 8957  12.469   4.295   9.648  0.0611 -0.1279  0.0577
  615ERGO    R1 8958  12.587   4.096   9.485  0.0032 -0.1102 -0.0052
  615ERGO    R2 8959  12.454   3.866   9.412 -0.0965 -0.0014 -0.1574
  615ERGO    R3 8960  12.520   3.945   9.161  0.0206  0.0833 -0.1014
  615ERGO    R4 8961  12.459   3.659   9.135 -0.0578  0.1049 -0.2371
  615ERGO    R5 8962  12.642   3.760   9.070  0.0003  0.0797 -0.1296
  615ERGO    C1 8963  12.524   3.614   8.737  0.0748  0.2464 -0.2310
  615ERGO    C2 8964  12.460   3.550   8.406 -0.1584  0.1587 -0.1280
  616ERGO   ROH 8965   6.143   1.399   9.893  0.0952  0.1099 -0.0503
  616ERGO    R1 8966   6.001   1.481   9.663  0.1183  0.1123 -0.0639
  616ERGO    R2 8967   6.116   1.485   9.411  0.0928 -0.0487 -0.0802
  616ERGO    R3 8968   5.902   1.331   9.346 -0.0087  0.0567  0.0021
  616ERGO    R4 8969   5.989   1.448   9.092  0.0910 -0.1626 -0.0665
  616ERGO    R5 8970   5.788   1.456   9.176  0.0896  0.0285 -0.0848
  616ERGO    C1 8971   5.714   1.283   8.845 -0.0053 -0.1300  0.0185
  616ERGO    C2 8972   5.563   1.044   8.719 -0.0049  0.1882  0.0865
  617ERGO   ROH 8973   3.673  15.787   9.602 -0.0676 -0.1323 -0.1051
  617ERGO    R1 8974   3.857  15.818   9.389  0.0134  0.0815 -0.0087
  617ERGO    R2 8975   3.801  15.737   9.131  0.3087 -0.1559 -0.0123
  617ERGO    R3 8976   3.866  15.994   9.071 -0.1108 -0.0624 -0.0908
  617ERGO    R4 8977   3.810  15.871   8.812  0.2398 -0.2691 -0.0607
  617ERGO    R5 8978   3.991  15.979   8.867  0.0208  0.0716 -0.0158
  617ERGO    C1 8979   3.876  16.189   8.571 -0.1941 -0.2472 -0.1626
  617ERGO    C2 8980   3.680  16.493   8.398 -0.1571  0.0419  0.0747
  618ERGO   ROH 8981  10.427   6.940   9.519 -0.1898  0.0819 -0.0641
  618ERGO    R1 8982  10.421   7.024   9.249 -0.1802 -0.0653 -0.1110
  618ERGO    R2 8983  10.565   7.243   9.158 -0.3000 -0.0201 -0.1913
  618ERGO    R3 8984  10.662   7.062   8.979 -0.1398 -0.0529 -0.0738
  618ERGO    R4 8985  10.664   7.317   8.835 -0.2518 -0.1193 -0.1997
  618ERGO    R5 8986  10.572   7.132   8.769 -0.1225 -0.2102 -0.1356
  618ERGO    C1 8987  10.814   7.191   8.480 -0.0734 -0.2078 -0.0944
  618ERGO    C2 8988  10.893   7.144   8.096  0.1875 -0.1552 -0.5583
  619ERGO   ROH 8989   4.210   6.277   9.897  0.0477 -0.0486  0.0989
  619ERGO    R1 8990   4.354   6.317   9.657 -0.1478  0.0289 -0.0078
  619ERGO    R2 8991   4.531   6.130   9.556  0.0481  0.2147 -0.0189
  619ERGO    R3 8992   4.378   6.153   9.333 -0.1220 -0.1009  0.0595
  619ERGO    R4 8993   4.646   6.087   9.233 -0.0818  0.2396 -0.0687
  619ERGO    R5 8994   4.523   6.256   9.172 -0.3631  0.0395 -0.0725
  619ERGO    C1 8995   4.569   6.083   8.835 -0.3171 -0.0421 -0.0240
  619ERGO    C2 8996   4.593   6.083   8.559 -0.1502 -0.2718  0.2316
  620ERGO   ROH 8997  11.270   1.464   6.472  0.1986  0.0113  0.0242
  620ERGO    R1 8998  11.164   1.485   6.733  0.2608 -0.1474  0.0641
  620ERGO    R2 8999  11.297   1.615   6.937  0.1758 -0.0046  0.0343
  620ERGO    R3 9000  11.064   1.754   6.957  0.0087 -0.2897  0.1247
  620ERGO    R4 9001  11.190   1.781   7.221  0.2771  0.2013 -0.0462
  620ERGO    R5 9002  10.987   1.710   7.180  0.3200 -0.1220  0.2686
  620ERGO    C1 9003  10.909   2.008   7.405  0.1791  0.0536 -0.0082
  620ERGO    C2 9004  10.740   2.315   7.504 -0.0516 -0.2963  0.3872
  621ERGO   ROH 9005   2.360   7.099   5.606  0.0258  0.0542  0.0681
  621ERGO    R1 9006   2.381   7.159   5.882  0.0129 -0.0346  0.0886
  621ERGO    R2 9007   2.170   7.259   6.029  0.0158 -0.0506  0.1032
  621ERGO    R3 9008   2.223   7.046   6.190 -0.0267 -0.1082  0.0416
  621ERGO    R4 9009   2.095   7.241   6.366 -0.0712 -0.1688  0.0786
  621ERGO    R5 9010   2.287   7.143   6.399 -0.0796 -0.1817  0.0930
  621ERGO    C1 9011   2.102   7.032   6.713 -0.1618 -0.2916  0.0063
  621ERGO    C2 9012   2.029   6.994   7.136  0.0292  0.1426 -0.0851
  622ERGO   ROH 9013   6.499  13.356   9.967 -0.3004 -0.0849 -0.0966
  622ERGO    R1 9014   6.595  13.219   9.740 -0.1038 -0.0225 -0.0525
  622ERGO    R2 9015   6.445  13.188   9.510  0.0276 -0.1154 -0.1216
  622ERGO    R3 9016   6.663  13.298   9.391  0.0147  0.0199 -0.0221
  622ERGO    R4 9017   6.505  13.185   9.170  0.2097 -0.1554 -0.0901
  622ERGO    R5 9018   6.716  13.146   9.213  0.2225  0.0093  0.0399
  622ERGO    C1 9019   6.745  13.287   8.860  0.3037 -0.0519  0.0217
  622ERGO    C2 9020   6.774  13.210   8.441 -0.1511  0.0326  0.0547
  623ERGO   ROH 9021  11.320   8.768   6.128  0.3264 -0.0961 -0.0596
  623ERGO    R1 9022  11.208   8.806   6.385  0.2244 -0.1131 -0.1014
  623ERGO    R2 9023  11.190   8.602   6.571  0.2606 -0.0946 -0.0812
  623ERGO    R3 9024  11.323   8.779   6.729  0.1242 -0.0103 -0.0585
  623ERGO    R4 9025  11.106   8.678   6.898  0.2007 -0.2089 -0.0694
  623ERGO    R5 9026  11.151   8.887   6.856  0.0361 -0.1635 -0.0418
  623ERGO    C1 9027  11.181   8.888   7.236  0.0379 -0.1960 -0.0411
  623ERGO    C2 9028  11.253   8.810   7.633  0.2982 -0.1676 -0.0876
  624ERGO   ROH 9029   6.654  18.254  10.107  0.3527  0.2280  0.1126
  624ERGO    R1 9030   6.774  18.164   9.867  0.2046  0.1528  0.0654
  624ERGO    R2 9031   6.700  18.259   9.618  0.1407  0.1707  0.0897
  624ERGO    R3 9032   6.966  18.311   9.596  0.1569  0.0421 -0.0288
  624ERGO    R4 9033   6.854  18.381   9.334  0.0692  0.1407  0.0379
  624ERGO    R5 9034   7.021  18.246   9.372  0.0195  0.0523 -0.0647
  624ERGO    C1 9035   7.193  18.501   9.147  0.0428  0.0023 -0.1036
  624ERGO    C2 9036   7.556  18.670   9.039 -0.0766  0.4499 -0.3365
  625ERGO   ROH 9037   2.400  17.026   6.085  0.1677  0.2232  0.0437
  625ERGO    R1 9038   2.509  17.011   6.346  0.0979  0.2402  0.0738
  625ERGO    R2 9039   2.537  17.232   6.509  0.0458  0.2478  0.0691
  625ERGO    R3 9040   2.396  17.080   6.685  0.0052  0.2526  0.0411
  625ERGO    R4 9041   2.537  17.275   6.852  0.2487  0.0381  0.0980
  625ERGO    R5 9042   2.540  17.058   6.874  0.0828  0.0170 -0.0398
  625ERGO    C1 9043   2.404  17.157   7.216  0.3286 -0.0794  0.0885
  625ERGO    C2 9044   2.524  17.067   7.578  0.1597  0.0367 -0.0544
  626ERGO   ROH 9045   8.373   8.210   5.654 -0.2145  0.1433 -0.0174
  626ERGO    R1 9046   8.384   8.340   5.905 -0.0882  0.0724  0.0142
  626ERGO    R2 9047   8.167   8.353   6.076 -0.1044  0.3182 -0.0245
  626ERGO    R3 9048   8.342   8.245   6.254 -0.2757  0.0462 -0.0141
  626ERGO    R4 9049   8.170   8.420   6.415 -0.1264  0.1845  0.0031
  626ERGO    R5 9050   8.388   8.423   6.407 -0.1152 -0.0617  0.0683
  626ERGO    C1 9051   8.335   8.358   6.779 -0.3000 -0.1487  0.0289
  626ERGO    C2 9052   8.337   8.321   7.128  0.2313  0.0676  0.1360
  627ERGO   ROH 9053   5.035   2.988   9.855  0.1114  0.1370  0.0174
  627ERGO    R1 9054   5.147   2.892   9.614  0.0826  0.0590  0.0340
  627ERGO    R2 9055   5.097   2.639   9.517  0.0661  0.0276  0.1177
  627ERGO    R3 9056   5.022   2.773   9.293  0.0427 -0.0384  0.0863
  627ERGO    R4 9057   5.060   2.496   9.205  0.0347 -0.0599  0.1616
  627ERGO    R5 9058   5.152   2.673   9.118  0.0236 -0.0862  0.1015
  627ERGO    C1 9059   4.967   2.539   8.813 -0.0055 -0.1728  0.1576
  627ERGO    C2 9060   4.999   2.371   8.508  0.0284 -0.1591  0.0837
  628ERGO   ROH 9061   4.645   8.035  10.016  0.1049 -0.0532 -0.0502
  628ERGO    R1 9062   4.643   8.138   9.752  0.1718 -0.0796 -0.0598
  628ERGO    R2 9063   4.825   8.058   9.560  0.0681 -0.2768 -0.0700
  628ERGO    R3 9064   4.600   8.005   9.416 -0.0017 -0.0725 -0.0432
  628ERGO    R4 9065   4.790   8.112   9.220  0.0993 -0.2835 -0.0754
  628ERGO    R5 9066   4.588   8.183   9.257  0.1667 -0.0735 -0.0656
  628ERGO    C1 9067   4.560   8.093   8.888  0.0520 -0.0958 -0.0534
  628ERGO    C2 9068   4.484   7.974   8.676 -0.0140 -0.0622  0.1594
  629ERGO   ROH 9069  13.755  11.985  10.135 -0.0258 -0.0165  0.0930
  629ERGO    R1 9070  13.904  12.028   9.898  0.0037  0.1786  0.1462
  629ERGO    R2 9071  13.854  11.890   9.664  0.3139  0.0593  0.1500
  629ERGO    R3 9072  13.833  12.139   9.559 -0.0368  0.0142  0.0990
  629ERGO    R4 9073  13.830  11.960   9.327  0.4238 -0.0381  0.1207
  629ERGO    R5 9074  13.963  12.130   9.358  0.1215  0.1979  0.1874
  629ERGO    C1 9075  13.796  12.235   9.031  0.1587 -0.1370  0.0557
  629ERGO    C2 9076  13.571  12.329   8.735  0.0108  0.0289 -0.1076
  630ERGO   ROH 9077  13.493   8.871   6.171  0.0404  0.1994  0.0716
  630ERGO    R1 9078  13.580   8.896   6.439  0.0249 -0.0512  0.1028
  630ERGO    R2 9079  13.502   9.105   6.602  0.2960 -0.0068  0.1828
  630ERGO    R3 9080  13.424   8.904   6.768 -0.0332  0.0246  0.0734
  630ERGO    R4 9081  13.504   9.122   6.947  0.1896 -0.1510  0.1911
  630ERGO    R5 9082  13.577   8.917   6.952 -0.0831 -0.2525  0.1371
  630ERGO    C1 9083  13.432   8.943   7.304 -0.1812 -0.2056  0.0934
  630ERGO    C2 9084  13.340   8.904   7.678 -0.1623  0.0986  0.2308
  631ERGO   ROH 9085   8.403   3.981   9.758  0.0915  0.2160  0.0289
  631ERGO    R1 9086   8.357   4.059   9.490  0.2983  0.1086 -0.0416
  631ERGO    R2 9087   8.454   3.915   9.274  0.1367 -0.2078  0.0748
  631ERGO    R3 9088   8.193   3.917   9.197  0.1524  0.1630  0.0179
  631ERGO    R4 9089   8.338   3.809   8.967 -0.0076 -0.3606  0.1813
  631ERGO    R5 9090   8.200   3.978   8.966  0.2960 -0.1220 -0.0451
  631ERGO    C1 9091   8.026   3.749   8.715 -0.0767 -0.1015  0.1897
  631ERGO    C2 9092   7.973   3.649   8.337 -0.0752 -0.0357  0.0736
  632ERGO   ROH 9093  16.615  12.686  10.428 -0.0301  0.1071 -0.0575
  632ERGO    R1 9094  16.538  12.529  10.205  0.0108  0.0582 -0.0375
  632ERGO    R2 9095  16.356  12.616  10.017 -0.0301 -0.0211 -0.0383
  632ERGO    R3 9096  16.556  12.556   9.843 -0.0169  0.0290 -0.0407
  632ERGO    R4 9097  16.317  12.578   9.675 -0.0246 -0.0520 -0.0354
  632ERGO    R5 9098  16.454  12.409   9.683  0.0249 -0.0094 -0.0302
  632ERGO    C1 9099  16.482  12.499   9.314 -0.0088 -0.0230 -0.0359
  632ERGO    C2 9100  16.366  12.500   9.036 -0.3000 -0.0509  0.0847
  633ERGO   ROH 9101   4.140   4.770   9.903 -0.1312 -0.1229 -0.1516
  633ERGO    R1 9102   4.247   4.901   9.676  0.0808 -0.1766 -0.0845
  633ERGO    R2 9103   4.395   4.769   9.484 -0.1454 -0.3249 -0.1597
  633ERGO    R3 9104   4.212   4.876   9.314  0.0221  0.0767 -0.0985
  633ERGO    R4 9105   4.452   4.841   9.151 -0.0349 -0.2414 -0.1234
  633ERGO    R5 9106   4.338   5.025   9.176  0.2711 -0.0571 -0.0222
  633ERGO    C1 9107   4.313   4.984   8.798  0.1866  0.1844 -0.0447
  633ERGO    C2 9108   4.364   4.990   8.469 -0.0398  0.0223  0.4403
  634ERGO   ROH 9109  12.784  11.980   6.321  0.1472  0.0151 -0.0319
  634ERGO    R1 9110  12.870  11.988   6.590  0.0151 -0.1216  0.0153
  634ERGO    R2 9111  12.942  12.222   6.717  0.2870 -0.2274  0.0619
  634ERGO    R3 9112  12.757  12.143   6.900  0.0703  0.0291 -0.0392
  634ERGO    R4 9113  12.909  12.355   7.034  0.2263 -0.1101  0.0073
  634ERGO    R5 9114  12.873  12.154   7.109 -0.0561 -0.0529  0.0360
  634ERGO    C1 9115  12.716  12.358   7.391 -0.0126  0.1992 -0.1195
  634ERGO    C2 9116  12.513  12.692   7.479 -0.2844  0.0929 -0.1661
  635ERGO   ROH 9117  11.359   3.551   9.707 -0.1196  0.4744 -0.1826
  635ERGO    R1 9118  11.417   3.607   9.435  0.1555  0.2485 -0.1758
  635ERGO    R2 9119  11.604   3.464   9.291  0.0805 -0.0842  0.0389
  635ERGO    R3 9120  11.396   3.428   9.119  0.1536  0.0943 -0.0889
  635ERGO    R4 9121  11.628   3.314   8.981  0.1361 -0.1172  0.0597
  635ERGO    R5 9122  11.492   3.464   8.902  0.3190  0.0011 -0.0315
  635ERGO    C1 9123  11.448   3.192   8.639  0.2371  0.0311 -0.0482
  635ERGO    C2 9124  11.390   3.091   8.288  0.2962 -0.1049  0.1252
  636ERGO   ROH 9125  12.413   0.183   9.925 -0.1685  0.0899 -0.0281
  636ERGO    R1 9126  12.561   0.151   9.686 -0.1456  0.0226 -0.0056
  636ERGO    R2 9127  12.482  -0.021   9.484 -0.1583  0.0088  0.0088
  636ERGO    R3 9128  12.502   0.202   9.330 -0.0918 -0.0170 -0.0198
  636ERGO    R4 9129  12.457  -0.016   9.140 -0.2583 -0.0113  0.0159
  636ERGO    R5 9130  12.620   0.129   9.135 -0.1874 -0.0945 -0.0475
  636ERGO    C1 9131  12.461   0.196   8.794 -0.2542 -0.0475 -0.0070
  636ERGO    C2 9132  12.205   0.109   8.569 -0.2258 -0.2695 -0.3488
  637ERGO   ROH 9133  16.454   6.847   9.869  0.0148 -0.1335 -0.0718
  637ERGO    R1 9134  16.327   6.807   9.619  0.0926 -0.0586 -0.1233
  637ERGO    R2 9135  16.440   6.890   9.380  0.2257 -0.0981 -0.0751
  637ERGO    R3 9136  16.401   6.630   9.310  0.1284 -0.0770 -0.1037
  637ERGO    R4 9137  16.435   6.772   9.055  0.2076 -0.0705 -0.0854
  637ERGO    R5 9138  16.269   6.641   9.110  0.1516 -0.0087 -0.1138
  637ERGO    C1 9139  16.397   6.460   8.800  0.1060 -0.0347 -0.1184
  637ERGO    C2 9140  16.343   6.267   8.528  0.2143 -0.0584 -0.0388
  638ERGO   ROH 9141   1.799  15.761   6.168  0.0022 -0.0936  0.0817
  638ERGO    R1 9142   1.852  15.789   6.445  0.0507 -0.1866  0.0822
  638ERGO    R2 9143   1.691  15.938   6.612  0.3470  0.1662  0.0665
  638ERGO    R3 9144   1.682  15.707   6.756 -0.1418  0.1828  0.0798
  638ERGO    R4 9145   1.636  15.921   6.953  0.3069  0.2998  0.0672
  638ERGO    R5 9146   1.787  15.764   6.964 -0.0192 -0.0266  0.0771
  638ERGO    C1 9147   1.596  15.695   7.287 -0.1754  0.3933  0.0802
  638ERGO    C2 9148   1.532  15.635   7.629 -0.0647 -0.1120 -0.1332
  639ERGO   ROH 9149  11.926   5.629   5.816  0.0515  0.1139  0.0213
  639ERGO    R1 9150  12.069   5.604   6.059  0.1221  0.1910 -0.0103
  639ERGO    R2 9151  12.071   5.802   6.251 -0.0012  0.1665  0.0254
  639ERGO    R3 9152  11.989   5.600   6.414  0.1919  0.0689  0.0032
  639ERGO    R4 9153  12.141   5.781   6.589  0.0705  0.1533  0.0088
  639ERGO    R5 9154  12.173   5.566   6.563  0.2404  0.1881 -0.0351
  639ERGO    C1 9155  12.105   5.579   6.938  0.2934  0.0540 -0.0217
  639ERGO    C2 9156  12.193   5.670   7.245 -0.1708  0.0001 -0.0235
  640ERGO   ROH 9157   0.823  14.103   5.911 -0.1654 -0.0545  0.0219
  640ERGO    R1 9158   0.696  14.074   6.163 -0.0378 -0.0193  0.0901
  640ERGO    R2 9159   0.832  13.990   6.389  0.1071  0.1440  0.0630
  640ERGO    R3 9160   0.732  14.220   6.495  0.0333  0.1341  0.0170
  640ERGO    R4 9161   0.861  14.083   6.720 -0.0498  0.1462  0.0773
  640ERGO    R5 9162   0.656  14.156   6.713 -0.0574  0.1240 -0.0154
  640ERGO    C1 9163   0.784  14.352   7.013 -0.2105  0.1383  0.0424
  640ERGO    C2 9164   0.947  14.510   7.333 -0.0817 -0.0460  0.1556
  641ERGO   ROH 9165  14.783   2.127  10.125  0.0226  0.0496  0.0651
  641ERGO    R1 9166  14.630   2.102   9.889  0.1473 -0.1269  0.0008
  641ERGO    R2 9167  14.492   2.314   9.778 -0.3397 -0.3538  0.1429
  641ERGO    R3 9168  14.633   2.247   9.555 -0.0996  0.1687  0.1218
  641ERGO    R4 9169  14.356   2.271   9.463 -0.1737 -0.5630  0.0972
  641ERGO    R5 9170  14.487   2.099   9.435  0.3273 -0.1871  0.0144
  641ERGO    C1 9171  14.408   2.182   9.071  0.1483 -0.1943  0.0508
  641ERGO    C2 9172  14.329   2.143   8.736 -0.0090 -0.2644 -0.0790
  642ERGO   ROH 9173   6.444   3.429   9.682 -0.2614  0.2428 -0.0798
  642ERGO    R1 9174   6.359   3.427   9.412 -0.0288  0.3149 -0.1567
  642ERGO    R2 9175   6.506   3.543   9.209  0.4166 -0.0856 -0.0852
  642ERGO    R3 9176   6.485   3.296   9.097 -0.0214 -0.0999  0.0123
  642ERGO    R4 9177   6.489   3.480   8.869  0.4482 -0.2020 -0.0653
  642ERGO    R5 9178   6.339   3.328   8.909  0.1235  0.1083 -0.0659
  642ERGO    C1 9179   6.460   3.212   8.567  0.0554 -0.2832  0.0378
  642ERGO    C2 9180   6.455   3.409   8.233  0.0947  0.0657  0.0592
  643ERGO   ROH 9181   6.309   9.639   9.673  0.0889 -0.0247 -0.0535
  643ERGO    R1 9182   6.179   9.687   9.426  0.0521 -0.0261 -0.0350
  643ERGO    R2 9183   6.277   9.865   9.239 -0.0331  0.0561 -0.0066
  643ERGO    R3 9184   6.260   9.649   9.074  0.0457  0.0815 -0.0473
  643ERGO    R4 9185   6.242   9.882   8.895  0.1550  0.1015 -0.0245
  643ERGO    R5 9186   6.101   9.715   8.907  0.1420  0.1096 -0.1252
  643ERGO    C1 9187   6.205   9.690   8.540  0.3384  0.1518 -0.0731
  643ERGO    C2 9188   6.089   9.433   8.267 -0.0533 -0.0035 -0.1299
  644ERGO   ROH 9189  16.379  16.533  10.149 -0.0880  0.2492 -0.0458
  644ERGO    R1 9190  16.309  16.415   9.901  0.0068  0.1328 -0.0188
  644ERGO    R2 9191  16.051  16.419   9.802  0.0111 -0.0433 -0.0527
  644ERGO    R3 9192  16.171  16.528   9.584 -0.0209 -0.0398 -0.0675
  644ERGO    R4 9193  15.908  16.441   9.489 -0.1213  0.1890  0.0224
  644ERGO    R5 9194  16.101  16.389   9.402 -0.2048  0.0886 -0.0920
  644ERGO    C1 9195  15.937  16.557   9.101 -0.2285  0.3275  0.0522
  644ERGO    C2 9196  15.810  16.626   8.789 -0.1199 -0.1513  0.0815
  645ERGO   ROH 9197   9.723   2.424   7.899 -0.1281 -0.1661 -0.0773
  645ERGO    R1 9198   9.819   2.525   7.652 -0.1134  0.0593  0.0188
  645ERGO    R2 9199   9.862   2.363   7.432  0.1418  0.2179 -0.0485
  645ERGO    R3 9200   9.698   2.542   7.309  0.0241  0.1268 -0.0273
  645ERGO    R4 9201   9.839   2.407   7.090  0.1416  0.2655 -0.0430
  645ERGO    R5 9202   9.827   2.622   7.124 -0.0140  0.2536 -0.0019
  645ERGO    C1 9203   9.672   2.600   6.776  0.0309  0.2078 -0.0198
  645ERGO    C2 9204   9.822   2.369   6.473  0.2471  0.0175 -0.2835
  646ERGO   ROH 9205   9.148  14.625   6.561 -0.1913  0.2315  0.1470
  646ERGO    R1 9206   9.241  14.624   6.828 -0.0389  0.1777  0.0950
  646ERGO    R2 9207   9.246  14.851   6.986  0.0905  0.1576  0.1273
  646ERGO    R3 9208   9.103  14.696   7.157  0.1587  0.1569  0.1828
  646ERGO    R4 9209   9.192  14.922   7.319 -0.0580  0.3177  0.0702
  646ERGO    R5 9210   9.221  14.712   7.364  0.0860  0.3694  0.2069
  646ERGO    C1 9211   9.026  14.818   7.675 -0.0804  0.4103  0.0891
  646ERGO    C2 9212   8.837  14.998   8.025 -0.1344  0.2429 -0.1401
  647ERGO   ROH 9213  12.510  17.930   6.492 -0.1335  0.0044 -0.0247
  647ERGO    R1 9214  12.596  18.061   6.727  0.0319 -0.0997 -0.0261
  647ERGO    R2 9215  12.442  18.075   6.956  0.0946 -0.0003  0.0105
  647ERGO    R3 9216  12.663  17.968   7.073  0.0340 -0.2034 -0.0538
  647ERGO    R4 9217  12.534  18.127   7.285  0.2175 -0.1169 -0.0046
  647ERGO    R5 9218  12.742  18.142   7.218  0.2170 -0.2859 -0.0516
  647ERGO    C1 9219  12.796  18.057   7.586  0.2320 -0.3754 -0.0739
  647ERGO    C2 9220  12.801  18.133   7.853 -0.1097  0.0274 -0.1217
  648ERGO   ROH 9221  16.179   9.188   6.044 -0.0465 -0.0690 -0.2116
  648ERGO    R1 9222  16.124   9.186   6.322 -0.0161  0.0738 -0.2039
  648ERGO    R2 9223  15.867   9.189   6.424 -0.0068  0.0225 -0.1788
  648ERGO    R3 9224  15.952   8.967   6.557  0.1036  0.1379 -0.0540
  648ERGO    R4 9225  15.809   9.124   6.758 -0.0148  0.1610 -0.1530
  648ERGO    R5 9226  16.012   9.047   6.774  0.0287  0.2853 -0.0857
  648ERGO    C1 9227  15.854   8.879   7.077  0.0842  0.3501 -0.0207
  648ERGO    C2 9228  15.967   8.800   7.447  0.0850 -0.3714 -0.1552
  649ERGO   ROH 9229  17.329  16.325   9.826  0.1089  0.0072 -0.1242
  649ERGO    R1 9230  17.203  16.418   9.590  0.0926  0.0214 -0.1110
  649ERGO    R2 9231  17.316  16.611   9.428  0.0759  0.0444 -0.1014
  649ERGO    R3 9232  17.280  16.423   9.234  0.0786  0.0563 -0.1126
  649ERGO    R4 9233  17.338  16.671   9.088 -0.0724  0.0926 -0.1027
  649ERGO    R5 9234  17.166  16.540   9.059 -0.0298  0.0313 -0.0565
  649ERGO    C1 9235  17.318  16.530   8.709 -0.1560  0.1323 -0.1139
  649ERGO    C2 9236  17.366  16.406   8.408 -0.0835  0.1444 -0.1483
  650ERGO   ROH 9237  10.398  10.073   5.718  0.0437  0.0582  0.0221
  650ERGO    R1 9238  10.489   9.934   5.948 -0.0426 -0.0538 -0.0101
  650ERGO    R2 9239  10.582  10.064   6.173  0.0961 -0.1639 -0.0007
  650ERGO    R3 9240  10.394   9.913   6.298 -0.0175 -0.0265 -0.0020
  650ERGO    R4 9241  10.537  10.047   6.515  0.1505 -0.2137  0.0040
  650ERGO    R5 9242  10.504   9.833   6.496 -0.0490 -0.1788 -0.0456
  650ERGO    C1 9243  10.334   9.895   6.832  0.0758 -0.1137  0.0056
  650ERGO    C2 9244  10.460   9.976   7.245  0.2961 -0.2023  0.0165
  651ERGO   ROH 9245   6.681   2.999   5.652  0.2019 -0.1778  0.0780
  651ERGO    R1 9246   6.570   3.169   5.849  0.0015 -0.2609  0.0395
  651ERGO    R2 9247   6.478   3.074   6.092  0.1915 -0.3062  0.0974
  651ERGO    R3 9248   6.648   3.261   6.192 -0.0490 -0.0212 -0.0124
  651ERGO    R4 9249   6.475   3.188   6.418  0.2114 -0.3065  0.0976
  651ERGO    R5 9250   6.512   3.390   6.343 -0.1676 -0.2412  0.0707
  651ERGO    C1 9251   6.632   3.430   6.702 -0.0029 -0.0392 -0.0054
  651ERGO    C2 9252   6.633   3.491   7.072  0.0739 -0.0385  0.0825
  652ERGO   ROH 9253  11.729  14.140  10.499  0.2905  0.0282  0.0096
  652ERGO    R1 9254  11.729  14.006  10.249  0.2784  0.0609 -0.0072
  652ERGO    R2 9255  11.516  14.019  10.074  0.2228 -0.0107  0.0574
  652ERGO    R3 9256  11.707  14.101   9.899  0.1358  0.0966  0.0104
  652ERGO    R4 9257  11.505  13.971   9.732  0.0421  0.2167  0.0284
  652ERGO    R5 9258  11.718  13.926   9.736  0.0435  0.2031 -0.1126
  652ERGO    C1 9259  11.678  14.021   9.368 -0.1447  0.4498 -0.0325
  652ERGO    C2 9260  11.577  14.186   9.054 -0.0734  0.2467 -0.0744
  653ERGO   ROH 9261   8.294  12.507   5.824 -0.1279 -0.1717  0.0199
  653ERGO    R1 9262   8.267  12.616   6.084  0.0057 -0.2474  0.0679
  653ERGO    R2 9263   8.109  12.836   6.137  0.2852 -0.0534  0.1584
  653ERGO    R3 9264   7.996  12.671   6.321  0.0625  0.0026  0.0740
  653ERGO    R4 9265   7.989  12.937   6.445  0.1889 -0.0268  0.1117
  653ERGO    R5 9266   8.074  12.756   6.532  0.0042 -0.0959  0.1285
  653ERGO    C1 9267   7.814  12.841   6.797 -0.0762  0.0412  0.0052
  653ERGO    C2 9268   7.631  13.124   6.913 -0.1791  0.2108  0.0981
  654ERGO   ROH 9269   7.182   4.237   9.681  0.1010  0.1190 -0.0390
  654ERGO    R1 9270   7.149   4.248   9.400  0.1473 -0.1408 -0.0578
  654ERGO    R2 9271   7.194   4.478   9.255 -0.3925 -0.1023 -0.1899
  654ERGO    R3 9272   7.361   4.317   9.112  0.0654  0.2160 -0.0358
  654ERGO    R4 9273   7.265   4.516   8.919 -0.3961 -0.1498 -0.1957
  654ERGO    R5 9274   7.256   4.299   8.897  0.1638 -0.1991 -0.0550
  654ERGO    C1 9275   7.462   4.388   8.589  0.0317  0.1214 -0.0543
  654ERGO    C2 9276   7.364   4.625   8.297  0.0711 -0.2478 -0.0549
  655ERGO   ROH 9277  14.105  16.939   6.317  0.0740 -0.1835  0.0547
  655ERGO    R1 9278  14.190  16.901   6.584 -0.0775 -0.1573  0.1081
  655ERGO    R2 9279  14.027  16.954   6.800 -0.1818 -0.0776  0.0147
  655ERGO    R3 9280  14.087  16.697   6.868 -0.2814 -0.0814  0.0898
  655ERGO    R4 9281  14.070  16.840   7.124  0.0093  0.0496  0.0351
  655ERGO    R5 9282  14.238  16.718   7.053 -0.1203 -0.0832 -0.0407
  655ERGO    C1 9283  14.152  16.533   7.376  0.0271  0.1199  0.1174
  655ERGO    C2 9284  14.118  16.572   7.775 -0.0048 -0.1343 -0.3709
  656ERGO   ROH 9285   8.994   5.932   9.867 -0.0403  0.2074 -0.1645
  656ERGO    R1 9286   8.903   5.842   9.614 -0.0896  0.1272 -0.1191
  656ERGO    R2 9287   8.795   6.013   9.426 -0.0071  0.0888 -0.2030
  656ERGO    R3 9288   8.986   5.905   9.265 -0.0631 -0.0873 -0.1529
  656ERGO    R4 9289   8.771   5.984   9.082  0.0555  0.1141 -0.2092
  656ERGO    R5 9290   8.863   5.787   9.097 -0.1298  0.0273 -0.1857
  656ERGO    C1 9291   8.937   5.866   8.732  0.0393 -0.0366 -0.1656
  656ERGO    C2 9292   9.136   5.894   8.442  0.2844  0.1015  0.0188
  657ERGO   ROH 9293   9.983   6.861   5.718  0.0460 -0.2962  0.0804
  657ERGO    R1 9294   9.993   6.968   5.980  0.2688 -0.1007 -0.0042
  657ERGO    R2 9295   9.837   6.871   6.186  0.0608  0.3853  0.0803
  657ERGO    R3 9296  10.077   6.845   6.312  0.0182 -0.0122  0.0941
  657ERGO    R4 9297   9.879   6.839   6.528 -0.0113  0.2935  0.0812
  657ERGO    R5 9298  10.052   6.971   6.514  0.2081  0.0184  0.1013
  657ERGO    C1 9299  10.128   6.797   6.845 -0.0933 -0.1331  0.0945
  657ERGO    C2 9300  10.048   6.797   7.215 -0.0899 -0.0130 -0.0260
  658ERGO   ROH 9301   7.967  17.924   6.077  0.1209  0.1178 -0.0526
  658ERGO    R1 9302   7.887  18.009   6.335  0.0963 -0.1185  0.0195
  658ERGO    R2 9303   7.919  17.852   6.560  0.4495 -0.1672 -0.0596
  658ERGO    R3 9304   8.049  18.071   6.655  0.1425  0.0065 -0.0278
  658ERGO    R4 9305   7.955  17.930   6.894  0.2434 -0.0968 -0.0520
  658ERGO    R5 9306   7.919  18.139   6.845 -0.0061 -0.1438 -0.0747
  658ERGO    C1 9307   8.098  18.181   7.179 -0.1648  0.1076 -0.0178
  658ERGO    C2 9308   8.014  17.977   7.507 -0.0436  0.1139  0.3370
  659ERGO   ROH 9309  10.946  15.421   6.489  0.2245  0.0797  0.1108
  659ERGO    R1 9310  10.715  15.437   6.651  0.2376 -0.2347  0.1647
  659ERGO    R2 9311  10.703  15.326   6.904  0.6554  0.2173  0.3948
  659ERGO    R3 9312  10.630  15.577   6.976 -0.0103  0.1830 -0.0713
  659ERGO    R4 9313  10.496  15.403   7.169  0.5419  0.1602  0.3244
  659ERGO    R5 9314  10.401  15.555   7.045  0.0600 -0.3198  0.0491
  659ERGO    C1 9315  10.306  15.684   7.391 -0.1491  0.0948 -0.1542
  659ERGO    C2 9316  10.280  15.704   7.743 -0.1967 -0.1907  0.0065
  660ERGO   ROH 9317  14.639   4.890   9.360  0.0204 -0.0774  0.0457
  660ERGO    R1 9318  14.607   4.932   9.082  0.1157 -0.0784  0.0344
  660ERGO    R2 9319  14.609   4.725   8.900 -0.1124 -0.1104  0.0687
  660ERGO    R3 9320  14.370   4.830   8.825  0.0266  0.1768  0.0112
  660ERGO    R4 9321  14.490   4.734   8.576 -0.0639 -0.0671  0.0515
  660ERGO    R5 9322  14.414   4.935   8.614  0.1891  0.0513 -0.0224
  660ERGO    C1 9323  14.195   4.838   8.317  0.0949  0.2276 -0.0123
  660ERGO    C2 9324  14.002   4.752   7.907 -0.2117  0.3995 -0.0245
  661ERGO   ROH 9325  17.091  16.541   5.958 -0.1336 -0.1004 -0.0228
  661ERGO    R1 9326  17.184  16.471   6.216  0.0427 -0.0438 -0.0692
  661ERGO    R2 9327  17.352  16.634   6.363 -0.1276  0.1492 -0.0803
  661ERGO    R3 9328  17.158  16.609   6.552 -0.0396 -0.1620 -0.0270
  661ERGO    R4 9329  17.383  16.733   6.693 -0.1121 -0.0416 -0.0236
  661ERGO    R5 9330  17.278  16.552   6.752  0.0817 -0.1826 -0.1060
  661ERGO    C1 9331  17.220  16.767   7.062 -0.0201 -0.4447  0.0595
  661ERGO    C2 9332  17.087  16.991   7.231  0.0364  0.1578 -0.1090
  662ERGO   ROH 9333   7.864   1.320   6.029  0.0583 -0.3155  0.0719
  662ERGO    R1 9334   7.827   1.507   6.237  0.1238 -0.1997 -0.0192
  662ERGO    R2 9335   7.640   1.471   6.438  0.0153  0.0288 -0.0758
  662ERGO    R3 9336   7.855   1.508   6.600 -0.0174 -0.0750 -0.0074
  662ERGO    R4 9337   7.626   1.498   6.782 -0.0449 -0.2806 -0.0504
  662ERGO    R5 9338   7.776   1.656   6.771 -0.0721 -0.2410  0.1136
  662ERGO    C1 9339   7.820   1.549   7.135 -0.1106 -0.5582  0.0286
  662ERGO    C2 9340   7.819   1.571   7.474 -0.0111  0.0833 -0.1390
  663ERGO   ROH 9341  17.272   0.862   5.798  0.2724  0.2399  0.0117
  663ERGO    R1 9342  17.222   0.797   6.068  0.1770 -0.0281 -0.0689
  663ERGO    R2 9343  17.424   0.747   6.249  0.1203  0.0520  0.0093
  663ERGO    R3 9344  17.299   0.940   6.394 -0.1794 -0.1980  0.0969
  663ERGO    R4 9345  17.451   0.782   6.592  0.4730  0.2230 -0.0307
  663ERGO    R5 9346  17.237   0.829   6.598  0.3471 -0.2989  0.2200
  663ERGO    C1 9347  17.350   0.984   6.928  0.3969  0.0879  0.0282
  663ERGO    C2 9348  17.451   1.098   7.250  0.1139  0.0353  0.1556
  664ERGO   ROH 9349   2.733  15.313   9.530 -0.3740 -0.2757  0.0712
  664ERGO    R1 9350   2.715  15.271   9.251 -0.1817 -0.2560  0.0542
  664ERGO    R2 9351   2.645  15.027   9.142 -0.1019 -0.2511 -0.0130
  664ERGO    R3 9352   2.456  15.175   9.014 -0.0187 -0.2451 -0.1302
  664ERGO    R4 9353   2.520  14.959   8.827  0.0656 -0.2607 -0.0782
  664ERGO    R5 9354   2.524  15.173   8.784  0.1072 -0.2664 -0.0920
  664ERGO    C1 9355   2.270  15.058   8.523  0.2413 -0.2606 -0.2263
  664ERGO    C2 9356   2.079  14.984   8.171  0.0151  0.0109 -0.1276
  665ERGO   ROH 9357  11.382  17.613  10.043 -0.0429 -0.0855  0.0686
  665ERGO    R1 9358  11.184  17.661   9.846  0.0597  0.2027  0.0316
  665ERGO    R2 9359  11.179  17.891   9.693  0.5559  0.1184 -0.1253
  665ERGO    R3 9360  11.177  17.714   9.486  0.1888 -0.0259 -0.0067
  665ERGO    R4 9361  11.130  17.975   9.361  0.7280 -0.0028 -0.1835
  665ERGO    R5 9362  11.007  17.796   9.339  0.3524  0.2297 -0.0592
  665ERGO    C1 9363  11.099  17.857   8.974  0.4835 -0.2086 -0.1062
  665ERGO    C2 9364  11.134  17.816   8.677 -0.0611  0.1633 -0.0160
  666ERGO   ROH 9365  16.930   4.186   9.812 -0.1747  0.1273 -0.0318
  666ERGO    R1 9366  16.984   4.134   9.539 -0.2431  0.1930 -0.0576
  666ERGO    R2 9367  16.969   4.329   9.344  0.2313  0.3706  0.0751
  666ERGO    R3 9368  17.222   4.249   9.289  0.0719 -0.1677  0.0663
  666ERGO    R4 9369  17.120   4.349   9.034  0.3117  0.2101  0.1026
  666ERGO    R5 9370  17.209   4.153   9.070 -0.1208 -0.0221  0.0085
  666ERGO    C1 9371  17.446   4.285   8.802  0.2089 -0.3887  0.1104
  666ERGO    C2 9372  17.579   4.329   8.557  0.0809  0.0970 -0.0307
  667ERGO   ROH 9373  16.507   1.230   9.962  0.0072  0.1257  0.0563
  667ERGO    R1 9374  16.364   1.260   9.720  0.0205 -0.0123  0.0315
  667ERGO    R2 9375  16.271   1.504   9.632 -0.0382 -0.0768 -0.0746
  667ERGO    R3 9376  16.409   1.440   9.407 -0.0040 -0.1277 -0.0402
  667ERGO    R4 9377  16.214   1.641   9.320 -0.0130 -0.1589 -0.1163
  667ERGO    R5 9378  16.244   1.443   9.233  0.0124 -0.1841 -0.0616
  667ERGO    C1 9379  16.310   1.661   8.926  0.0338 -0.2545 -0.1082
  667ERGO    C2 9380  16.165   1.717   8.547 -0.3574  0.0284  0.0400
  668ERGO   ROH 9381   2.964   6.734   9.491 -0.1679 -0.1283 -0.0099
  668ERGO    R1 9382   3.103   6.814   9.257 -0.0782 -0.2270  0.0082
  668ERGO    R2 9383   3.200   6.633   9.072 -0.1790 -0.2991  0.0207
  668ERGO    R3 9384   3.055   6.784   8.898 -0.0524 -0.1967  0.0033
  668ERGO    R4 9385   3.260   6.654   8.732  0.1775  0.0521  0.0988
  668ERGO    R5 9386   3.218   6.868   8.743  0.0775  0.0215  0.2557
  668ERGO    C1 9387   3.160   6.808   8.371  0.5039  0.3528  0.1279
  668ERGO    C2 9388   3.094   6.847   7.954  0.4687  0.0098  0.0164
  669ERGO   ROH 9389   8.756  11.466  10.104  0.2219 -0.3363 -0.0190
  669ERGO    R1 9390   8.617  11.544   9.871  0.1740 -0.1212  0.0789
  669ERGO    R2 9391   8.695  11.759   9.716  0.3065 -0.1462  0.1106
  669ERGO    R3 9392   8.693  11.575   9.516  0.0187 -0.0805  0.0484
  669ERGO    R4 9393   8.702  11.835   9.379  0.0556 -0.0392  0.1268
  669ERGO    R5 9394   8.557  11.675   9.345 -0.0729  0.0594  0.1992
  669ERGO    C1 9395   8.704  11.706   8.995 -0.3608  0.0848  0.0778
  669ERGO    C2 9396   8.755  11.815   8.612  0.2539 -0.1003 -0.2009
  670ERGO   ROH 9397  17.657   6.469   9.242 -0.1184 -0.0277 -0.0226
  670ERGO    R1 9398  17.813   6.574   9.031  0.0107  0.0426  0.1041
  670ERGO    R2 9399  17.709   6.623   8.779  0.2208 -0.1173 -0.0231
  670ERGO    R3 9400  17.809   6.872   8.822 -0.0337 -0.0201  0.0174
  670ERGO    R4 9401  17.777   6.853   8.531  0.2459 -0.1042 -0.0028
  670ERGO    R5 9402  17.959   6.908   8.638  0.0999  0.0762  0.1481
  670ERGO    C1 9403  17.911   7.221   8.426  0.0213 -0.0053  0.0468
  670ERGO    C2 9404  17.972   7.401   8.122 -0.1879 -0.1517 -0.0361
  671ERGO   ROH 9405   9.880   3.925   9.605  0.1957  0.2769 -0.0981
  671ERGO    R1 9406   9.686   4.005   9.415  0.1297  0.1102 -0.1032
  671ERGO    R2 9407   9.751   4.144   9.185  0.0278  0.0789 -0.1545
  671ERGO    R3 9408   9.618   3.941   9.064  0.1307 -0.0361 -0.0763
  671ERGO    R4 9409   9.632   4.152   8.861 -0.3238  0.0431 -0.0301
  671ERGO    R5 9410   9.452   4.050   8.930 -0.1374 -0.1838  0.1284
  671ERGO    C1 9411   9.437   3.966   8.558 -0.4320 -0.0858  0.1158
  671ERGO    C2 9412   9.578   3.910   8.163 -0.3203  0.1256  0.0342
  672ERGO   ROH 9413   7.467   4.421   6.156  0.1422  0.2839 -0.0249
  672ERGO    R1 9414   7.526   4.525   6.412  0.1374  0.0534  0.0737
  672ERGO    R2 9415   7.329   4.589   6.595  0.1149  0.1519  0.0241
  672ERGO    R3 9416   7.471   4.424   6.757 -0.1409 -0.1181 -0.0188
  672ERGO    R4 9417   7.304   4.580   6.940  0.3063  0.2942  0.0427
  672ERGO    R5 9418   7.520   4.557   6.950  0.2668 -0.1717 -0.0818
  672ERGO    C1 9419   7.423   4.420   7.293  0.1775  0.1236  0.0133
  672ERGO    C2 9420   7.475   4.346   7.738 -0.1360  0.2318  0.2096
  673ERGO   ROH 9421  18.352  16.593   9.904  0.0180  0.2617 -0.1839
  673ERGO    R1 9422  18.376  16.452   9.660 -0.2924 -0.0780 -0.0311
  673ERGO    R2 9423  18.156  16.365   9.516 -0.5147  0.3069  0.0259
  673ERGO    R3 9424  18.273  16.504   9.315 -0.1145 -0.1846 -0.0950
  673ERGO    R4 9425  18.091  16.318   9.180 -0.5819  0.1943  0.0563
  673ERGO    R5 9426  18.304  16.342   9.141 -0.5185 -0.4111  0.0513
  673ERGO    C1 9427  18.164  16.422   8.795 -0.2453 -0.3326 -0.0395
  673ERGO    C2 9428  17.927  16.502   8.543  0.3162  0.0317 -0.1041
  674ERGO   ROH 9429  17.526  10.668   6.437  0.2092  0.2296  0.0507
  674ERGO    R1 9430  17.478  10.568   6.697 -0.0493  0.1377 -0.0289
  674ERGO    R2 9431  17.674  10.559   6.892 -0.1323 -0.2977  0.0446
  674ERGO    R3 9432  17.491  10.699   7.037  0.0303 -0.0956  0.0599
  674ERGO    R4 9433  17.725  10.679   7.212  0.0381 -0.3247  0.0285
  674ERGO    R5 9434  17.521  10.621   7.261 -0.0181 -0.1104  0.0618
  674ERGO    C1 9435  17.583  10.879   7.535  0.2899 -0.1509  0.0333
  674ERGO    C2 9436  17.784  11.078   7.819  0.3104 -0.1012 -0.0882
  675loPI    C1 9437   5.127  14.518   5.256 -0.0397 -0.0293  0.0295
  675loPI    C2 9438   5.030  14.567   4.871  0.0068  0.0843  0.0318
  675loPI    C3 9439   5.178  14.217   4.997  0.0028  0.0508 -0.0556
  675loPI   PO4 9440   5.325  14.666   5.297  0.2691  0.2000 -0.1527
  675loPI   GL1 9441   5.360  14.610   5.722 -0.1730  0.2290 -0.1096
  675loPI   GL2 9442   5.586  14.701   5.679  0.1382 -0.4127  0.2210
  675loPI   C1A 9443   5.119  14.766   6.082 -0.0354  0.2099  0.2943
  675loPI   C2A 9444   4.864  14.644   6.459  0.1907  0.0675 -0.1573
  675loPI   C3A 9445   4.723  14.612   6.899 -0.1901  0.1744 -0.0485
  675loPI   C4A 9446   4.557  14.515   7.362  0.0763 -0.0571  0.0729
  675loPI   C5A 9447   4.633  14.547   7.782  0.0034  0.0285  0.2008
  675loPI   C6A 9448   4.581  14.475   8.179 -0.1528 -0.0724  0.1300
  675loPI   C1B 9449   5.607  14.677   6.126 -0.1153 -0.0193  0.0719
  675loPI   C2B 9450   5.505  14.631   6.570  0.2660 -0.1067 -0.0704
  675loPI   C3B 9451   5.274  14.701   6.875 -0.0922 -0.0589 -0.2284
  675loPI   C4B 9452   5.063  14.662   7.323  0.1219 -0.0988  0.2726
  676loPI    C1 9453  11.259   7.788   5.196  0.0751  0.0783 -0.1804
  676loPI    C2 9454  11.378   7.480   4.970  0.1895  0.0901 -0.1368
  676loPI    C3 9455  10.996   7.509   5.083  0.1287  0.0905 -0.3384
  676loPI   PO4 9456  11.445   7.821   5.439  0.1349 -0.3315 -0.0850
  676loPI   GL1 9457  11.352   7.568   5.822  0.4921  0.2335  0.0830
  676loPI   GL2 9458  11.479   7.221   5.923  0.2414 -0.0095  0.2168
  676loPI   C1A 9459  11.097   7.703   6.247  0.0000  0.1995 -0.1967
  676loPI   C2A 9460  10.958   7.665   6.672  0.1509  0.1419 -0.1567
  676loPI   C3A 9461  10.670   7.538   6.874  0.0279 -0.0119 -0.3037
  676loPI   C4A 9462  10.652   7.528   7.333  0.2282 -0.0951  0.0310
  676loPI   C5A 9463  10.867   7.287   7.531  0.0532  0.0217  0.0260
  676loPI   C6A 9464  11.093   6.877   7.670 -0.1571  0.2564  0.0674
  676loPI   C1B 9465  11.398   7.302   6.384 -0.0945  0.1398  0.0606
  676loPI   C2B 9466  11.310   7.377   6.884  0.1090  0.1259  0.2553
  676loPI   C3B 9467  11.099   7.655   7.189 -0.1276  0.3040  0.0604
  676loPI   C4B 9468  10.998   7.966   7.394 -0.0377 -0.0379  0.1336
  677loPI    C1 9469   0.639  13.325   4.943 -0.0513 -0.0445  0.2423
  677loPI    C2 9470   0.519  13.707   4.950  0.1331  0.0225 -0.0762
  677loPI    C3 9471   0.283  13.426   4.790  0.0214  0.0097  0.1077
  677loPI   PO4 9472   0.647  13.153   5.247 -0.1606 -0.0499 -0.1561
  677loPI   GL1 9473   0.725  13.101   5.623 -0.1358  0.2682  0.2326
  677loPI   GL2 9474   1.058  13.264   5.524 -0.1369  0.0204  0.2052
  677loPI   C1A 9475   0.543  13.128   6.073 -0.0561  0.0621 -0.1871
  677loPI   C2A 9476   0.401  13.037   6.467 -0.0134 -0.3020  0.0674
  677loPI   C3A 9477   0.312  13.286   6.823  0.1462 -0.0768 -0.0853
  677loPI   C4A 9478   0.046  13.137   7.263  0.0768 -0.1357 -0.3154
  677loPI   C5A 9479  -0.252  13.114   7.505  0.2226 -0.0067  0.2200
  677loPI   C6A 9480  -0.650  13.017   7.329 -0.3442 -0.1912  0.1169
  677loPI   C1B 9481   1.006  13.196   5.989 -0.0409  0.1385  0.2721
  677loPI   C2B 9482   1.288  13.221   6.303 -0.1728 -0.0459  0.0268
  677loPI   C3B 9483   1.250  13.284   6.772  0.0225  0.2871  0.0112
  677loPI   C4B 9484   1.117  13.304   7.211  0.2259 -0.1930  0.0896
  678loPI    C1 9485   9.527  11.733   5.457  0.0118  0.0016 -0.1885
  678loPI    C2 9486   9.485  11.514   5.125 -0.2431 -0.0690 -0.1123
  678loPI    C3 9487   9.373  11.898   5.127  0.0728  0.0274 -0.2043
  678loPI   PO4 9488   9.469  11.516   5.658 -0.1165  0.2057 -0.1291
  678loPI   GL1 9489   9.202  11.263   6.006 -0.0778  0.0007  0.0597
  678loPI   GL2 9490   8.859  11.273   5.782  0.0104 -0.1696 -0.1887
  678loPI   C1A 9491   9.470  11.360   6.406 -0.1547 -0.0774 -0.1760
  678loPI   C2A 9492   9.466  11.223   6.818  0.2554 -0.1289 -0.1391
  678loPI   C3A 9493   9.264  11.145   7.197 -0.1187  0.1970 -0.1672
  678loPI   C4A 9494   9.458  11.055   7.610 -0.0761  0.2203  0.0967
  678loPI   C5A 9495   9.621  10.968   8.010 -0.2781  0.1493 -0.0304
  678loPI   C6A 9496   9.837  11.289   8.157  0.0878 -0.0585 -0.0145
  678loPI   C1B 9497   8.805  11.528   6.061  0.1912  0.1462  0.0100
  678loPI   C2B 9498   9.111  11.693   6.306 -0.0019 -0.1212 -0.1783
  678loPI   C3B 9499   9.291  11.728   6.679 -0.0499 -0.0481 -0.1030
  678loPI   C4B 9500   9.440  11.712   7.079 -0.0243 -0.1476  0.0458
  679loPI    C1 9501   9.242   8.790   5.208 -0.0681 -0.1271 -0.0249
  679loPI    C2 9502   9.021   8.470   5.114 -0.0848 -0.0372 -0.2987
  679loPI    C3 9503   9.038   8.783   4.864 -0.0102  0.1463 -0.0677
  679loPI   PO4 9504   9.203   8.748   5.507  0.1355 -0.0672  0.2468
  679loPI   GL1 9505   9.240   8.980   5.967  0.2121 -0.1363 -0.2224
  679loPI   GL2 9506   8.995   9.138   6.163 -0.1920 -0.1395 -0.1218
  679loPI   C1A 9507   9.394   9.083   6.480 -0.1228  0.0941  0.1718
  679loPI   C2A 9508   9.411   9.360   6.848  0.0720  0.1656 -0.1749
  679loPI   C3A 9509   9.121   9.468   7.057 -0.2567  0.1768  0.2942
  679loPI   C4A 9510   9.155   9.443   7.515  0.3696 -0.0614  0.1442
  679loPI   C5A 9511   9.128   9.271   7.961  0.1885 -0.1033 -0.1125
  679loPI   C6A 9512   9.099   9.259   8.374  0.1507  0.2437  0.2045
  679loPI   C1B 9513   8.727   8.881   6.471  0.1571  0.2187 -0.1513
  679loPI   C2B 9514   8.580   8.778   6.965  0.1325  0.2671  0.2027
  679loPI   C3B 9515   8.426   8.827   7.439  0.2363  0.0404  0.0166
  679loPI   C4B 9516   8.208   8.746   7.889  0.1349 -0.0641  0.1726
  680loPI    C1 9517   1.291  12.341   5.239  0.0690 -0.2518  0.0423
  680loPI    C2 9518   1.536  12.581   5.445 -0.0796  0.0344 -0.1088
  680loPI    C3 9519   1.484  12.637   5.053 -0.4233  0.0094 -0.0704
  680loPI   PO4 9520   1.323  12.086   5.345 -0.2074 -0.0291 -0.0676
  680loPI   GL1 9521   1.591  12.055   5.654  0.1125  0.0095  0.0408
  680loPI   GL2 9522   1.800  12.324   5.783 -0.2313  0.2191  0.0853
  680loPI   C1A 9523   1.462  12.268   6.086  0.3316 -0.0090  0.1876
  680loPI   C2A 9524   1.375  12.477   6.448 -0.2330  0.1235 -0.0342
  680loPI   C3A 9525   1.347  12.420   6.888  0.1732 -0.3282 -0.3132
  680loPI   C4A 9526   1.262  12.251   7.310  0.0337  0.0059 -0.1748
  680loPI   C5A 9527   1.070  12.246   7.627 -0.0298  0.1102  0.0385
  680loPI   C6A 9528   1.087  12.001   7.889 -0.3331 -0.0645 -0.1518
  680loPI   C1B 9529   1.737  12.716   6.082 -0.1195 -0.1391 -0.1435
  680loPI   C2B 9530   1.675  12.885   6.544  0.2666  0.4544  0.0225
  680loPI   C3B 9531   1.500  12.884   6.998  0.3973  0.1856 -0.0599
  680loPI   C4B 9532   1.175  12.829   7.355 -0.2314  0.3293  0.0179
  681loPI    C1 9533   6.619  11.867   5.300 -0.0738  0.1880 -0.0923
  681loPI    C2 9534   6.982  11.849   5.132 -0.0969  0.0023 -0.1249
  681loPI    C3 9535   6.683  11.628   4.985 -0.0920 -0.2433  0.2227
  681loPI   PO4 9536   6.665  11.958   5.561  0.3800 -0.3831 -0.0187
  681loPI   GL1 9537   6.880  12.193   5.880 -0.1099  0.1852 -0.0021
  681loPI   GL2 9538   6.728  12.508   5.982  0.0128  0.2148 -0.0570
  681loPI   C1A 9539   6.782  11.993   6.272  0.0003  0.1490  0.4439
  681loPI   C2A 9540   6.884  11.809   6.621  0.4173 -0.0368  0.1266
  681loPI   C3A 9541   6.854  11.656   6.997 -0.2249  0.1656  0.2692
  681loPI   C4A 9542   6.834  11.673   7.429  0.2205 -0.1986  0.1212
  681loPI   C5A 9543   6.718  11.527   7.743  0.0574 -0.2346  0.1124
  681loPI   C6A 9544   6.752  11.760   8.077 -0.1315 -0.1242 -0.1098
  681loPI   C1B 9545   6.471  12.526   6.345  0.2104  0.3711 -0.0298
  681loPI   C2B 9546   6.717  12.397   6.718  0.0574  0.0519 -0.0634
  681loPI   C3B 9547   6.987  12.131   7.074  0.0563  0.0929  0.0758
  681loPI   C4B 9548   7.198  12.277   7.419 -0.0283 -0.1794  0.1782
  682loPI    C1 9549  17.172  16.096   5.370  0.0889 -0.0668  0.0437
  682loPI    C2 9550  17.508  16.126   5.154 -0.0124  0.1255 -0.0898
  682loPI    C3 9551  17.176  16.316   5.036 -0.1380  0.0297  0.1028
  682loPI   PO4 9552  17.206  16.117   5.675 -0.3960 -0.0533  0.0330
  682loPI   GL1 9553  17.186  15.986   6.105  0.0307  0.1000  0.2709
  682loPI   GL2 9554  16.889  16.096   6.063  0.1238 -0.0762 -0.1052
  682loPI   C1A 9555  17.375  15.751   6.410 -0.2056 -0.1465  0.1374
  682loPI   C2A 9556  17.337  15.761   6.839  0.0751  0.2132  0.3254
  682loPI   C3A 9557  17.171  15.688   7.280  0.3595  0.1893  0.2489
  682loPI   C4A 9558  17.108  15.866   7.754 -0.0579  0.2125  0.0679
  682loPI   C5A 9559  17.151  16.274   7.984  0.2794  0.0953 -0.0702
  682loPI   C6A 9560  16.762  16.488   8.182  0.2500  0.2823 -0.0344
  682loPI   C1B 9561  16.898  16.195   6.516 -0.0361  0.2290 -0.1342
  682loPI   C2B 9562  16.960  16.138   6.859 -0.3162 -0.1750  0.1159
  682loPI   C3B 9563  17.164  16.280   7.239 -0.0508 -0.1144 -0.0522
  682loPI   C4B 9564  17.471  16.290   7.555 -0.1985 -0.1048 -0.3938
  683loPI    C1 9565   7.277   1.539   5.640  0.1206 -0.0272  0.0943
  683loPI    C2 9566   7.057   1.575   5.308  0.0637  0.1879  0.1541
  683loPI    C3 9567   7.456   1.599   5.287  0.0785 -0.1072  0.0591
  683loPI   PO4 9568   7.228   1.281   5.731  0.1443 -0.0483 -0.1156
  683loPI   GL1 9569   7.437   1.089   6.022 -0.3290  0.0449  0.0554
  683loPI   GL2 9570   7.684   0.949   6.240  0.0192 -0.0924 -0.0482
  683loPI   C1A 9571   7.221   1.071   6.326  0.1048  0.1333  0.1114
  683loPI   C2A 9572   7.254   1.193   6.590  0.0393 -0.2132  0.1733
  683loPI   C3A 9573   7.269   1.179   7.074 -0.0586 -0.1965 -0.2096
  683loPI   C4A 9574   7.358   1.446   7.391  0.0150 -0.0412  0.6753
  683loPI   C5A 9575   7.379   1.545   7.782  0.3372  0.2589 -0.0208
  683loPI   C6A 9576   7.076   1.470   8.145  0.1795 -0.2075  0.0501
  683loPI   C1B 9577   7.723   1.000   6.766  0.0487  0.0129 -0.0093
  683loPI   C2B 9578   7.746   1.101   7.224  0.2415  0.2856 -0.0764
  683loPI   C3B 9579   7.732   1.129   7.708 -0.0346  0.0423 -0.2084
  683loPI   C4B 9580   7.576   1.332   8.224 -0.1732 -0.0192  0.1997
  684loPI    C1 9581   1.822  16.475   5.445 -0.0024 -0.2106 -0.0072
  684loPI    C2 9582   1.906  16.182   5.186  0.3192 -0.0558 -0.0823
  684loPI    C3 9583   1.857  16.557   5.056  0.1143 -0.0396  0.0382
  684loPI   PO4 9584   1.909  16.254   5.732 -0.0300  0.1793 -0.4094
  684loPI   GL1 9585   2.111  16.354   6.204 -0.0525 -0.1862  0.5140
  684loPI   GL2 9586   2.190  16.074   6.148 -0.0847  0.1079 -0.0692
  684loPI   C1A 9587   1.854  16.365   6.616  0.0814 -0.0157 -0.2516
  684loPI   C2A 9588   1.679  16.449   7.044 -0.1562  0.0961 -0.0060
  684loPI   C3A 9589   1.518  16.583   7.473 -0.0645  0.2214  0.0107
  684loPI   C4A 9590   1.106  16.525   7.767  0.0818 -0.0571 -0.0625
  684loPI   C5A 9591   0.749  16.872   7.807 -0.3990  0.1594  0.3195
  684loPI   C6A 9592   0.638  17.323   7.645  0.2431  0.1333 -0.4010
  684loPI   C1B 9593   2.255  16.112   6.604 -0.0431  0.1095 -0.2086
  684loPI   C2B 9594   2.598  16.136   6.898  0.0979  0.2259  0.4794
  684loPI   C3B 9595   2.605  15.966   7.360  0.1449 -0.1389  0.2304
  684loPI   C4B 9596   2.905  16.203   7.810  0.1354  0.0630  0.0211
  685loPI    C1 9597  10.460  17.774   5.712 -0.2664  0.1299 -0.0430
  685loPI    C2 9598  10.804  17.854   5.523 -0.0748 -0.0976  0.2035
  685loPI    C3 9599  10.521  17.638   5.341 -0.0136 -0.0627  0.0664
  685loPI   PO4 9600  10.459  17.616   5.936 -0.1374  0.0628  0.1077
  685loPI   GL1 9601  10.364  17.301   6.005 -0.0396  0.0830 -0.1883
  685loPI   GL2 9602  10.649  17.163   6.163 -0.0517  0.0790 -0.1106
  685loPI   C1A 9603  10.020  17.120   6.239  0.2848 -0.2963  0.1564
  685loPI   C2A 9604   9.739  17.217   6.660 -0.2147 -0.0570 -0.0154
  685loPI   C3A 9605  10.012  17.137   7.042  0.0235  0.1493  0.1431
  685loPI   C4A 9606   9.916  16.832   7.371  0.2471 -0.2244 -0.2612
  685loPI   C5A 9607   9.769  16.453   7.767 -0.1087 -0.3695 -0.0817
  685loPI   C6A 9608   9.784  16.490   8.196 -0.2322  0.0158 -0.2407
  685loPI   C1B 9609  10.466  17.211   6.544  0.0708 -0.1193 -0.0932
  685loPI   C2B 9610  10.533  16.843   6.858  0.3716  0.0747 -0.0421
  685loPI   C3B 9611  10.642  16.667   7.221  0.0971  0.0450 -0.1438
  685loPI   C4B 9612  10.830  16.536   7.686  0.1499  0.2871 -0.1244
  686loPI    C1 9613   5.931   2.999   4.989 -0.2628 -0.3414 -0.0420
  686loPI    C2 9614   6.251   2.887   4.777 -0.0451  0.2948 -0.0715
  686loPI    C3 9615   5.885   2.850   4.620  0.0114 -0.3377 -0.0798
  686loPI   PO4 9616   6.136   2.996   5.291  0.1589 -0.0707  0.0036
  686loPI   GL1 9617   6.080   3.035   5.716  0.0233  0.0001  0.2999
  686loPI   GL2 9618   6.180   3.415   5.559  0.0249  0.0764  0.0743
  686loPI   C1A 9619   6.103   2.727   6.041 -0.0425 -0.0593  0.0210
  686loPI   C2A 9620   6.108   2.826   6.382 -0.0322  0.3268  0.2281
  686loPI   C3A 9621   5.914   3.029   6.795 -0.1628 -0.0581 -0.1045
  686loPI   C4A 9622   5.999   2.968   7.156  0.4585  0.1278 -0.0009
  686loPI   C5A 9623   5.998   2.835   7.539  0.0584 -0.0957  0.2197
  686loPI   C6A 9624   6.407   2.700   7.681  0.3502  0.0374  0.1246
  686loPI   C1B 9625   6.213   3.553   5.899  0.0083  0.4565  0.0568
  686loPI   C2B 9626   6.130   3.851   6.174 -0.1496  0.3453  0.0303
  686loPI   C3B 9627   6.300   3.886   6.612  0.3114 -0.1447 -0.1043
  686loPI   C4B 9628   6.535   3.965   6.958 -0.2039 -0.2015 -0.2769
  687loPI    C1 9629   0.491   0.707   5.292 -0.0151  0.0011 -0.0004
  687loPI    C2 9630   0.225   0.954   5.459  0.0862  0.0238  0.1285
  687loPI    C3 9631   0.099   0.642   5.242 -0.0447  0.0582  0.1541
  687loPI   PO4 9632   0.651   0.676   5.473 -0.2070 -0.1471 -0.3118
  687loPI   GL1 9633   0.748   0.291   5.749 -0.1345 -0.1202 -0.2916
  687loPI   GL2 9634   0.940   0.521   5.872  0.0636  0.3078  0.0129
  687loPI   C1A 9635   0.438   0.284   6.117  0.0155  0.2823  0.2846
  687loPI   C2A 9636   0.520   0.278   6.543  0.1382  0.1525 -0.1684
  687loPI   C3A 9637   0.698   0.115   6.926  0.1304 -0.1604 -0.3229
  687loPI   C4A 9638   0.586  -0.106   7.317 -0.2076 -0.1756  0.2149
  687loPI   C5A 9639   0.392  -0.286   7.752  0.2049  0.5301 -0.0097
  687loPI   C6A 9640   0.378  -0.113   8.182  0.2233  0.0945  0.0167
  687loPI   C1B 9641   1.060   0.634   6.317 -0.2666  0.3348 -0.3980
  687loPI   C2B 9642   1.111   0.473   6.686  0.1226  0.1606 -0.1701
  687loPI   C3B 9643   1.047   0.500   7.106 -0.4847  0.0135 -0.4159
  687loPI   C4B 9644   0.959   0.604   7.541 -0.1676  0.2592 -0.0060
  688loPI    C1 9645   0.590  15.754   5.379 -0.1521 -0.1101 -0.1460
  688loPI    C2 9646   0.616  16.069   5.134 -0.1541 -0.0480 -0.0667
  688loPI    C3 9647   0.617  15.699   4.984 -0.0590 -0.0128 -0.1538
  688loPI   PO4 9648   0.447  15.881   5.595  0.0418  0.2832  0.0094
  688loPI   GL1 9649   0.058  15.788   5.926 -0.3400  0.2090  0.0369
  688loPI   GL2 9650   0.178  16.128   5.961 -0.0299 -0.0820  0.0882
  688loPI   C1A 9651   0.032  15.468   6.238 -0.1693  0.2348  0.2462
  688loPI   C2A 9652  -0.195  15.273   6.569 -0.2251 -0.4176 -0.2209
  688loPI   C3A 9653  -0.252  15.455   7.021 -0.0871 -0.0158 -0.1715
  688loPI   C4A 9654  -0.316  15.729   7.390 -0.1234  0.2908  0.3103
  688loPI   C5A 9655  -0.726  15.852   7.683 -0.2851 -0.0938  0.1982
  688loPI   C6A 9656  -0.719  16.255   8.020  0.1405 -0.3088 -0.2393
  688loPI   C1B 9657   0.426  15.880   6.287 -0.1116 -0.0183  0.2863
  688loPI   C2B 9658   0.359  15.629   6.645 -0.0721 -0.2309 -0.1519
  688loPI   C3B 9659   0.334  15.565   7.117 -0.2259  0.2626 -0.0992
  688loPI   C4B 9660   0.132  15.537   7.477  0.1496  0.5323  0.0856
  689loPI    C1 9661  11.556  15.594   5.499 -0.1793  0.2006 -0.0539
  689loPI    C2 9662  11.607  15.879   5.224 -0.2602  0.0505 -0.2263
  689loPI    C3 9663  11.535  15.502   5.111  0.1709 -0.1041 -0.0060
  689loPI   PO4 9664  11.397  15.768   5.761 -0.0770 -0.0302  0.2757
  689loPI   GL1 9665  11.435  15.795   6.282  0.1922  0.0328  0.0080
  689loPI   GL2 9666  11.666  15.565   6.337  0.1291 -0.1221  0.1570
  689loPI   C1A 9667  11.311  15.905   6.700  0.2693  0.0696 -0.0465
  689loPI   C2A 9668  11.410  16.211   6.909  0.0167 -0.0868 -0.1110
  689loPI   C3A 9669  11.767  16.360   7.065 -0.3814  0.1593 -0.0565
  689loPI   C4A 9670  12.224  16.289   7.294 -0.2526  0.3805 -0.0410
  689loPI   C5A 9671  12.078  16.266   7.646  0.2375  0.1709  0.1740
  689loPI   C6A 9672  11.792  16.535   7.955 -0.0835 -0.1568 -0.0878
  689loPI   C1B 9673  11.387  15.432   6.711 -0.1837  0.1685  0.2312
  689loPI   C2B 9674  11.106  15.529   7.057 -0.0596  0.0578 -0.0079
  689loPI   C3B 9675  10.931  15.467   7.407  0.1036  0.0961 -0.1924
  689loPI   C4B 9676  10.756  15.647   7.699  0.2384  0.0422  0.2687
  690loPI    C1 9677   5.301   1.944   5.289  0.2143  0.0936 -0.1173
  690loPI    C2 9678   4.941   2.092   5.194  0.1856  0.0114 -0.1373
  690loPI    C3 9679   5.272   2.252   5.036  0.1755  0.2595  0.0856
  690loPI   PO4 9680   5.238   1.956   5.554 -0.0278 -0.2800 -0.1582
  690loPI   GL1 9681   5.118   1.985   5.930 -0.1068  0.1872 -0.0028
  690loPI   GL2 9682   5.126   2.418   5.961  0.1862  0.3708 -0.1602
  690loPI   C1A 9683   4.808   2.087   6.127 -0.4417  0.0213  0.0369
  690loPI   C2A 9684   4.655   2.000   6.425  0.0076 -0.2133  0.4104
  690loPI   C3A 9685   4.769   2.027   6.867 -0.1302  0.0560 -0.0391
  690loPI   C4A 9686   4.807   2.027   7.343 -0.0865  0.1525 -0.1302
  690loPI   C5A 9687   4.707   1.866   7.777  0.1297  0.0828 -0.1367
  690loPI   C6A 9688   4.423   1.534   7.978  0.3674 -0.2095 -0.1759
  690loPI   C1B 9689   4.958   2.574   6.328  0.0333 -0.0928 -0.0615
  690loPI   C2B 9690   4.899   2.576   6.789 -0.0425  0.0026 -0.1829
  690loPI   C3B 9691   4.760   2.525   7.229 -0.2010 -0.1824 -0.2407
  690loPI   C4B 9692   4.575   2.383   7.562 -0.0913 -0.1901 -0.2640
  691loPI    C1 9693  17.245   8.980   5.429  0.2498 -0.0555 -0.0772
  691loPI    C2 9694  16.950   9.246   5.471  0.1953 -0.1402  0.0889
  691loPI    C3 9695  17.052   9.116   5.106 -0.0822 -0.2324  0.0414
  691loPI   PO4 9696  17.321   9.054   5.692  0.2283 -0.3500 -0.1497
  691loPI   GL1 9697  17.108   9.027   6.028  0.2028  0.1545 -0.2640
  691loPI   GL2 9698  17.315   8.639   6.117 -0.0230 -0.3953 -0.1799
  691loPI   C1A 9699  16.823   8.780   6.344 -0.0785 -0.0849  0.0485
  691loPI   C2A 9700  16.510   8.757   6.611 -0.0552 -0.2067  0.0462
  691loPI   C3A 9701  16.322   8.727   6.994  0.1706  0.2392  0.2203
  691loPI   C4A 9702  16.489   8.419   7.154  0.2835  0.1554  0.1496
  691loPI   C5A 9703  16.580   8.229   7.534  0.0762  0.2871 -0.1141
  691loPI   C6A 9704  16.846   8.079   7.971  0.0303 -0.0793 -0.0490
  691loPI   C1B 9705  17.327   8.916   6.445 -0.0168  0.0199 -0.0837
  691loPI   C2B 9706  17.056   9.149   6.658 -0.2532  0.2178  0.1488
  691loPI   C3B 9707  17.009   9.375   6.955  0.0876 -0.1120  0.0666
  691loPI   C4B 9708  17.234   9.417   7.327  0.0223  0.1061  0.0659
  692loPI    C1 9709  11.895   0.640   5.496  0.1797 -0.0545 -0.0324
  692loPI    C2 9710  11.763   0.773   5.142 -0.1361 -0.1886  0.0313
  692loPI    C3 9711  11.831   0.382   5.197 -0.0461 -0.1628  0.1066
  692loPI   PO4 9712  11.698   0.798   5.633 -0.3581  0.0025 -0.0579
  692loPI   GL1 9713  11.740   0.827   6.051  0.3925  0.0699 -0.1072
  692loPI   GL2 9714  11.475   0.950   6.296  0.3181 -0.1523 -0.1025
  692loPI   C1A 9715  11.931   0.637   6.396  0.1624 -0.0649 -0.2003
  692loPI   C2A 9716  11.936   0.362   6.779  0.3197 -0.1576 -0.0946
  692loPI   C3A 9717  11.929   0.340   7.237 -0.0048 -0.0656 -0.1426
  692loPI   C4A 9718  11.963   0.627   7.547 -0.1416  0.1427  0.1755
  692loPI   C5A 9719  12.105   0.998   7.865 -0.1766 -0.0310 -0.0757
  692loPI   C6A 9720  12.241   1.095   8.186  0.0754  0.3351 -0.0750
  692loPI   C1B 9721  11.671   1.091   6.558  0.1361 -0.1368 -0.1105
  692loPI   C2B 9722  11.534   1.188   6.942  0.0447  0.0270  0.3556
  692loPI   C3B 9723  11.744   1.026   7.313  0.1325  0.2694 -0.2739
  692loPI   C4B 9724  12.208   1.106   7.392 -0.0518 -0.0690 -0.0041
  693loPI    C1 9725  12.648   9.595   5.828  0.4975 -0.1980  0.0194
  693loPI    C2 9726  12.895   9.475   5.537  0.2880  0.0451 -0.2654
  693loPI    C3 9727  12.774   9.856   5.552 -0.0059 -0.0517 -0.0820
  693loPI   PO4 9728  12.710   9.395   6.035 -0.1433  0.0261  0.0405
  693loPI   GL1 9729  12.750   9.139   6.390 -0.0384 -0.1538 -0.1902
  693loPI   GL2 9730  12.961   8.974   6.406  0.0289  0.1924  0.0223
  693loPI   C1A 9731  12.623   8.976   6.803  0.1646  0.2610 -0.2963
  693loPI   C2A 9732  12.902   8.919   7.160  0.0779 -0.1632 -0.1109
  693loPI   C3A 9733  12.861   8.740   7.616 -0.2506  0.0792  0.0566
  693loPI   C4A 9734  12.895   8.587   8.058 -0.1813 -0.1746  0.2333
  693loPI   C5A 9735  12.599   8.658   8.365 -0.1909 -0.1491  0.3576
  693loPI   C6A 9736  12.188   8.810   8.489 -0.1142  0.0206  0.1258
  693loPI   C1B 9737  12.732   8.614   6.567 -0.0055 -0.0722  0.1166
  693loPI   C2B 9738  12.566   8.526   6.992 -0.0387  0.1785 -0.2336
  693loPI   C3B 9739  12.410   8.634   7.358 -0.0421 -0.0397  0.1679
  693loPI   C4B 9740  12.597   9.104   7.538 -0.0110 -0.0778 -0.1335
  694loPI    C1 9741  10.098  13.679   5.628 -0.2579  0.2555 -0.0085
  694loPI    C2 9742  10.458  13.798   5.501 -0.0377 -0.3067  0.0612
  694loPI    C3 9743  10.128  13.914   5.306  0.1932  0.0259 -0.1411
  694loPI   PO4 9744  10.079  13.730   5.912 -0.0161 -0.0740 -0.1152
  694loPI   GL1 9745   9.775  13.843   6.097  0.0455  0.2869 -0.0910
  694loPI   GL2 9746   9.955  13.883   6.390 -0.2169 -0.0531  0.2360
  694loPI   C1A 9747   9.535  13.664   6.509 -0.0740  0.1769  0.3574
  694loPI   C2A 9748   9.606  13.617   6.943 -0.0834 -0.0390  0.0016
  694loPI   C3A 9749   9.505  13.687   7.309 -0.0675 -0.0808 -0.1109
  694loPI   C4A 9750   9.507  13.771   7.697 -0.1036  0.4415 -0.1713
  694loPI   C5A 9751   9.560  13.789   8.131  0.0144 -0.0579 -0.3724
  694loPI   C6A 9752   9.716  14.058   8.294 -0.1578 -0.2076  0.0519
  694loPI   C1B 9753  10.065  14.126   6.561 -0.1116 -0.0136 -0.1587
  694loPI   C2B 9754  10.034  14.101   6.993 -0.1038 -0.3884  0.3317
  694loPI   C3B 9755   9.922  13.934   7.385  0.2923 -0.3175  0.0627
  694loPI   C4B 9756   9.991  13.752   7.720  0.2421  0.0987  0.2129
  695loPI    C1 9757  16.504   3.002   5.219  0.2881 -0.2224 -0.1326
  695loPI    C2 9758  16.756   2.996   4.908  0.1152 -0.1462 -0.2754
  695loPI    C3 9759  16.371   2.900   4.856  0.0322  0.1015 -0.1339
  695loPI   PO4 9760  16.626   2.890   5.438  0.0188 -0.2397  0.0196
  695loPI   GL1 9761  16.554   2.720   5.847  0.1788  0.0710 -0.1555
  695loPI   GL2 9762  16.230   2.804   5.733  0.2103 -0.1130 -0.2443
  695loPI   C1A 9763  16.829   2.687   6.196 -0.1644  0.0394  0.2153
  695loPI   C2A 9764  16.807   2.510   6.648  0.2434  0.1077  0.0199
  695loPI   C3A 9765  17.060   2.437   7.019 -0.0747  0.1039  0.2444
  695loPI   C4A 9766  17.350   2.468   7.364 -0.3227  0.3348  0.1422
  695loPI   C5A 9767  17.344   2.288   7.730 -0.1419 -0.0966  0.2944
  695loPI   C6A 9768  17.424   1.827   7.818  0.1387 -0.2183 -0.2019
  695loPI   C1B 9769  16.127   2.861   6.170 -0.1803  0.3106 -0.1048
  695loPI   C2B 9770  16.322   2.727   6.495 -0.1805 -0.0663  0.1955
  695loPI   C3B 9771  16.524   2.648   7.036 -0.1257 -0.0050  0.3496
  695loPI   C4B 9772  16.657   2.512   7.400 -0.2423 -0.2173 -0.2585
  696loPI    C1 9773   8.868   1.245   5.762  0.0259 -0.0501  0.1254
  696loPI    C2 9774   8.545   1.185   5.535  0.0973 -0.1288  0.0438
  696loPI    C3 9775   8.893   1.285   5.365  0.1033  0.0082  0.1358
  696loPI   PO4 9776   8.789   1.113   5.961  0.4167  0.2688  0.1880
  696loPI   GL1 9777   8.609   1.248   6.334  0.0612  0.0879 -0.0966
  696loPI   GL2 9778   8.386   1.412   6.060  0.0650 -0.2600  0.0989
  696loPI   C1A 9779   8.656   1.324   6.771 -0.1042  0.0687  0.0519
  696loPI   C2A 9780   8.703   1.482   7.094  0.0905  0.5375  0.0960
  696loPI   C3A 9781   8.724   1.671   7.489  0.0852 -0.2109 -0.2776
  696loPI   C4A 9782   8.761   1.718   8.026 -0.1801  0.1314  0.0849
  696loPI   C5A 9783   8.665   1.788   8.513 -0.0211  0.1442 -0.1102
  696loPI   C6A 9784   8.554   1.558   8.739  0.4718  0.1734  0.2966
  696loPI   C1B 9785   8.248   1.678   6.399 -0.0115 -0.1210  0.0387
  696loPI   C2B 9786   8.261   1.637   6.815 -0.1909  0.2365  0.2472
  696loPI   C3B 9787   8.257   1.734   7.279  0.0419 -0.0147  0.2799
  696loPI   C4B 9788   8.243   1.876   7.649  0.2153 -0.0846  0.2373
  697loPI    C1 9789   7.705  13.307   5.471 -0.1110 -0.2310  0.0123
  697loPI    C2 9790   7.499  13.574   5.257  0.1324 -0.0191  0.0368
  697loPI    C3 9791   7.833  13.414   5.107  0.0656 -0.2022  0.0815
  697loPI   PO4 9792   7.528  13.321   5.681 -0.3119  0.1394  0.0900
  697loPI   GL1 9793   7.675  13.137   6.028  0.2034  0.2681  0.2463
  697loPI   GL2 9794   7.636  12.815   6.075  0.0867  0.1561  0.2008
  697loPI   C1A 9795   7.680  13.353   6.400  0.1157 -0.1519 -0.1368
  697loPI   C2A 9796   7.958  13.674   6.747  0.2084 -0.0113  0.0812
  697loPI   C3A 9797   7.849  13.856   7.189  0.3773 -0.0124  0.0762
  697loPI   C4A 9798   7.664  13.857   7.652  0.0938 -0.0374  0.1601
  697loPI   C5A 9799   7.442  13.882   8.005 -0.0166  0.3382  0.3323
  697loPI   C6A 9800   7.148  14.015   8.347  0.2737 -0.0582 -0.1393
  697loPI   C1B 9801   7.469  12.885   6.444 -0.1883 -0.0957  0.0913
  697loPI   C2B 9802   7.204  12.688   6.721  0.0499 -0.0409  0.2374
  697loPI   C3B 9803   7.006  12.692   7.199 -0.1499 -0.1915  0.1735
  697loPI   C4B 9804   7.009  12.747   7.564 -0.0905 -0.1617  0.0436
  698loPI    C1 9805   3.903   7.468   4.877  0.0355  0.0809  0.0162
  698loPI    C2 9806   3.792   7.773   4.643  0.2463  0.1201 -0.0350
  698loPI    C3 9807   3.674   7.401   4.556  0.1116  0.1674 -0.0567
  698loPI   PO4 9808   3.902   7.579   5.091 -0.1444  0.4467 -0.2068
  698loPI   GL1 9809   3.967   7.629   5.571  0.0420 -0.2732  0.1878
  698loPI   GL2 9810   3.750   7.439   5.742  0.0875  0.0037  0.0190
  698loPI   C1A 9811   3.957   7.840   5.955 -0.2108 -0.0054  0.1247
  698loPI   C2A 9812   4.023   7.852   6.404 -0.0153  0.0644 -0.0913
  698loPI   C3A 9813   3.922   7.763   6.727 -0.2102  0.1346 -0.1528
  698loPI   C4A 9814   3.875   7.942   7.148  0.1691 -0.0847  0.3835
  698loPI   C5A 9815   3.845   8.320   7.418 -0.1767  0.3128  0.1060
  698loPI   C6A 9816   3.989   8.383   7.815  0.1077 -0.0826  0.3494
  698loPI   C1B 9817   3.678   7.346   6.163 -0.1120 -0.0314  0.1188
  698loPI   C2B 9818   3.760   7.306   6.628  0.2643 -0.2631 -0.0185
  698loPI   C3B 9819   3.958   7.281   7.008  0.0352  0.5540 -0.0159
  698loPI   C4B 9820   4.146   7.556   7.290  0.1989 -0.0846  0.0175
  699loPI    C1 9821   6.324   5.961   4.877  0.3148  0.1309  0.0578
  699loPI    C2 9822   6.216   5.576   4.882 -0.1572  0.2570  0.0251
  699loPI    C3 9823   6.574   5.682   4.739 -0.1588 -0.1370 -0.2869
  699loPI   PO4 9824   6.386   6.039   5.208 -0.0622  0.0556  0.0157
  699loPI   GL1 9825   6.057   5.850   5.507  0.3339  0.1077 -0.0311
  699loPI   GL2 9826   6.066   6.306   5.480  0.1860 -0.0137 -0.0514
  699loPI   C1A 9827   5.769   6.025   5.790 -0.0266  0.2451  0.0494
  699loPI   C2A 9828   5.689   6.178   6.318  0.0349 -0.3919  0.1807
  699loPI   C3A 9829   5.765   6.178   6.685  0.2372  0.2799 -0.2104
  699loPI   C4A 9830   5.626   6.122   7.169  0.0906  0.0667  0.1947
  699loPI   C5A 9831   5.728   5.896   7.567 -0.0193  0.1389 -0.0833
  699loPI   C6A 9832   5.439   5.589   7.683 -0.2268 -0.4778  0.1877
  699loPI   C1B 9833   5.852   6.508   5.891 -0.2848  0.1742 -0.3786
  699loPI   C2B 9834   6.025   6.591   6.306  0.1517 -0.1961 -0.0880
  699loPI   C3B 9835   6.032   6.666   6.683 -0.2867  0.0236 -0.0568
  699loPI   C4B 9836   6.019   6.402   7.069 -0.1658 -0.1342 -0.1438
  700loPI    C1 9837  12.329   7.945   5.400  0.1072 -0.3152  0.1337
  700loPI    C2 9838  12.161   7.644   5.197  0.0408 -0.0727 -0.1782
  700loPI    C3 9839  12.522   7.781   5.090  0.2293 -0.2706  0.1855
  700loPI   PO4 9840  12.244   7.835   5.666  0.1599  0.0945  0.1952
  700loPI   GL1 9841  12.273   7.676   6.088 -0.1162  0.1498 -0.0790
  700loPI   GL2 9842  11.878   7.592   6.051 -0.0165 -0.1318  0.1152
  700loPI   C1A 9843  12.337   7.648   6.602  0.1786  0.2336  0.2061
  700loPI   C2A 9844  12.340   7.307   6.892  0.0166 -0.0839  0.0874
  700loPI   C3A 9845  11.997   6.989   7.257  0.1868 -0.0505  0.2365
  700loPI   C4A 9846  12.018   7.045   7.718  0.3393 -0.0475 -0.2662
  700loPI   C5A 9847  12.395   7.186   7.769  0.0034 -0.4265  0.2600
  700loPI   C6A 9848  12.618   7.213   8.105 -0.2585  0.0539 -0.1563
  700loPI   C1B 9849  11.837   7.529   6.390 -0.0547  0.1208 -0.2874
  700loPI   C2B 9850  11.851   7.306   6.767 -0.1473 -0.0852 -0.0106
  700loPI   C3B 9851  11.729   7.445   7.133 -0.0049  0.0699 -0.0500
  700loPI   C4B 9852  11.710   7.336   7.474  0.0331  0.0472 -0.0853
  701loPI    C1 9853  13.044  11.532   5.819 -0.0756  0.2222 -0.0905
  701loPI    C2 9854  13.401  11.443   5.664 -0.0007  0.0554  0.1717
  701loPI    C3 9855  13.069  11.385   5.449  0.1260  0.1791 -0.0606
  701loPI   PO4 9856  13.197  11.717   6.020  0.0176 -0.2396  0.0653
  701loPI   GL1 9857  13.222  11.722   6.447  0.1274  0.2589  0.1530
  701loPI   GL2 9858  13.472  11.797   6.538  0.2372 -0.0554 -0.3193
  701loPI   C1A 9859  13.065  11.672   6.878 -0.3799 -0.0211 -0.0743
  701loPI   C2A 9860  13.206  11.512   7.277  0.0821 -0.0249  0.1751
  701loPI   C3A 9861  13.411  11.195   7.411  0.2641 -0.3347 -0.0664
  701loPI   C4A 9862  13.480  11.214   7.817  0.0032 -0.0086 -0.2302
  701loPI   C5A 9863  13.765  11.504   8.027  0.1263 -0.1877  0.3633
  701loPI   C6A 9864  13.932  11.863   8.189  0.1356  0.2302 -0.0220
  701loPI   C1B 9865  13.402  12.023   6.821 -0.0345 -0.0018 -0.1844
  701loPI   C2B 9866  13.346  12.101   7.222 -0.0365  0.0231  0.2757
  701loPI   C3B 9867  13.220  11.901   7.553  0.0699  0.2547  0.0855
  701loPI   C4B 9868  13.258  11.699   8.045 -0.0356  0.0372 -0.1688
  702loPI    C1 9869   7.743  15.181   5.754  0.1146  0.1623 -0.1564
  702loPI    C2 9870   7.792  15.188   5.357  0.3946  0.2028 -0.1230
  702loPI    C3 9871   7.936  14.882   5.570 -0.1437 -0.0444 -0.0981
  702loPI   PO4 9872   7.847  15.316   5.985 -0.0253 -0.0626 -0.1411
  702loPI   GL1 9873   8.240  15.511   6.193 -0.1908 -0.2930 -0.1979
  702loPI   GL2 9874   8.625  15.617   6.371  0.0096 -0.1559 -0.0579
  702loPI   C1A 9875   7.926  15.576   6.568  0.0915  0.5225  0.2087
  702loPI   C2A 9876   7.809  15.589   6.913  0.4347 -0.0431 -0.0025
  702loPI   C3A 9877   7.868  15.568   7.227 -0.0292 -0.1374  0.1527
  702loPI   C4A 9878   7.968  15.390   7.594 -0.2639  0.0638 -0.3333
  702loPI   C5A 9879   7.964  15.361   8.129  0.6002  0.0104 -0.2528
  702loPI   C6A 9880   8.015  15.441   8.547 -0.1963 -0.1105 -0.2907
  702loPI   C1B 9881   8.650  15.660   6.744  0.0639 -0.0751 -0.2312
  702loPI   C2B 9882   8.919  15.890   7.026  0.0769 -0.2536  0.2151
  702loPI   C3B 9883   9.022  16.013   7.363  0.2792 -0.3381 -0.2647
  702loPI   C4B 9884   8.930  16.407   7.543 -0.0068  0.4360  0.4649
  703loPI    C1 9885  14.476   9.712   5.524  0.1483 -0.1495 -0.1265
  703loPI    C2 9886  14.191   9.733   5.244 -0.0461 -0.0625  0.0749
  703loPI    C3 9887  14.308   9.377   5.384  0.1304 -0.1129 -0.1932
  703loPI   PO4 9888  14.458   9.860   5.710 -0.1722  0.2036 -0.1866
  703loPI   GL1 9889  14.468   9.863   6.136 -0.0386  0.0912 -0.0848
  703loPI   GL2 9890  14.268   9.725   6.143 -0.3726 -0.1041 -0.2726
  703loPI   C1A 9891  14.639   9.706   6.482  0.0157  0.1368 -0.0146
  703loPI   C2A 9892  14.461   9.682   6.838 -0.1707  0.4215  0.3274
  703loPI   C3A 9893  14.130   9.688   7.161  0.0813  0.3115 -0.2211
  703loPI   C4A 9894  14.148   9.834   7.604  0.4787 -0.1448  0.2070
  703loPI   C5A 9895  14.155   9.855   7.978 -0.0485 -0.0128  0.0658
  703loPI   C6A 9896  13.996   9.539   8.281  0.0661 -0.1046 -0.0937
  703loPI   C1B 9897  14.043   9.778   6.542 -0.3575  0.0369 -0.2211
  703loPI   C2B 9898  13.900   9.926   6.808  0.0912 -0.2599  0.1673
  703loPI   C3B 9899  13.804  10.049   7.282  0.0999  0.2188  0.1646
  703loPI   C4B 9900  13.600  10.104   7.716 -0.0651 -0.0269 -0.2501
  704loPI    C1 9901  15.261   3.480   5.099  0.0018  0.1847 -0.0179
  704loPI    C2 9902  15.327   3.647   4.741 -0.1763  0.0398 -0.1203
  704loPI    C3 9903  15.382   3.254   4.792 -0.3155  0.0307 -0.0343
  704loPI   PO4 9904  15.370   3.573   5.253  0.0272 -0.3680 -0.2558
  704loPI   GL1 9905  15.313   3.814   5.580 -0.0797 -0.0190  0.0891
  704loPI   GL2 9906  15.059   3.915   5.745  0.3631 -0.0756 -0.1724
  704loPI   C1A 9907  15.570   3.755   5.952 -0.0120 -0.0787 -0.0069
  704loPI   C2A 9908  15.623   3.605   6.362 -0.0974  0.3522 -0.0591
  704loPI   C3A 9909  15.442   3.820   6.717 -0.1406  0.0041 -0.1392
  704loPI   C4A 9910  15.331   4.039   6.993 -0.2212 -0.0203  0.4971
  704loPI   C5A 9911  15.378   4.104   7.410 -0.2668 -0.1419  0.3194
  704loPI   C6A 9912  15.696   4.186   7.690 -0.0704 -0.2098  0.2801
  704loPI   C1B 9913  15.131   3.727   6.144  0.1018 -0.1144 -0.0553
  704loPI   C2B 9914  15.110   3.547   6.527 -0.1008  0.0851 -0.0777
  704loPI   C3B 9915  15.022   3.144   6.752  0.3416 -0.1115  0.1583
  704loPI   C4B 9916  15.309   2.896   6.946  0.0730 -0.0491 -0.1149
  705loPI    C1 9917   5.370  13.687   5.318 -0.3781 -0.1648 -0.3463
  705loPI    C2 9918   5.368  13.364   5.554 -0.0333  0.0061 -0.1001
  705loPI    C3 9919   5.581  13.363   5.216 -0.0707 -0.0405 -0.1236
  705loPI   PO4 9920   5.087  13.752   5.235  0.0628 -0.3855  0.1885
  705loPI   GL1 9921   4.996  13.877   5.651  0.0716  0.0590  0.2637
  705loPI   GL2 9922   4.985  13.592   5.812 -0.0091 -0.1082  0.0356
  705loPI   C1A 9923   5.053  14.209   5.899  0.1997 -0.2244  0.2008
  705loPI   C2A 9924   5.048  14.198   6.305  0.4614 -0.3860  0.2203
  705loPI   C3A 9925   5.064  14.255   6.724  0.1689 -0.0290  0.1453
  705loPI   C4A 9926   4.911  14.245   7.136  0.0237 -0.0421  0.0606
  705loPI   C5A 9927   4.687  14.033   7.503  0.2530 -0.2050 -0.2163
  705loPI   C6A 9928   4.344  14.109   7.794  0.1005 -0.1989  0.2337
  705loPI   C1B 9929   4.870  13.337   6.233 -0.1854 -0.3939  0.0011
  705loPI   C2B 9930   4.867  13.329   6.705  0.0073 -0.0756 -0.1274
  705loPI   C3B 9931   5.177  13.276   7.013 -0.2938  0.3278 -0.1386
  705loPI   C4B 9932   5.251  13.456   7.508 -0.0161 -0.0577  0.1538
  706loPI    C1 9933   9.401  10.222   5.272  0.0141  0.0502  0.1329
  706loPI    C2 9934   9.059  10.399   5.381 -0.0700 -0.0266 -0.0038
  706loPI    C3 9935   9.303  10.579   5.121  0.0372  0.0686  0.1617
  706loPI   PO4 9936   9.513  10.199   5.510 -0.0316 -0.3120  0.3659
  706loPI   GL1 9937   9.316  10.186   5.912 -0.0529 -0.3457 -0.0333
  706loPI   GL2 9938   9.636  10.008   5.942  0.1607 -0.0838 -0.1737
  706loPI   C1A 9939   9.243  10.248   6.349  0.3108  0.1234  0.0470
  706loPI   C2A 9940   8.999  10.300   6.830 -0.2314 -0.1712 -0.2821
  706loPI   C3A 9941   8.691  10.354   7.062 -0.0129 -0.0621  0.1969
  706loPI   C4A 9942   8.580  10.204   7.509  0.1529  0.0466  0.2192
  706loPI   C5A 9943   8.712   9.876   7.857  0.0761 -0.1136 -0.1000
  706loPI   C6A 9944   8.998   9.751   8.047 -0.1046  0.1575 -0.0873
  706loPI   C1B 9945   9.610   9.916   6.332 -0.1546  0.2479  0.1364
  706loPI   C2B 9946   9.284   9.879   6.703  0.2814 -0.1254 -0.1252
  706loPI   C3B 9947   9.263   9.924   7.110  0.0137 -0.3053  0.2043
  706loPI   C4B 9948   8.929   9.893   7.394  0.2841  0.4053 -0.0029
  707loPI    C1 9949  13.555  10.378   5.946  0.0716  0.1152  0.1260
  707loPI    C2 9950  13.329  10.595   5.698  0.0688 -0.0434 -0.0121
  707loPI    C3 9951  13.685  10.459   5.576 -0.0170 -0.2844  0.0028
  707loPI   PO4 9952  13.371  10.175   6.026 -0.1814 -0.2536 -0.2378
  707loPI   GL1 9953  13.214  10.062   6.319  0.0524 -0.2904 -0.0490
  707loPI   GL2 9954  12.913  10.208   6.432  0.1305 -0.1596  0.2349
  707loPI   C1A 9955  13.429  10.049   6.705 -0.1310 -0.2766  0.1990
  707loPI   C2A 9956  13.383  10.005   7.056 -0.2874 -0.2943 -0.0275
  707loPI   C3A 9957  13.250   9.794   7.436  0.0749 -0.0080 -0.2624
  707loPI   C4A 9958  13.186   9.820   7.841  0.2495  0.0109  0.0600
  707loPI   C5A 9959  13.031  10.053   8.115  0.0285 -0.1254  0.1203
  707loPI   C6A 9960  13.035  10.328   8.425  0.0007  0.1666 -0.2354
  707loPI   C1B 9961  13.014  10.276   6.882 -0.1402 -0.2801 -0.4348
  707loPI   C2B 9962  13.094  10.704   7.074  0.1403 -0.0252  0.0120
  707loPI   C3B 9963  13.133  10.835   7.574 -0.1824 -0.3017  0.4608
  707loPI   C4B 9964  13.117  10.932   8.019  0.4685 -0.1834  0.2353
  708loPI    C1 9965  14.531  12.065   5.536 -0.0939  0.0177 -0.0233
  708loPI    C2 9966  14.749  11.850   5.278  0.2219  0.3609 -0.0498
  708loPI    C3 9967  14.486  12.119   5.142  0.0334  0.1965 -0.0144
  708loPI   PO4 9968  14.719  12.061   5.750  0.2059 -0.0485 -0.2970
  708loPI   GL1 9969  14.623  11.855   6.127 -0.1457  0.1062 -0.0963
  708loPI   GL2 9970  14.396  11.962   6.148  0.3632 -0.0693  0.0888
  708loPI   C1A 9971  14.873  11.976   6.565 -0.1868 -0.1188 -0.1762
  708loPI   C2A 9972  14.899  11.942   6.998 -0.1423  0.3357 -0.0265
  708loPI   C3A 9973  14.743  11.879   7.412  0.1256 -0.2227  0.0683
  708loPI   C4A 9974  14.692  11.891   7.855  0.0543 -0.0182  0.0785
  708loPI   C5A 9975  14.873  12.109   8.136 -0.1804 -0.2274  0.0502
  708loPI   C6A 9976  14.810  12.448   8.435 -0.1320 -0.0719 -0.0491
  708loPI   C1B 9977  14.349  12.075   6.579  0.1051 -0.2351 -0.2652
  708loPI   C2B 9978  14.375  12.063   7.026  0.2840 -0.1578  0.0314
  708loPI   C3B 9979  14.265  11.961   7.453  0.3668  0.2595 -0.0554
  708loPI   C4B 9980  14.132  11.775   7.727 -0.0670  0.0979  0.1689
  709loPI    C1 9981  15.197  10.752   5.594  0.0749  0.0763  0.0338
  709loPI    C2 9982  15.366  10.899   5.262  0.2583 -0.0618  0.0642
  709loPI    C3 9983  15.199  10.535   5.257 -0.2026  0.1436 -0.0135
  709loPI   PO4 9984  15.398  10.847   5.792 -0.1055 -0.1184  0.2973
  709loPI   GL1 9985  15.743  10.711   6.035 -0.0224 -0.1723 -0.0534
  709loPI   GL2 9986  15.731  11.067   6.155  0.0498  0.0096  0.1773
  709loPI   C1A 9987  15.663  10.480   6.345 -0.0668 -0.1513  0.0306
  709loPI   C2A 9988  15.761  10.464   6.794  0.0395  0.0673 -0.0491
  709loPI   C3A 9989  15.723  10.393   7.307  0.0781  0.1437  0.2046
  709loPI   C4A 9990  15.469  10.384   7.673  0.2667  0.1651 -0.2219
  709loPI   C5A 9991  15.365  10.496   8.126  0.3608 -0.0514 -0.0456
  709loPI   C6A 9992  15.310  10.569   8.614  0.1636 -0.0584  0.2974
  709loPI   C1B 9993  15.746  10.950   6.517  0.0279  0.1506 -0.1205
  709loPI   C2B 9994  15.798  10.889   6.982 -0.1611  0.2318 -0.0722
  709loPI   C3B 9995  15.727  10.884   7.481 -0.0951  0.0148 -0.0453
  709loPI   C4B 9996  15.947  11.075   7.789 -0.1540  0.2422 -0.0233
  710loPI    C1 9997   9.423  13.019   5.768  0.1088 -0.0292  0.0966
  710loPI    C2 9998   9.615  13.057   5.420  0.1060  0.0595  0.1046
  710loPI    C3 9999   9.248  12.898   5.429  0.0921  0.0889  0.0628
  710loPI   PO410000   9.488  12.905   5.905  0.1144  0.1493  0.3687
  710loPI   GL110001   9.761  12.978   6.222  0.1938 -0.1521 -0.1618
  710loPI   GL210002  10.075  12.840   6.299 -0.3592  0.0265  0.0093
  710loPI   C1A10003   9.516  13.060   6.668 -0.0045 -0.0221 -0.0244
  710loPI   C2A10004   9.419  13.113   7.111 -0.1063  0.0220 -0.0427
  710loPI   C3A10005   9.428  13.097   7.555  0.0243  0.0005 -0.2396
  710loPI   C4A10006   9.366  12.951   7.956 -0.2430 -0.2161  0.1125
  710loPI   C5A10007   9.535  12.777   8.280  0.2496  0.1083 -0.0970
  710loPI   C6A10008   9.516  12.882   8.713 -0.0212 -0.0743 -0.3689
  710loPI   C1B10009  10.128  12.799   6.775 -0.0566 -0.0396  0.0449
  710loPI   C2B10010  10.325  12.688   7.021 -0.2645  0.0123 -0.0843
  710loPI   C3B10011  10.407  12.445   7.504  0.3508  0.0488 -0.0224
  710loPI   C4B10012  10.367  12.129   7.817  0.0522  0.2293 -0.1420
  711loPI    C110013   5.799   2.109   5.209  0.0165 -0.2423  0.1677
  711loPI    C210014   6.178   2.013   5.291  0.0591 -0.1981  0.0253
  711loPI    C310015   5.935   1.743   5.125  0.0920 -0.1571 -0.0905
  711loPI   PO410016   5.716   2.202   5.341 -0.0350 -0.2343 -0.0480
  711loPI   GL110017   5.627   2.171   5.828  0.2644  0.3707 -0.1194
  711loPI   GL210018   5.649   2.486   5.852  0.0620 -0.1391  0.0501
  711loPI   C1A10019   5.942   2.227   6.203  0.0336  0.0336 -0.1261
  711loPI   C2A10020   5.917   2.411   6.620  0.2145  0.2533 -0.3010
  711loPI   C3A10021   6.226   2.534   6.959 -0.3592 -0.1532 -0.2263
  711loPI   C4A10022   6.640   2.684   7.170 -0.1359  0.0671  0.1288
  711loPI   C5A10023   6.881   2.754   7.544  0.3614  0.1163  0.1610
  711loPI   C6A10024   6.944   2.575   7.961  0.0623 -0.2731  0.1384
  711loPI   C1B10025   5.512   2.580   6.232  0.0319 -0.0047  0.1557
  711loPI   C2B10026   5.441   2.702   6.647  0.0011  0.5068 -0.1241
  711loPI   C3B10027   5.667   2.538   7.096  0.0088 -0.3145 -0.0041
  711loPI   C4B10028   5.622   2.503   7.372  0.2434 -0.2946 -0.0070
  712loPI    C110029   2.245  14.246   5.270 -0.0419  0.3405  0.1288
  712loPI    C210030   2.236  14.467   4.936  0.1104  0.2081  0.0353
  712loPI    C310031   2.458  14.135   4.950  0.0615  0.1827  0.2510
  712loPI   PO410032   2.035  14.279   5.314  0.4398  0.3285 -0.2271
  712loPI   GL110033   1.805  14.178   5.724 -0.1267  0.1531 -0.2918
  712loPI   GL210034   1.734  13.823   5.869  0.0995  0.2332  0.0525
  712loPI   C1A10035   1.644  14.450   6.068 -0.1115 -0.0809 -0.1911
  712loPI   C2A10036   1.574  14.611   6.423  0.6660  0.0903  0.1823
  712loPI   C3A10037   1.640  14.721   6.807  0.1071  0.2927 -0.0266
  712loPI   C4A10038   1.699  14.798   7.264 -0.0512 -0.3620 -0.1657
  712loPI   C5A10039   2.035  14.838   7.547 -0.0774  0.2363  0.0956
  712loPI   C6A10040   2.418  14.907   7.743 -0.1035 -0.3069 -0.0515
  712loPI   C1B10041   1.699  13.920   6.284  0.0844 -0.0391  0.0935
  712loPI   C2B10042   1.619  14.009   6.719 -0.0419 -0.2048 -0.3600
  712loPI   C3B10043   1.623  13.926   7.173  0.1385 -0.3231 -0.1347
  712loPI   C4B10044   1.670  13.686   7.529 -0.1892 -0.2675  0.1090
  713loPI    C110045   0.066   9.722   5.476  0.0152 -0.0831  0.1659
  713loPI    C210046   0.309   9.460   5.654  0.0477 -0.1152  0.0749
  713loPI    C310047   0.326   9.511   5.257  0.0269  0.0093  0.0897
  713loPI   PO410048   0.012   9.893   5.691  0.0377 -0.2708 -0.1120
  713loPI   GL110049   0.211   9.964   6.066  0.1716  0.1127  0.0219
  713loPI   GL210050   0.345   9.648   6.146  0.1087 -0.2285  0.2179
  713loPI   C1A10051  -0.122   9.741   6.337 -0.1974 -0.2949  0.0890
  713loPI   C2A10052  -0.353   9.912   6.681 -0.1530 -0.0638  0.0866
  713loPI   C3A10053  -0.421  10.230   7.022  0.1353  0.0759  0.1406
  713loPI   C4A10054  -0.347  10.434   7.450 -0.1272 -0.0103 -0.0959
  713loPI   C5A10055  -0.275  10.643   7.789  0.0833  0.1047  0.3849
  713loPI   C6A10056  -0.278  10.821   8.256  0.3379 -0.2058 -0.1099
  713loPI   C1B10057   0.454   9.791   6.491 -0.0578 -0.2172  0.0326
  713loPI   C2B10058   0.130   9.818   6.790 -0.0867  0.0184  0.0138
  713loPI   C3B10059  -0.103   9.786   7.082  0.0903 -0.3527  0.3555
  713loPI   C4B10060  -0.356   9.915   7.453 -0.2501 -0.1335  0.1410
  714loPI    C110061   9.548  16.626   5.645  0.0305 -0.4400  0.0936
  714loPI    C210062   9.473  16.403   5.322 -0.0962 -0.1558 -0.0774
  714loPI    C310063   9.850  16.499   5.416 -0.0557 -0.2752 -0.1150
  714loPI   PO410064   9.478  16.607   5.973  0.3402 -0.2818  0.2405
  714loPI   GL110065   9.674  16.576   6.261  0.1528 -0.1360 -0.0007
  714loPI   GL210066   9.844  16.339   6.317  0.3190  0.4216  0.2044
  714loPI   C1A10067   9.655  16.589   6.660 -0.4030  0.0864 -0.6018
  714loPI   C2A10068   9.536  16.588   7.020 -0.0562  0.1654 -0.0276
  714loPI   C3A10069   9.495  16.351   7.402 -0.0091 -0.0391  0.0383
  714loPI   C4A10070   9.350  16.177   7.805  0.0360 -0.0307 -0.0851
  714loPI   C5A10071   9.411  16.079   8.198  0.1803 -0.0454  0.5387
  714loPI   C6A10072   9.312  16.107   8.626 -0.0780  0.1875  0.3912
  714loPI   C1B10073  10.107  16.166   6.625 -0.0322  0.2563  0.0708
  714loPI   C2B10074  10.337  16.059   7.042 -0.0111 -0.3306 -0.2189
  714loPI   C3B10075  10.579  16.120   7.405 -0.2169  0.0920  0.0617
  714loPI   C4B10076  10.788  16.076   7.879  0.1732  0.0820 -0.1678
  715loPI    C110077  18.027   1.308   5.571  0.0167  0.1192 -0.0233
  715loPI    C210078  18.145   1.667   5.441 -0.1772  0.1126 -0.2240
  715loPI    C310079  17.905   1.442   5.214 -0.1812 -0.0793 -0.0322
  715loPI   PO410080  18.208   1.188   5.694 -0.2996  0.2839  0.0505
  715loPI   GL110081  18.431   0.936   5.959  0.5077 -0.0274 -0.1493
  715loPI   GL210082  18.644   1.116   6.090 -0.0730  0.2658  0.0114
  715loPI   C1A10083  18.210   0.926   6.370 -0.0206 -0.0114 -0.0465
  715loPI   C2A10084  18.229   0.953   6.841 -0.0374  0.1674 -0.1147
  715loPI   C3A10085  18.574   0.915   7.058  0.0362 -0.0409  0.1922
  715loPI   C4A10086  18.748   0.825   7.313  0.0294  0.2476 -0.3572
  715loPI   C5A10087  18.887   0.675   7.820 -0.2441  0.0037  0.2671
  715loPI   C6A10088  18.986   0.279   7.851  0.2513  0.0882  0.0421
  715loPI   C1B10089  18.925   1.369   6.174 -0.0796  0.0303  0.0220
  715loPI   C2B10090  19.087   1.467   6.530  0.3209 -0.2572 -0.2004
  715loPI   C3B10091  19.030   1.209   6.886  0.2311  0.1266  0.2059
  715loPI   C4B10092  19.043   0.715   6.919  0.1733  0.2382  0.3568
  716loPI    C110093   2.130   0.815   5.249  0.1530 -0.2158 -0.2644
  716loPI    C210094   1.983   0.634   4.924 -0.0782  0.0366 -0.3040
  716loPI    C310095   1.852   0.998   5.027  0.0306 -0.0191  0.0440
  716loPI   PO410096   2.085   0.713   5.454 -0.1635 -0.3445 -0.2229
  716loPI   GL110097   1.903   0.475   5.764 -0.2300  0.1949  0.0851
  716loPI   GL210098   1.808   0.202   5.748 -0.2762  0.1511 -0.0451
  716loPI   C1A10099   1.744   0.595   6.182  0.1518  0.2372  0.1488
  716loPI   C2A10100   1.531   0.814   6.500 -0.2866 -0.0864 -0.1647
  716loPI   C3A10101   1.520   0.813   6.870  0.2550 -0.2913  0.3106
  716loPI   C4A10102   1.482   0.698   7.375 -0.1804 -0.2472 -0.1608
  716loPI   C5A10103   1.408   0.448   7.746  0.1954  0.0344 -0.0720
  716loPI   C6A10104   1.222   0.261   8.006  0.0468  0.1594 -0.1047
  716loPI   C1B10105   1.677  -0.101   6.015  0.0471 -0.2511 -0.0471
  716loPI   C2B10106   1.360  -0.252   6.231 -0.0237 -0.2552 -0.1870
  716loPI   C3B10107   1.280  -0.550   6.557 -0.2687 -0.1752 -0.0530
  716loPI   C4B10108   1.298  -0.724   6.950  0.1537  0.0248 -0.3076
  717loPI    C110109   1.641   3.695   4.870  0.0719 -0.0894 -0.0386
  717loPI    C210110   1.849   3.358   4.816  0.4020  0.0870  0.1002
  717loPI    C310111   1.666   3.532   4.506  0.3223 -0.1578  0.0072
  717loPI   PO410112   1.571   3.706   5.151  0.2828 -0.3194  0.0265
  717loPI   GL110113   1.700   3.960   5.513  0.4593 -0.0407 -0.0101
  717loPI   GL210114   1.927   3.901   5.601 -0.0505 -0.0859  0.0491
  717loPI   C1A10115   1.635   3.850   5.972 -0.0716 -0.2358 -0.0096
  717loPI   C2A10116   1.556   3.912   6.396  0.0925  0.2696 -0.0088
  717loPI   C3A10117   1.546   3.875   6.831  0.1041 -0.0683 -0.0219
  717loPI   C4A10118   1.481   3.763   7.301 -0.1787  0.5060 -0.1365
  717loPI   C5A10119   1.334   4.014   7.568  0.3340  0.0106  0.1123
  717loPI   C6A10120   1.616   4.363   7.591  0.0075  0.0311  0.2291
  717loPI   C1B10121   2.013   4.145   5.997  0.2191 -0.1980 -0.1773
  717loPI   C2B10122   1.947   4.202   6.481 -0.2483  0.1106 -0.0137
  717loPI   C3B10123   1.982   4.210   6.875  0.0946 -0.1346  0.0573
  717loPI   C4B10124   1.912   4.069   7.265 -0.0501  0.0042  0.0104
  718loPI    C110125  15.715   0.925   5.658  0.1040 -0.1187  0.1163
  718loPI    C210126  15.721   1.206   5.373  0.2278 -0.1237  0.1134
  718loPI    C310127  15.492   0.881   5.328  0.0675 -0.0138  0.1267
  718loPI   PO410128  15.767   1.056   5.907 -0.1845  0.5473 -0.0597
  718loPI   GL110129  15.576   1.259   6.219 -0.4015 -0.0673  0.0444
  718loPI   GL210130  15.530   1.583   6.270 -0.1088  0.1792 -0.2696
  718loPI   C1A10131  15.551   1.091   6.616 -0.0289  0.0300  0.1646
  718loPI   C2A10132  15.340   0.887   6.910 -0.0443 -0.0820  0.3397
  718loPI   C3A10133  15.358   0.645   7.314 -0.0989  0.2380 -0.1286
  718loPI   C4A10134  15.443   0.324   7.583 -0.2937 -0.0687  0.1325
  718loPI   C5A10135  15.508   0.097   7.937 -0.2161 -0.3631 -0.4029
  718loPI   C6A10136  15.248   0.012   8.112  0.2128 -0.1922 -0.1299
  718loPI   C1B10137  15.556   1.665   6.676  0.0396 -0.0325 -0.1605
  718loPI   C2B10138  15.687   1.716   7.098  0.0443  0.0394  0.0008
  718loPI   C3B10139  15.786   1.995   7.473 -0.2735 -0.2909 -0.2388
  718loPI   C4B10140  15.653   2.341   7.652  0.2557  0.1890  0.0435
  719loPI    C110141  14.064   4.703   4.837  0.1368  0.0751  0.0089
  719loPI    C210142  14.461   4.706   4.887  0.1477 -0.1760 -0.0507
  719loPI    C310143  14.278   4.376   4.752 -0.0557  0.0100 -0.2380
  719loPI   PO410144  13.977   4.844   5.097  0.0575 -0.1453  0.1302
  719loPI   GL110145  13.874   4.685   5.493 -0.1822  0.1704  0.0425
  719loPI   GL210146  14.107   4.826   5.655 -0.0117 -0.2620  0.0690
  719loPI   C1A10147  13.677   4.560   5.894  0.4035  0.1553  0.0881
  719loPI   C2A10148  13.186   4.515   6.175  0.1479 -0.1934  0.4185
  719loPI   C3A10149  13.006   4.440   6.655 -0.0095  0.0974 -0.0048
  719loPI   C4A10150  13.059   4.263   7.045  0.1262 -0.1962 -0.2907
  719loPI   C5A10151  13.229   4.437   7.400  0.0676 -0.1356 -0.2816
  719loPI   C6A10152  13.072   4.857   7.657 -0.2369 -0.1678  0.0024
  719loPI   C1B10153  14.164   4.816   6.096  0.0136 -0.3324  0.0417
  719loPI   C2B10154  14.017   4.627   6.548  0.2078 -0.0559 -0.2103
  719loPI   C3B10155  14.109   4.390   6.955 -0.0513 -0.1219  0.1609
  719loPI   C4B10156  14.322   4.151   7.320  0.1111  0.1874  0.0454
  720loPI    C110157  12.954   3.115   5.076 -0.0217 -0.0120 -0.0218
  720loPI    C210158  13.193   2.910   5.324  0.0478 -0.0676 -0.1341
  720loPI    C310159  13.350   3.115   5.019 -0.0447 -0.0707 -0.1842
  720loPI   PO410160  12.758   3.152   5.274  0.0941 -0.0529  0.1382
  720loPI   GL110161  12.871   3.197   5.721  0.0855 -0.1475 -0.2171
  720loPI   GL210162  12.719   2.964   5.782  0.0594 -0.4020 -0.1270
  720loPI   C1A10163  12.921   3.588   5.988 -0.1437  0.3101 -0.1974
  720loPI   C2A10164  13.035   3.519   6.457  0.1429 -0.1760 -0.1253
  720loPI   C3A10165  13.021   3.458   6.820  0.2845  0.0078  0.0544
  720loPI   C4A10166  13.108   3.428   7.187  0.0684  0.0481 -0.3621
  720loPI   C5A10167  13.065   3.624   7.566  0.3707  0.0892  0.0901
  720loPI   C6A10168  12.660   3.856   7.576  0.1351 -0.1018  0.0858
  720loPI   C1B10169  12.721   3.090   6.178 -0.2507  0.0329  0.2816
  720loPI   C2B10170  12.630   3.251   6.597 -0.3888  0.2293 -0.1701
  720loPI   C3B10171  12.692   3.131   7.016  0.1079 -0.0128 -0.1299
  720loPI   C4B10172  12.431   2.951   7.390  0.1731 -0.3022  0.1936
  721loPI    C110173  15.740  11.451   5.827 -0.1231  0.0107 -0.0556
  721loPI    C210174  15.705  11.634   5.473 -0.2281  0.1989  0.0500
  721loPI    C310175  15.482  11.312   5.554  0.0253 -0.0381 -0.1720
  721loPI   PO410176  15.739  11.563   6.017  0.0628  0.1920  0.0819
  721loPI   GL110177  16.111  11.877   6.165  0.0940 -0.1358 -0.2787
  721loPI   GL210178  16.308  12.151   6.253 -0.2616 -0.2290 -0.2667
  721loPI   C1A10179  16.148  11.733   6.498 -0.2745  0.2443 -0.1654
  721loPI   C2A10180  16.102  11.625   6.902  0.1587  0.2962 -0.0635
  721loPI   C3A10181  16.271  11.564   7.354  0.0822  0.2871  0.0483
  721loPI   C4A10182  16.136  11.566   7.755 -0.2036 -0.2589  0.2587
  721loPI   C5A10183  15.917  11.461   8.165  0.2932 -0.2646 -0.0325
  721loPI   C6A10184  16.104  11.752   8.436 -0.1077 -0.0321  0.2485
  721loPI   C1B10185  16.237  12.096   6.777 -0.0003 -0.1584 -0.0460
  721loPI   C2B10186  16.270  12.040   7.185  0.0489  0.1917  0.3904
  721loPI   C3B10187  16.085  12.077   7.625 -0.3523  0.3264  0.3239
  721loPI   C4B10188  15.819  11.949   7.985 -0.0736  0.0090 -0.1197
  722loPI    C110189   2.222   0.120   5.486  0.3838  0.0442  0.0140
  722loPI    C210190   2.478  -0.186   5.451  0.1314 -0.1230 -0.4714
  722loPI    C310191   2.181  -0.142   5.186 -0.2009  0.2058 -0.0602
  722loPI   PO410192   2.348   0.321   5.731 -0.1025 -0.0577  0.0249
  722loPI   GL110193   2.249   0.409   6.153 -0.1646 -0.0146 -0.1969
  722loPI   GL210194   2.207   0.726   6.070  0.3255  0.4043  0.1576
  722loPI   C1A10195   1.953   0.171   6.333  0.1680 -0.1562  0.0524
  722loPI   C2A10196   1.787  -0.215   6.508 -0.1790  0.1547 -0.0470
  722loPI   C3A10197   1.843  -0.544   6.324  0.3385 -0.0307  0.1359
  722loPI   C4A10198   1.589  -0.875   6.232 -0.1932 -0.0556 -0.2674
  722loPI   C5A10199   1.478  -1.329   6.338 -0.0071 -0.1053  0.0042
  722loPI   C6A10200   1.552  -1.683   6.602  0.0789  0.2542 -0.2165
  722loPI   C1B10201   2.221   0.753   6.523 -0.0998 -0.1904 -0.4871
  722loPI   C2B10202   2.043   0.658   6.811  0.0136  0.0813 -0.0079
  722loPI   C3B10203   1.949   0.468   7.211  0.1827 -0.2366 -0.3076
  722loPI   C4B10204   1.907   0.549   7.620  0.1508 -0.0623 -0.0534
  723loPI    C110205   5.639   5.565   5.174 -0.0366 -0.0081  0.2600
  723loPI    C210206   5.845   5.863   5.004 -0.0470 -0.1689 -0.0420
  723loPI    C310207   5.458   5.811   4.915 -0.1156 -0.1126  0.2150
  723loPI   PO410208   5.734   5.494   5.473  0.0729  0.0710  0.1186
  723loPI   GL110209   6.201   5.348   5.722 -0.0638 -0.0844  0.2879
  723loPI   GL210210   6.078   5.075   5.718 -0.0449  0.1217 -0.1148
  723loPI   C1A10211   6.059   5.637   6.022 -0.0420  0.1966 -0.2212
  723loPI   C2A10212   6.056   5.798   6.448 -0.1299  0.2622 -0.0298
  723loPI   C3A10213   6.310   5.665   6.808  0.0517 -0.0079  0.0091
  723loPI   C4A10214   6.498   5.463   7.122 -0.2981 -0.2297 -0.2102
  723loPI   C5A10215   6.521   5.348   7.559 -0.0819 -0.0701 -0.2461
  723loPI   C6A10216   6.274   5.232   7.988 -0.2319 -0.0603 -0.3192
  723loPI   C1B10217   5.788   5.190   6.077 -0.2494  0.3235 -0.2867
  723loPI   C2B10218   5.682   5.059   6.448 -0.0606 -0.0331  0.0197
  723loPI   C3B10219   5.540   4.803   6.911 -0.3825  0.2263 -0.2983
  723loPI   C4B10220   5.557   4.614   7.313  0.1657  0.2957 -0.0837
  724loPI    C110221   9.701  17.915   5.379  0.0579  0.0389  0.1471
  724loPI    C210222   9.713  17.540   5.239 -0.0130  0.1125 -0.0590
  724loPI    C310223  10.050  17.723   5.351  0.0448  0.0524 -0.1343
  724loPI   PO410224   9.543  17.888   5.623 -0.2302  0.1956  0.0195
  724loPI   GL110225   9.486  17.625   6.022 -0.1019 -0.1285  0.1410
  724loPI   GL210226   9.199  17.489   6.118 -0.2106  0.0294 -0.2302
  724loPI   C1A10227   9.658  17.622   6.393 -0.1214  0.2716  0.2261
  724loPI   C2A10228   9.745  17.797   6.809 -0.0954 -0.0133  0.3584
  724loPI   C3A10229   9.622  17.783   7.258  0.2312  0.1171 -0.2348
  724loPI   C4A10230   9.700  17.933   7.671  0.0200 -0.0805 -0.1987
  724loPI   C5A10231   9.805  18.000   8.167 -0.0233  0.0788 -0.1418
  724loPI   C6A10232   9.870  18.178   8.602  0.0408  0.0125  0.0978
  724loPI   C1B10233   9.262  17.411   6.519  0.2065  0.0631  0.1080
  724loPI   C2B10234   9.335  17.511   6.871  0.0986 -0.0206  0.0055
  724loPI   C3B10235   9.201  17.483   7.248  0.1818  0.1381 -0.0581
  724loPI   C4B10236   9.214  17.739   7.606 -0.2231  0.0047  0.0334
  725loPI    C110237   0.061   7.940   5.505  0.3246 -0.0107 -0.0322
  725loPI    C210238  -0.031   7.830   5.132 -0.1329  0.2112  0.0090
  725loPI    C310239   0.243   7.625   5.339 -0.1495 -0.1455 -0.3126
  725loPI   PO410240  -0.187   7.893   5.620  0.2354 -0.2022 -0.0314
  725loPI   GL110241  -0.409   7.895   6.005 -0.0980  0.0139 -0.1781
  725loPI   GL210242  -0.694   7.737   6.022 -0.0071  0.0728 -0.1454
  725loPI   C1A10243  -0.271   7.898   6.421  0.0255  0.1409 -0.3782
  725loPI   C2A10244  -0.060   7.835   6.835  0.3643  0.2357 -0.1907
  725loPI   C3A10245  -0.105   7.872   7.322  0.1786 -0.1023  0.1062
  725loPI   C4A10246  -0.358   7.896   7.754  0.1898  0.1896  0.2418
  725loPI   C5A10247  -0.677   8.188   7.956 -0.0529 -0.1963 -0.1805
  725loPI   C6A10248  -0.988   8.614   7.990 -0.2195  0.2250 -0.5834
  725loPI   C1B10249  -0.709   7.719   6.519 -0.0918 -0.3256 -0.0172
  725loPI   C2B10250  -0.699   7.569   6.967  0.0692 -0.2025 -0.0525
  725loPI   C3B10251  -0.591   7.220   7.283 -0.2147 -0.0195  0.1009
  725loPI   C4B10252  -0.391   7.404   7.588 -0.1806 -0.4295  0.0565
  726loPI    C110253   7.098   9.207   5.217 -0.1725 -0.1663  0.2131
  726loPI    C210254   7.406   9.135   4.973 -0.0027 -0.0864  0.4004
  726loPI    C310255   7.031   9.094   4.839  0.0860  0.0700  0.0932
  726loPI   PO410256   7.230   9.441   5.401 -0.1579 -0.0311  0.1858
  726loPI   GL110257   7.160   9.533   5.836  0.3028 -0.4585  0.1001
  726loPI   GL210258   6.834   9.255   5.647  0.0547 -0.2703 -0.1104
  726loPI   C1A10259   6.808   9.660   6.174  0.3209  0.2022 -0.0009
  726loPI   C2A10260   6.688   9.746   6.591 -0.0605 -0.0179  0.1272
  726loPI   C3A10261   6.467  10.007   6.887  0.0460  0.1624  0.0949
  726loPI   C4A10262   6.610  10.258   7.114 -0.1270 -0.1265 -0.3348
  726loPI   C5A10263   6.727  10.398   7.503 -0.1536  0.0893  0.1673
  726loPI   C6A10264   6.880  10.831   7.687  0.0612  0.0972  0.2802
  726loPI   C1B10265   6.917   9.146   6.054  0.0663 -0.0900  0.0013
  726loPI   C2B10266   7.086   9.273   6.332  0.0753 -0.2436  0.0987
  726loPI   C3B10267   6.873   9.283   6.638 -0.0143  0.0548 -0.2688
  726loPI   C4B10268   6.598   9.381   6.972  0.0857 -0.1612  0.0365
  727loPI    C110269   4.943  17.735   5.494 -0.0887  0.3348  0.0385
  727loPI    C210270   4.799  17.371   5.581  0.1481  0.2700  0.1674
  727loPI    C310271   4.806  17.498   5.201  0.0178  0.1606  0.1277
  727loPI   PO410272   4.928  17.800   5.830  0.0074 -0.2678  0.1375
  727loPI   GL110273   4.728  18.118   6.028 -0.2695  0.2920  0.1564
  727loPI   GL210274   4.477  18.279   6.108  0.0899 -0.0903  0.1157
  727loPI   C1A10275   4.755  18.178   6.542  0.2448 -0.1384  0.2488
  727loPI   C2A10276   4.768  18.393   6.924  0.0329 -0.1699  0.0986
  727loPI   C3A10277   4.788  18.464   7.376 -0.0193  0.0373  0.3336
  727loPI   C4A10278   4.855  18.729   7.706 -0.0500 -0.0308  0.0915
  727loPI   C5A10279   4.767  19.040   8.161  0.2269 -0.1632 -0.2336
  727loPI   C6A10280   4.809  19.148   8.596  0.0565 -0.2151  0.0406
  727loPI   C1B10281   4.381  18.511   6.480 -0.0628  0.0252 -0.2845
  727loPI   C2B10282   4.055  18.475   6.793 -0.1565 -0.1026 -0.0151
  727loPI   C3B10283   3.745  18.237   6.976 -0.4557  0.1795  0.2500
  727loPI   C4B10284   3.338  18.143   6.991 -0.0797 -0.0250 -0.0746
  728loPI    C110285   3.259  10.784   5.671  0.0942  0.3504 -0.1063
  728loPI    C210286   3.463  10.839   5.332  0.2121  0.0830 -0.0812
  728loPI    C310287   3.064  10.812   5.323  0.2174  0.0364 -0.2042
  728loPI   PO410288   3.476  10.653   5.807  0.1274 -0.0239  0.0546
  728loPI   GL110289   3.550  10.676   6.194  0.1277  0.0326 -0.1777
  728loPI   GL210290   3.284  10.403   6.184 -0.0823  0.1756 -0.0317
  728loPI   C1A10291   3.541  10.632   6.582 -0.0238 -0.2404 -0.0487
  728loPI   C2A10292   3.857  10.733   7.034 -0.4056  0.0203  0.1011
  728loPI   C3A10293   3.921  10.684   7.535  0.0043  0.1630 -0.1694
  728loPI   C4A10294   4.252  10.660   7.895  0.0852 -0.1270 -0.3207
  728loPI   C5A10295   4.463  10.321   8.196  0.1216  0.3422 -0.1963
  728loPI   C6A10296   4.728   9.907   8.291 -0.1190  0.0446  0.1703
  728loPI   C1B10297   3.296  10.181   6.641  0.1829 -0.1016  0.2491
  728loPI   C2B10298   3.185  10.160   6.975  0.0571 -0.3827  0.2191
  728loPI   C3B10299   3.108  10.211   7.398  0.0831  0.1588 -0.3574
  728loPI   C4B10300   2.994  10.036   7.793 -0.3649 -0.2212  0.1552
  729loPI    C110301  14.041   7.301   5.411 -0.2384  0.2064  0.1940
  729loPI    C210302  13.753   7.243   5.140 -0.1297  0.0556  0.1090
  729loPI    C310303  14.124   7.335   5.021 -0.0589 -0.1061  0.2010
  729loPI   PO410304  13.936   7.103   5.616  0.1386 -0.2130 -0.1060
  729loPI   GL110305  13.633   6.988   6.034  0.0387 -0.1165  0.1782
  729loPI   GL210306  13.744   7.334   6.068 -0.3708 -0.1032  0.0485
  729loPI   C1A10307  13.637   6.958   6.485  0.0972  0.3736 -0.0419
  729loPI   C2A10308  13.713   6.663   6.831 -0.2520  0.0543 -0.1662
  729loPI   C3A10309  13.771   6.538   7.259 -0.2491  0.3829 -0.2477
  729loPI   C4A10310  13.553   6.351   7.545  0.1755  0.0063  0.1143
  729loPI   C5A10311  13.527   6.060   7.833 -0.4214  0.1348 -0.2743
  729loPI   C6A10312  13.565   5.804   8.028 -0.1224  0.1787 -0.1309
  729loPI   C1B10313  13.976   7.334   6.412 -0.0823 -0.2557 -0.1794
  729loPI   C2B10314  14.122   7.004   6.844  0.3067 -0.1751 -0.3436
  729loPI   C3B10315  14.341   6.764   7.225  0.0635  0.0225 -0.3057
  729loPI   C4B10316  14.532   6.899   7.502  0.1618  0.0083 -0.1492
  730loPI    C110317   1.013  11.330   5.336  0.0672  0.2034  0.0465
  730loPI    C210318   0.683  11.429   5.133 -0.0327  0.1543  0.1838
  730loPI    C310319   0.988  11.687   5.157  0.0382  0.1051 -0.1483
  730loPI   PO410320   0.846  11.153   5.591  0.0595 -0.1209 -0.4059
  730loPI   GL110321   0.924  11.050   5.998  0.1963 -0.0136  0.2962
  730loPI   GL210322   0.745  10.760   6.166  0.1687  0.2452  0.0696
  730loPI   C1A10323   1.273  11.001   6.346 -0.1088 -0.0880  0.2126
  730loPI   C2A10324   1.321  10.900   6.817  0.1645 -0.3270 -0.1452
  730loPI   C3A10325   1.323  10.827   7.225  0.0211 -0.0750 -0.2771
  730loPI   C4A10326   1.198  10.804   7.626  0.0510 -0.0611 -0.0164
  730loPI   C5A10327   0.944  10.716   7.910 -0.1432  0.2302 -0.0950
  730loPI   C6A10328   0.586  10.613   7.708  0.0272  0.0746  0.4896
  730loPI   C1B10329   0.705  10.891   6.481 -0.0300  0.1612 -0.0735
  730loPI   C2B10330   0.778  10.834   6.956  0.3680 -0.1293 -0.3041
  730loPI   C3B10331   0.935  10.572   7.291  0.2468 -0.0607 -0.1762
  730loPI   C4B10332   0.628  10.231   7.392 -0.0395 -0.2491 -0.1087
  731loPI    C110333   4.806   4.538   5.031  0.1058  0.0876  0.0483
  731loPI    C210334   4.835   4.856   4.790  0.0386  0.1193  0.0817
  731loPI    C310335   4.974   4.501   4.670 -0.0756  0.1148 -0.0405
  731loPI   PO410336   4.923   4.495   5.330 -0.0041 -0.2893 -0.0857
  731loPI   GL110337   4.934   4.773   5.726 -0.0560  0.1612  0.1812
  731loPI   GL210338   4.888   5.064   5.842 -0.1171 -0.3075 -0.1185
  731loPI   C1A10339   4.957   4.532   6.050 -0.0688 -0.2180 -0.4041
  731loPI   C2A10340   4.985   4.441   6.489  0.0500 -0.1836 -0.0411
  731loPI   C3A10341   4.982   4.416   6.921 -0.0611 -0.0218 -0.3987
  731loPI   C4A10342   4.894   4.349   7.345 -0.1764 -0.0344 -0.3292
  731loPI   C5A10343   4.946   4.302   7.839 -0.0849  0.0488  0.0770
  731loPI   C6A10344   4.559   4.233   8.057 -0.3080 -0.1566 -0.2805
  731loPI   C1B10345   5.071   5.002   6.248 -0.1262  0.1584 -0.2391
  731loPI   C2B10346   5.104   4.904   6.686 -0.1132 -0.0886 -0.2647
  731loPI   C3B10347   5.128   4.962   7.141  0.0687  0.2938 -0.1167
  731loPI   C4B10348   5.108   4.751   7.517 -0.0304  0.0547  0.2043
  732loPI    C110349   2.639   4.733   5.253  0.0116 -0.3094  0.1012
  732loPI    C210350   2.989   4.725   5.059 -0.0250  0.0585  0.0115
  732loPI    C310351   2.672   4.532   4.909  0.0897 -0.1217 -0.0024
  732loPI   PO410352   2.790   4.652   5.536  0.0691 -0.4367  0.2538
  732loPI   GL110353   2.679   4.690   6.007  0.0323 -0.3289 -0.1114
  732loPI   GL210354   2.715   4.991   5.969  0.0751  0.0145  0.0954
  732loPI   C1A10355   2.619   4.730   6.432  0.2038  0.0636 -0.1983
  732loPI   C2A10356   2.436   5.043   6.786 -0.0162  0.1199  0.1982
  732loPI   C3A10357   2.416   5.179   7.118 -0.0302 -0.2855  0.0074
  732loPI   C4A10358   2.510   5.464   7.513  0.0963 -0.2067 -0.1077
  732loPI   C5A10359   2.800   5.698   7.546  0.0716  0.1761  0.1251
  732loPI   C6A10360   3.247   5.713   7.712 -0.0759 -0.2466 -0.0666
  732loPI   C1B10361   2.324   5.078   6.211 -0.3810 -0.0238 -0.1734
  732loPI   C2B10362   2.004   5.092   6.411  0.2723 -0.1902  0.0798
  732loPI   C3B10363   1.911   5.076   6.844  0.1369 -0.1126  0.0797
  732loPI   C4B10364   1.939   5.121   7.250 -0.0215  0.1820  0.0061
  733loPI    C110365  14.231   1.115   5.745 -0.3286  0.3188  0.0127
  733loPI    C210366  14.451   1.271   5.449 -0.2098  0.2255  0.0513
  733loPI    C310367  14.144   1.029   5.365  0.1518 -0.2347  0.0151
  733loPI   PO410368  14.157   1.347   5.894  0.3902  0.3380  0.0462
  733loPI   GL110369  14.124   1.562   6.298  0.0059  0.0117 -0.1553
  733loPI   GL210370  14.078   1.274   6.493  0.2131 -0.2128 -0.0531
  733loPI   C1A10371  14.176   1.800   6.679 -0.0481  0.0829  0.3721
  733loPI   C2A10372  14.177   2.033   7.031  0.2286  0.0980 -0.2843
  733loPI   C3A10373  14.149   2.383   7.277  0.0494  0.3256 -0.0774
  733loPI   C4A10374  14.052   2.708   7.123 -0.0347  0.0472 -0.0614
  733loPI   C5A10375  13.685   2.853   7.223 -0.0152  0.2164  0.1937
  733loPI   C6A10376  13.416   3.092   7.467 -0.0250  0.2066  0.1561
  733loPI   C1B10377  13.958   1.320   6.824 -0.0919  0.0184  0.0415
  733loPI   C2B10378  14.069   1.495   7.148  0.1133  0.0089 -0.1983
  733loPI   C3B10379  14.137   1.728   7.487 -0.0707 -0.0510 -0.0203
  733loPI   C4B10380  14.049   2.145   7.740  0.0903  0.0532 -0.1857
  734loPI    C110381   7.828   6.375   5.463  0.0411 -0.0934  0.1025
  734loPI    C210382   7.636   6.213   5.151  0.1335 -0.0205  0.0075
  734loPI    C310383   8.001   6.371   5.102  0.1296  0.0318  0.1429
  734loPI   PO410384   7.756   6.582   5.561  0.1137  0.1660  0.2784
  734loPI   GL110385   7.593   6.667   5.930 -0.1276 -0.0772  0.2284
  734loPI   GL210386   7.320   6.664   6.040 -0.0774  0.1913  0.0112
  734loPI   C1A10387   7.700   6.887   6.256 -0.1235 -0.1214 -0.0194
  734loPI   C2A10388   7.829   6.775   6.603 -0.3022 -0.0505 -0.0412
  734loPI   C3A10389   7.910   6.616   7.038  0.1612  0.0132  0.1364
  734loPI   C4A10390   7.782   6.277   7.230 -0.2172  0.0511  0.0448
  734loPI   C5A10391   7.435   6.054   7.407  0.0742  0.0097 -0.1632
  734loPI   C6A10392   7.243   5.835   7.810 -0.1618 -0.2309 -0.3325
  734loPI   C1B10393   7.449   6.457   6.426 -0.3547 -0.1018 -0.0315
  734loPI   C2B10394   7.837   6.271   6.539  0.2345 -0.1119  0.3275
  734loPI   C3B10395   8.084   5.986   6.385 -0.2401  0.0423 -0.0585
  734loPI   C4B10396   8.384   5.606   6.582 -0.1264  0.2782  0.1907
  735loPI    C110397   2.835   8.882   5.593  0.2603 -0.0591  0.1800
  735loPI    C210398   2.777   8.635   5.284  0.1568 -0.0650  0.2039
  735loPI    C310399   2.502   8.912   5.373  0.3328  0.1473  0.0956
  735loPI   PO410400   3.093   8.709   5.720 -0.0736 -0.2700  0.0436
  735loPI   GL110401   3.326   8.956   5.993  0.2662  0.1799 -0.3188
  735loPI   GL210402   3.240   9.275   6.157  0.4809 -0.0940 -0.0471
  735loPI   C1A10403   3.473   9.012   6.435 -0.2038 -0.5341 -0.1856
  735loPI   C2A10404   3.648   8.986   6.798  0.1461  0.0873  0.2771
  735loPI   C3A10405   3.576   9.134   7.125 -0.0979 -0.0324 -0.2129
  735loPI   C4A10406   3.677   9.259   7.566  0.0139  0.1884  0.2805
  735loPI   C5A10407   3.806   9.386   7.968  0.1756  0.1978 -0.0275
  735loPI   C6A10408   3.870   9.681   8.103 -0.0595  0.1245  0.2103
  735loPI   C1B10409   3.054   9.325   6.537 -0.0230  0.2767 -0.3600
  735loPI   C2B10410   3.127   9.242   6.966  0.0925  0.3525  0.0972
  735loPI   C3B10411   3.179   9.336   7.388  0.1589  0.0797  0.1937
  735loPI   C4B10412   3.071   9.076   7.651  0.0830 -0.0883  0.3354
  736loPI    C110413  17.613   0.748   5.319  0.0613 -0.3147 -0.0753
  736loPI    C210414  17.215   0.788   5.311  0.0988  0.1049 -0.0400
  736loPI    C310415  17.393   0.523   5.071 -0.2201 -0.2884  0.1447
  736loPI   PO410416  17.682   1.052   5.436  0.2023  0.0192 -0.0227
  736loPI   GL110417  17.789   1.027   5.909 -0.2255 -0.1387 -0.0587
  736loPI   GL210418  17.769   0.711   5.853  0.1985  0.0275 -0.2808
  736loPI   C1A10419  17.794   1.147   6.265 -0.0935  0.0813 -0.1290
  736loPI   C2A10420  17.792   1.062   6.630  0.0057 -0.0697 -0.1854
  736loPI   C3A10421  17.837   1.351   6.966  0.1882  0.3104 -0.0188
  736loPI   C4A10422  17.783   1.491   7.388 -0.1284 -0.0008  0.0528
  736loPI   C5A10423  17.901   1.753   7.699  0.0882  0.2959 -0.0806
  736loPI   C6A10424  17.804   2.091   7.885  0.1158 -0.2126 -0.1256
  736loPI   C1B10425  17.855   0.500   6.238 -0.1726 -0.0837  0.2395
  736loPI   C2B10426  17.981   0.536   6.637  0.0513  0.1049  0.0999
  736loPI   C3B10427  17.812   0.742   7.018 -0.3027 -0.1949 -0.0060
  736loPI   C4B10428  17.971   1.021   7.358 -0.0197  0.1419  0.1366
  737loPI    C110429  12.764   3.552   4.833  0.0332 -0.1124 -0.0462
  737loPI    C210430  12.990   3.877   4.775 -0.0441 -0.0487  0.0072
  737loPI    C310431  13.155   3.513   4.756  0.1689  0.0114  0.5341
  737loPI   PO410432  12.623   3.613   5.102  0.0149  0.0007  0.0447
  737loPI   GL110433  12.537   3.876   5.532  0.2232 -0.0001  0.4699
  737loPI   GL210434  12.527   3.511   5.549  0.0815  0.0913  0.1103
  737loPI   C1A10435  12.515   3.847   6.036 -0.1999 -0.0834 -0.0717
  737loPI   C2A10436  12.447   3.624   6.333 -0.0295  0.0121  0.0223
  737loPI   C3A10437  12.473   3.668   6.839  0.1452 -0.1166  0.4901
  737loPI   C4A10438  12.209   3.886   7.145 -0.0397 -0.2317  0.0706
  737loPI   C5A10439  11.931   4.093   7.164  0.0269  0.0666 -0.1556
  737loPI   C6A10440  11.772   4.303   7.558  0.0820 -0.0517 -0.0884
  737loPI   C1B10441  12.399   3.340   5.904  0.2063  0.0179  0.0828
  737loPI   C2B10442  12.262   3.186   6.249  0.1234  0.2680 -0.0825
  737loPI   C3B10443  12.135   3.302   6.713 -0.0207 -0.1289  0.0964
  737loPI   C4B10444  12.190   3.396   7.117 -0.1597  0.1905 -0.1030
  738loPI    C110445   5.084   6.192   5.155 -0.1453  0.0536  0.0907
  738loPI    C210446   5.080   6.580   5.059 -0.0621  0.0290 -0.0138
  738loPI    C310447   5.415   6.365   5.011 -0.1526 -0.0927 -0.1066
  738loPI   PO410448   5.011   6.187   5.452  0.1673  0.2915  0.4638
  738loPI   GL110449   5.264   6.291   5.797  0.0148 -0.0653 -0.0912
  738loPI   GL210450   5.182   6.079   5.960 -0.0943 -0.0169  0.0117
  738loPI   C1A10451   5.369   6.607   6.085 -0.0769  0.2186  0.0098
  738loPI   C2A10452   5.565   6.587   6.520  0.2664 -0.2856  0.0452
  738loPI   C3A10453   5.488   6.582   6.863 -0.1999 -0.0980  0.1967
  738loPI   C4A10454   5.558   6.599   7.293  0.1630 -0.1424 -0.1797
  738loPI   C5A10455   5.781   6.400   7.616 -0.0661 -0.3735 -0.1338
  738loPI   C6A10456   5.800   6.236   7.973  0.0120 -0.1035  0.0195
  738loPI   C1B10457   5.179   6.219   6.350 -0.0140 -0.0447  0.1026
  738loPI   C2B10458   5.264   6.111   6.745 -0.1481 -0.0969 -0.2262
  738loPI   C3B10459   5.126   6.336   7.130 -0.1949 -0.1292  0.0287
  738loPI   C4B10460   5.330   6.261   7.547 -0.5067 -0.2056 -0.2866
  739loPI    C110461  15.285  13.344   5.819 -0.2800  0.1607  0.1160
  739loPI    C210462  15.079  13.045   5.653  0.1854 -0.0728 -0.0587
  739loPI    C310463  15.225  13.339   5.424  0.1659  0.0177  0.0445
  739loPI   PO410464  15.454  13.218   5.873 -0.1083  0.0526 -0.0891
  739loPI   GL110465  15.440  13.249   6.305  0.2591  0.0496  0.1710
  739loPI   GL210466  15.658  13.291   6.355 -0.0564 -0.2436 -0.1138
  739loPI   C1A10467  15.089  13.231   6.561  0.1385 -0.2580  0.0451
  739loPI   C2A10468  15.043  13.238   6.877  0.1156  0.0601 -0.2200
  739loPI   C3A10469  15.118  13.177   7.312  0.0051 -0.0812 -0.0983
  739loPI   C4A10470  15.047  13.404   7.657  0.0108 -0.0074 -0.1922
  739loPI   C5A10471  15.262  13.471   8.022 -0.2179 -0.0872 -0.1093
  739loPI   C6A10472  15.664  13.340   8.237 -0.4247 -0.1532  0.1627
  739loPI   C1B10473  15.586  13.374   6.772 -0.2320  0.1851 -0.0252
  739loPI   C2B10474  15.567  13.496   7.173 -0.3319  0.0332 -0.1217
  739loPI   C3B10475  15.649  13.539   7.622 -0.0846 -0.0137 -0.2258
  739loPI   C4B10476  15.534  13.843   7.891 -0.0900 -0.1812 -0.2551
  740loPI    C110477   1.040   3.641   4.927 -0.0086  0.0945  0.2379
  740loPI    C210478   1.219   3.969   4.785 -0.0523  0.0216  0.0102
  740loPI    C310479   0.835   3.897   4.699 -0.0280 -0.1162  0.0140
  740loPI   PO410480   1.110   3.506   5.236  0.1061 -0.0960 -0.1275
  740loPI   GL110481   0.816   3.296   5.494  0.1276  0.2126  0.1536
  740loPI   GL210482   0.491   3.477   5.607  0.0955  0.0411 -0.0074
  740loPI   C1A10483   1.059   3.191   5.790 -0.0828  0.3060 -0.2137
  740loPI   C2A10484   1.070   3.165   6.267 -0.1469 -0.0933 -0.1356
  740loPI   C3A10485   1.101   3.098   6.649 -0.1188  0.0516 -0.1689
  740loPI   C4A10486   0.932   3.138   7.055  0.1680  0.2787 -0.2143
  740loPI   C5A10487   0.865   3.064   7.471  0.1142  0.0382  0.1375
  740loPI   C6A10488   0.969   2.930   7.808  0.0432 -0.0303 -0.1969
  740loPI   C1B10489   0.622   3.406   6.117 -0.1850  0.2124  0.1779
  740loPI   C2B10490   0.645   3.289   6.503  0.2891  0.0638 -0.2857
  740loPI   C3B10491   0.583   3.478   6.846  0.1451  0.0279  0.3271
  740loPI   C4B10492   0.600   3.881   7.101  0.1664  0.2695  0.3257
  741loPI    C110493  16.130  14.996   5.530 -0.3049 -0.0657 -0.0820
  741loPI    C210494  16.021  14.662   5.339  0.0695 -0.1431 -0.1695
  741loPI    C310495  16.104  14.994   5.131 -0.1492 -0.0387 -0.0932
  741loPI   PO410496  15.999  14.979   5.765 -0.1567  0.3326 -0.0186
  741loPI   GL110497  15.859  14.998   6.047  0.0805  0.0687 -0.0412
  741loPI   GL210498  15.506  14.810   6.177  0.0513 -0.2692 -0.1375
  741loPI   C1A10499  15.966  15.053   6.451 -0.1775 -0.2537  0.1727
  741loPI   C2A10500  15.977  14.923   6.850  0.1204  0.2993 -0.0695
  741loPI   C3A10501  15.841  14.913   7.274 -0.2479  0.1192 -0.0966
  741loPI   C4A10502  15.796  15.084   7.659 -0.0319 -0.0138  0.3498
  741loPI   C5A10503  15.998  15.025   8.052 -0.2855  0.0554 -0.3343
  741loPI   C6A10504  16.056  15.195   8.420 -0.2619  0.0847 -0.2883
  741loPI   C1B10505  15.388  14.865   6.510  0.1349  0.1713 -0.1701
  741loPI   C2B10506  15.482  14.729   6.911  0.2695  0.0940 -0.0491
  741loPI   C3B10507  15.469  14.435   7.239 -0.1146  0.2240 -0.0949
  741loPI   C4B10508  15.437  14.273   7.587 -0.3213  0.1358  0.3714
  742loPI    C110509   0.910  10.163   5.395 -0.0014  0.1561 -0.0109
  742loPI    C210510   1.111  10.482   5.263 -0.1277  0.2622  0.0506
  742loPI    C310511   0.731  10.426   5.153 -0.0844  0.0947 -0.0168
  742loPI   PO410512   0.974  10.177   5.627  0.1892  0.1555  0.1326
  742loPI   GL110513   0.708  10.278   5.957  0.0257 -0.1578 -0.1233
  742loPI   GL210514   0.739   9.969   6.068  0.1146  0.0086  0.1204
  742loPI   C1A10515   0.567  10.340   6.390  0.4891  0.1077 -0.1251
  742loPI   C2A10516   0.480  10.486   6.789  0.0350  0.1603 -0.1233
  742loPI   C3A10517   0.375  10.618   7.233  0.2915  0.1767 -0.1341
  742loPI   C4A10518   0.160  10.862   7.573  0.0006  0.2195  0.1149
  742loPI   C5A10519  -0.070  11.089   7.849  0.0700 -0.0597  0.1198
  742loPI   C6A10520  -0.290  11.348   8.059  0.0978 -0.0682  0.1752
  742loPI   C1B10521   0.924   9.784   6.335 -0.2392 -0.0133 -0.1474
  742loPI   C2B10522   1.189   9.730   6.684  0.1041  0.1599 -0.0378
  742loPI   C3B10523   1.275   9.608   7.186  0.4463 -0.1172  0.0946
  742loPI   C4B10524   1.505   9.836   7.487 -0.1154 -0.1133 -0.2193
  743loPI    C110525   2.742  14.918   5.190  0.0061 -0.0467 -0.0247
  743loPI    C210526   3.069  14.687   5.170  0.0520  0.0152  0.0111
  743loPI    C310527   3.042  15.016   4.943 -0.0264 -0.0414 -0.0621
  743loPI   PO410528   2.723  14.980   5.434 -0.2389 -0.2112  0.0546
  743loPI   GL110529   2.911  14.836   5.797 -0.0794  0.3184  0.2543
  743loPI   GL210530   3.161  14.617   5.865  0.1713 -0.2653 -0.0338
  743loPI   C1A10531   3.120  14.964   6.207 -0.1393  0.2482  0.1176
  743loPI   C2A10532   3.394  14.936   6.496  0.0730  0.0975 -0.1127
  743loPI   C3A10533   3.575  14.992   6.832  0.0082 -0.1863  0.0096
  743loPI   C4A10534   3.758  14.720   6.960  0.0733 -0.2903  0.2344
  743loPI   C5A10535   4.126  14.660   7.166 -0.1034 -0.1027  0.0851
  743loPI   C6A10536   4.170  14.817   7.561 -0.3195 -0.0875  0.0013
  743loPI   C1B10537   3.234  14.455   6.218  0.0860 -0.0344 -0.0286
  743loPI   C2B10538   3.428  14.460   6.595 -0.1148 -0.2341  0.2143
  743loPI   C3B10539   3.239  14.581   6.968  0.1798 -0.3085  0.2095
  743loPI   C4B10540   3.206  14.479   7.414 -0.1062  0.3459 -0.0411
  744loPI    C110541   3.346  11.769   5.498 -0.2931 -0.2882 -0.1271
  744loPI    C210542   3.666  11.748   5.258 -0.2152  0.0513 -0.0583
  744loPI    C310543   3.297  11.719   5.104 -0.1662  0.2731 -0.2229
  744loPI   PO410544   3.461  11.633   5.738 -0.0355  0.0863 -0.1549
  744loPI   GL110545   3.578  11.552   6.171  0.1463 -0.1846 -0.0703
  744loPI   GL210546   3.263  11.671   6.332  0.0922  0.0273 -0.1080
  744loPI   C1A10547   3.626  11.131   6.309  0.0233 -0.3411 -0.0446
  744loPI   C2A10548   3.755  11.118   6.758 -0.0147 -0.1863 -0.1459
  744loPI   C3A10549   3.487  11.013   7.140 -0.2519 -0.1419  0.0363
  744loPI   C4A10550   3.434  10.693   7.372  0.0963 -0.0718  0.1418
  744loPI   C5A10551   3.154  10.583   7.726 -0.0231 -0.2677  0.1873
  744loPI   C6A10552   3.124  10.494   8.073  0.2442 -0.1662  0.0485
  744loPI   C1B10553   2.918  11.640   6.670 -0.0556 -0.0130 -0.2616
  744loPI   C2B10554   2.631  11.637   6.982  0.2255 -0.1151  0.2950
  744loPI   C3B10555   2.215  11.616   7.247  0.2553  0.0387 -0.0598
  744loPI   C4B10556   1.763  11.653   7.353 -0.0652  0.1479 -0.1684
  745loPI    C110557  15.811   9.997   5.388 -0.1538  0.1043 -0.1030
  745loPI    C210558  16.055  10.313   5.415 -0.0692  0.0267  0.0561
  745loPI    C310559  15.734  10.327   5.176  0.1604  0.0827 -0.2547
  745loPI   PO410560  15.760   9.929   5.713 -0.2677  0.1560 -0.0869
  745loPI   GL110561  15.648  10.005   6.090  0.1563  0.1505 -0.0573
  745loPI   GL210562  15.379   9.894   6.033  0.4366 -0.0932  0.0180
  745loPI   C1A10563  15.596  10.009   6.507  0.3552 -0.2577  0.1549
  745loPI   C2A10564  15.669  10.003   6.807 -0.0920  0.1769 -0.0191
  745loPI   C3A10565  15.553   9.800   7.270  0.3695  0.5062 -0.0796
  745loPI   C4A10566  15.254   9.538   7.418  0.1856 -0.3441 -0.3916
  745loPI   C5A10567  15.146   9.621   7.861 -0.0982  0.2807  0.0899
  745loPI   C6A10568  15.251   9.497   8.283  0.1155 -0.2231 -0.1460
  745loPI   C1B10569  15.089   9.758   6.270 -0.2471  0.0509 -0.0597
  745loPI   C2B10570  15.062   9.795   6.728  0.0616 -0.1539  0.1432
  745loPI   C3B10571  14.966   9.755   7.069 -0.0210  0.0275 -0.1605
  745loPI   C4B10572  14.612   9.469   7.253  0.0014 -0.0980 -0.0559
  746loPI    C110573  10.662   0.920   5.899 -0.0797  0.1325  0.0253
  746loPI    C210574  10.633   0.579   5.693 -0.3233  0.0505  0.1907
  746loPI    C310575  10.594   0.930   5.505  0.1757 -0.0000 -0.0243
  746loPI   PO410576  10.464   0.914   6.096 -0.1888  0.4061  0.0154
  746loPI   GL110577  10.452   0.860   6.525 -0.1647 -0.1129 -0.0894
  746loPI   GL210578  10.108   1.010   6.521 -0.0103 -0.1492 -0.2727
  746loPI   C1A10579  10.477   0.910   6.974  0.1195 -0.0506 -0.1927
  746loPI   C2A10580  10.417   0.482   7.220 -0.0371 -0.1292 -0.0240
  746loPI   C3A10581  10.452   0.323   7.565  0.1522  0.0517  0.2929
  746loPI   C4A10582  10.455   0.592   7.892 -0.1134 -0.1290 -0.2686
  746loPI   C5A10583  10.185   0.616   8.280  0.1252 -0.1860  0.2024
  746loPI   C6A10584   9.830   0.617   8.496 -0.1326  0.3412 -0.2455
  746loPI   C1B10585  10.057   0.617   6.730 -0.1453 -0.1847 -0.1368
  746loPI   C2B10586   9.931   0.402   7.192 -0.1010 -0.3305  0.0573
  746loPI   C3B10587   9.925   0.471   7.552  0.2073 -0.1325  0.1373
  746loPI   C4B10588   9.782   0.581   7.957 -0.1634 -0.1538 -0.3097
  747loPI    C110589   1.522   1.406   5.186 -0.1247 -0.0524 -0.0976
  747loPI    C210590   1.337   1.063   5.092  0.1252 -0.1815 -0.1269
  747loPI    C310591   1.346   1.364   4.828 -0.0540 -0.1685 -0.1195
  747loPI   PO410592   1.478   1.468   5.499 -0.3444 -0.1799  0.1689
  747loPI   GL110593   1.483   1.590   5.806 -0.2410  0.0487 -0.5617
  747loPI   GL210594   1.216   1.415   6.000  0.1669 -0.1802 -0.1284
  747loPI   C1A10595   1.730   1.576   6.190  0.0035  0.1382 -0.1264
  747loPI   C2A10596   2.048   1.595   6.528 -0.1935 -0.2057  0.0847
  747loPI   C3A10597   2.312   1.545   6.908 -0.3948  0.2193  0.0481
  747loPI   C4A10598   2.621   1.443   7.256  0.2960  0.2227  0.0199
  747loPI   C5A10599   2.752   1.611   7.667  0.1967  0.0517 -0.2048
  747loPI   C6A10600   3.015   1.579   8.082  0.1767 -0.2518  0.0640
  747loPI   C1B10601   0.935   1.086   6.183 -0.0061  0.1030 -0.0835
  747loPI   C2B10602   0.944   0.990   6.619 -0.0501  0.1335 -0.1672
  747loPI   C3B10603   1.048   1.001   7.030  0.0096 -0.2184  0.3904
  747loPI   C4B10604   0.758   1.019   7.400 -0.0717 -0.1702  0.0636
  748loPI    C110605   8.957   9.931   5.583 -0.2660  0.0001  0.0649
  748loPI    C210606   8.639   9.965   5.342 -0.1412  0.0706 -0.0921
  748loPI    C310607   8.971   9.787   5.210 -0.0893  0.0631  0.0467
  748loPI   PO410608   8.873   9.938   5.789 -0.0979  0.1157  0.0618
  748loPI   GL110609   8.799  10.169   6.138 -0.0961 -0.0777  0.1685
  748loPI   GL210610   8.477  10.363   6.180 -0.1204  0.1938  0.1580
  748loPI   C1A10611   8.781  10.004   6.535 -0.0420 -0.0804 -0.0417
  748loPI   C2A10612   8.674   9.811   6.899 -0.0719 -0.2352 -0.2763
  748loPI   C3A10613   8.456   9.855   7.183 -0.1046  0.1107  0.0857
  748loPI   C4A10614   8.277   9.809   7.615 -0.0007  0.0669 -0.0241
  748loPI   C5A10615   8.048  10.142   7.815 -0.0669 -0.1598 -0.1579
  748loPI   C6A10616   8.269  10.221   8.139 -0.1314  0.0432 -0.1590
  748loPI   C1B10617   8.538  10.543   6.550  0.1231  0.1304  0.3727
  748loPI   C2B10618   8.744  10.817   6.825 -0.2393  0.1396  0.1153
  748loPI   C3B10619   8.781  11.053   7.221 -0.0832 -0.1607  0.1890
  748loPI   C4B10620   8.921  11.294   7.579 -0.2111 -0.0519 -0.1822
  749loPI    C110621  17.851  14.465   4.986  0.0194  0.1376  0.1007
  749loPI    C210622  17.951  14.852   4.966  0.1267  0.0982 -0.1736
  749loPI    C310623  17.598  14.728   4.823 -0.0217  0.1312  0.1541
  749loPI   PO410624  17.945  14.441   5.309  0.4420 -0.0056 -0.0403
  749loPI   GL110625  18.030  14.079   5.571  0.2528 -0.1494  0.0832
  749loPI   GL210626  18.110  13.810   5.549  0.1530  0.0166 -0.0564
  749loPI   C1A10627  18.089  14.027   6.033 -0.0756  0.1309 -0.0584
  749loPI   C2A10628  18.113  13.830   6.362  0.3734  0.2397 -0.3936
  749loPI   C3A10629  18.338  13.737   6.758 -0.1768  0.0244 -0.2534
  749loPI   C4A10630  18.577  13.662   7.188  0.0473  0.0605  0.2706
  749loPI   C5A10631  18.590  13.525   7.700 -0.2821  0.1042  0.1649
  749loPI   C6A10632  18.896  13.289   7.675 -0.0574  0.2451 -0.2383
  749loPI   C1B10633  18.056  13.555   5.838 -0.2906  0.1425 -0.0780
  749loPI   C2B10634  17.921  13.334   6.215 -0.0409  0.0286 -0.0213
  749loPI   C3B10635  17.578  13.193   6.495  0.0356  0.0917 -0.3247
  749loPI   C4B10636  17.478  13.050   6.905 -0.2264 -0.0015 -0.0736
  750loPI    C110637   2.612   9.507   5.488 -0.1757 -0.1444 -0.1820
  750loPI    C210638   2.273   9.694   5.389 -0.0711  0.1608  0.0227
  750loPI    C310639   2.556   9.635   5.113 -0.0922  0.3349 -0.0377
  750loPI   PO410640   2.491   9.322   5.714  0.1148 -0.1352  0.0167
  750loPI   GL110641   2.278   9.118   6.045 -0.2176 -0.1451  0.0796
  750loPI   GL210642   2.708   9.052   6.035  0.1615 -0.0709 -0.1249
  750loPI   C1A10643   2.027   9.053   6.538 -0.0549  0.2421  0.0926
  750loPI   C2A10644   2.142   8.858   6.827  0.1553 -0.4442  0.0340
  750loPI   C3A10645   2.311   8.799   7.257  0.2724  0.2180 -0.1119
  750loPI   C4A10646   2.473   8.879   7.621 -0.0070  0.2957  0.3889
  750loPI   C5A10647   2.344   8.997   8.035 -0.4016 -0.0994  0.1704
  750loPI   C6A10648   2.135   9.052   8.409  0.0716 -0.2800  0.0285
  750loPI   C1B10649   2.972   8.870   6.428 -0.1004  0.0809 -0.1236
  750loPI   C2B10650   3.299   8.620   6.758 -0.0683 -0.0477 -0.0432
  750loPI   C3B10651   3.451   8.554   7.178  0.1842  0.1626  0.2337
  750loPI   C4B10652   3.520   8.748   7.566  0.0296  0.1706 -0.0800
  751loPI    C110653   4.225   7.984   5.137  0.4293  0.3721  0.1251
  751loPI    C210654   3.874   8.140   5.028  0.2289 -0.0196  0.1896
  751loPI    C310655   4.185   8.152   4.777  0.2104  0.4397  0.1793
  751loPI   PO410656   4.377   8.095   5.295 -0.1869  0.0699 -0.3060
  751loPI   GL110657   4.400   7.855   5.684  0.1434 -0.1827  0.2206
  751loPI   GL210658   4.439   7.554   5.793  0.5210 -0.1539 -0.1909
  751loPI   C1A10659   4.380   8.168   5.963 -0.1119 -0.1750  0.0288
  751loPI   C2A10660   4.334   8.432   6.254  0.0848  0.2259 -0.0035
  751loPI   C3A10661   4.471   8.488   6.626 -0.3088 -0.1297  0.1887
  751loPI   C4A10662   4.543   8.593   7.067 -0.0719  0.0215  0.2317
  751loPI   C5A10663   4.292   8.554   7.424  0.0078 -0.2509 -0.4079
  751loPI   C6A10664   4.495   8.613   7.852 -0.0534 -0.0177 -0.1658
  751loPI   C1B10665   4.681   7.744   6.211  0.2262  0.3764  0.2101
  751loPI   C2B10666   4.452   7.997   6.586 -0.1474  0.1438  0.1178
  751loPI   C3B10667   4.318   8.024   6.927  0.0750 -0.1091 -0.4747
  751loPI   C4B10668   4.325   8.068   7.503 -0.0405 -0.0489 -0.2180
  752loPI    C110669   3.548   3.004   5.060 -0.3367  0.1369 -0.1385
  752loPI    C210670   3.564   2.696   4.805 -0.1464  0.1612 -0.1570
  752loPI    C310671   3.785   3.023   4.738 -0.0319  0.1346  0.0816
  752loPI   PO410672   3.345   2.906   5.317  0.2871  0.2564  0.0027
  752loPI   GL110673   3.355   2.684   5.689 -0.1773 -0.2841 -0.1132
  752loPI   GL210674   3.552   2.652   5.988 -0.0518  0.1383  0.2401
  752loPI   C1A10675   3.017   2.649   6.092 -0.3473  0.0455 -0.2297
  752loPI   C2A10676   2.969   2.779   6.416  0.1981  0.1002  0.0257
  752loPI   C3A10677   3.133   2.786   6.777  0.0136  0.0571  0.1203
  752loPI   C4A10678   3.096   2.873   7.171 -0.0439  0.1030 -0.1922
  752loPI   C5A10679   2.850   2.806   7.629  0.3910 -0.0077 -0.2565
  752loPI   C6A10680   2.420   2.668   7.708 -0.2747 -0.0895 -0.0451
  752loPI   C1B10681   3.446   2.909   6.399 -0.0649  0.3277 -0.0292
  752loPI   C2B10682   3.540   3.055   6.842 -0.3582  0.0987 -0.1241
  752loPI   C3B10683   3.693   3.131   7.308  0.2143  0.0607  0.1464
  752loPI   C4B10684   3.683   3.308   7.628  0.1723  0.0781 -0.0565
  753loPI    C110685   5.197   3.330   5.345  0.1121 -0.1576 -0.1648
  753loPI    C210686   4.885   3.094   5.425  0.0538 -0.0643 -0.1147
  753loPI    C310687   4.960   3.204   5.049 -0.0972  0.0821 -0.1032
  753loPI   PO410688   5.276   3.420   5.652  0.2343 -0.0681  0.2857
  753loPI   GL110689   5.136   3.788   5.898 -0.0541 -0.3782 -0.0302
  753loPI   GL210690   5.282   4.059   5.974 -0.0404 -0.1931 -0.1887
  753loPI   C1A10691   5.123   3.577   6.337  0.0539  0.0655  0.0678
  753loPI   C2A10692   5.134   3.602   6.758 -0.0348 -0.0166  0.0561
  753loPI   C3A10693   5.008   3.435   7.149 -0.0702  0.1771  0.0331
  753loPI   C4A10694   4.710   3.297   7.456  0.2355 -0.3197  0.5315
  753loPI   C5A10695   4.505   2.897   7.629  0.1139  0.0731 -0.1094
  753loPI   C6A10696   4.185   2.661   7.625  0.1582 -0.2896 -0.3350
  753loPI   C1B10697   5.252   4.042   6.542 -0.1566  0.1675 -0.0614
  753loPI   C2B10698   5.123   4.002   7.080 -0.0633  0.0660 -0.0447
  753loPI   C3B10699   5.330   4.139   7.436  0.1524 -0.3791 -0.1669
  753loPI   C4B10700   5.295   3.905   7.925 -0.3560 -0.1767 -0.1221
  754loPI    C110701   9.506   2.681   5.499  0.0472 -0.3433 -0.2353
  754loPI    C210702   9.485   3.012   5.277  0.0500 -0.0656  0.1669
  754loPI    C310703   9.538   2.656   5.101  0.0988  0.1488 -0.2673
  754loPI   PO410704   9.742   2.711   5.649  0.0002  0.0375  0.1292
  754loPI   GL110705  10.004   2.577   5.994  0.1710  0.1059 -0.0549
  754loPI   GL210706  10.184   2.512   6.200  0.1199 -0.0226 -0.1089
  754loPI   C1A10707   9.868   2.845   6.368 -0.2649 -0.2814  0.1918
  754loPI   C2A10708   9.840   3.056   6.797 -0.0551 -0.4573 -0.3185
  754loPI   C3A10709   9.727   3.148   7.116  0.1189 -0.2882  0.0254
  754loPI   C4A10710   9.512   2.960   7.424  0.0057  0.1021 -0.0969
  754loPI   C5A10711   9.336   2.679   7.733  0.4863 -0.1453 -0.2004
  754loPI   C6A10712   9.252   2.372   8.144  0.0537  0.1958 -0.1471
  754loPI   C1B10713  10.266   2.640   6.574  0.1139  0.1046  0.1282
  754loPI   C2B10714  10.256   2.668   6.926  0.3148  0.2168  0.0238
  754loPI   C3B10715  10.342   2.667   7.399 -0.1689 -0.2574  0.0120
  754loPI   C4B10716  10.382   2.986   7.651 -0.1469 -0.1097 -0.1556
  755loPI    C110717  10.304  13.099   5.762 -0.0733  0.1099 -0.1503
  755loPI    C210718  10.465  13.340   5.486 -0.0007  0.1564 -0.0679
  755loPI    C310719  10.104  13.177   5.424  0.0941  0.0197 -0.2713
  755loPI   PO410720  10.280  13.160   5.950 -0.1204  0.1544 -0.1388
  755loPI   GL110721  10.141  13.342   6.263  0.0220 -0.0745  0.0376
  755loPI   GL210722  10.419  13.221   6.464  0.3176  0.0756 -0.2745
  755loPI   C1A10723   9.947  13.254   6.623  0.0468  0.0220  0.0431
  755loPI   C2A10724   9.907  13.262   7.085  0.3274  0.2885  0.1658
  755loPI   C3A10725   9.864  13.363   7.465  0.2637 -0.3204 -0.0238
  755loPI   C4A10726   9.864  13.265   7.905 -0.1471 -0.1676  0.1879
  755loPI   C5A10727   9.695  13.295   8.362 -0.2795 -0.2450 -0.0167
  755loPI   C6A10728   9.302  13.347   8.490  0.1096 -0.0812 -0.0283
  755loPI   C1B10729  10.441  13.157   6.896  0.1119  0.1806  0.2148
  755loPI   C2B10730  10.357  13.081   7.334  0.2091 -0.0473 -0.0037
  755loPI   C3B10731  10.319  13.149   7.786 -0.0112 -0.1448 -0.0394
  755loPI   C4B10732  10.297  13.264   8.267 -0.1377 -0.0353  0.2262
  756loPI    C110733   0.791   9.518   5.089 -0.0857  0.3787 -0.1085
  756loPI    C210734   0.899   9.410   4.719  0.1030  0.1029  0.0236
  756loPI    C310735   0.629   9.194   4.919 -0.0136  0.2630  0.0406
  756loPI   PO410736   0.897   9.701   5.270  0.4347  0.3701  0.0230
  756loPI   GL110737   0.959   9.674   5.712 -0.1507 -0.2124 -0.2136
  756loPI   GL210738   0.735   9.475   5.893 -0.3268  0.0112 -0.4568
  756loPI   C1A10739   1.211   9.389   5.973  0.0143  0.0124 -0.4012
  756loPI   C2A10740   1.163   9.248   6.427  0.1913 -0.0774 -0.2190
  756loPI   C3A10741   1.189   9.151   6.766 -0.1193 -0.0628 -0.3021
  756loPI   C4A10742   1.209   9.087   7.190  0.0769  0.1804 -0.1469
  756loPI   C5A10743   1.118   9.216   7.543 -0.0926  0.3262 -0.0259
  756loPI   C6A10744   1.158   9.641   7.789 -0.1973 -0.1238  0.1228
  756loPI   C1B10745   0.692   9.356   6.286 -0.0539 -0.1464  0.3233
  756loPI   C2B10746   0.771   9.491   6.740  0.2250  0.2978  0.2702
  756loPI   C3B10747   0.812   9.404   7.116 -0.0912  0.2510  0.0597
  756loPI   C4B10748   0.760   9.606   7.475  0.2222 -0.0650 -0.3961
  757loPI    C110749   2.245  12.917   5.374  0.1507 -0.2242  0.0743
  757loPI    C210750   1.902  12.880   5.576  0.0168 -0.1331 -0.1325
  757loPI    C310751   1.903  12.850   5.178  0.2103  0.1137 -0.1529
  757loPI   PO410752   2.302  13.174   5.435  0.1822 -0.1912  0.0721
  757loPI   GL110753   2.349  13.453   5.801 -0.2207 -0.0779  0.0229
  757loPI   GL210754   2.293  13.874   5.973  0.1024  0.1379  0.1071
  757loPI   C1A10755   2.216  13.475   6.267 -0.0604  0.0011 -0.4274
  757loPI   C2A10756   2.210  13.458   6.730 -0.0805 -0.1270 -0.0053
  757loPI   C3A10757   2.137  13.605   7.179 -0.1438  0.0963 -0.0663
  757loPI   C4A10758   2.085  13.992   7.401 -0.0303  0.2643 -0.0240
  757loPI   C5A10759   1.839  14.295   7.625  0.1166 -0.4141 -0.0435
  757loPI   C6A10760   1.540  14.623   7.706 -0.0929  0.0731 -0.1142
  757loPI   C1B10761   2.290  13.974   6.450  0.1035 -0.1146 -0.3041
  757loPI   C2B10762   2.270  14.004   6.859  0.4265 -0.0386 -0.1956
  757loPI   C3B10763   2.515  14.077   7.281  0.2918 -0.0505  0.3166
  757loPI   C4B10764   2.762  14.206   7.614 -0.2194  0.0072 -0.0129
  758loPI    C110765   9.840  16.267   5.847 -0.2838  0.1950  0.2861
  758loPI    C210766   9.824  15.919   5.651  0.2275  0.3215  0.0026
  758loPI    C310767   9.489  16.129   5.713 -0.0375 -0.0520 -0.1243
  758loPI   PO410768  10.105  16.340   5.873 -0.3229 -0.2197 -0.3203
  758loPI   GL110769  10.343  16.608   6.154  0.1215  0.3483 -0.1644
  758loPI   GL210770  10.729  16.569   6.247 -0.0839  0.1999 -0.2207
  758loPI   C1A10771  10.193  16.694   6.552 -0.3326  0.2426  0.0006
  758loPI   C2A10772  10.129  16.579   6.987 -0.1487  0.0106  0.1035
  758loPI   C3A10773  10.196  16.432   7.388 -0.1071 -0.2871 -0.0436
  758loPI   C4A10774  10.325  16.505   7.809  0.2477 -0.1368 -0.2120
  758loPI   C5A10775  10.424  16.270   8.182  0.0884 -0.3387 -0.2976
  758loPI   C6A10776  10.253  16.125   8.631  0.2412 -0.1125 -0.0207
  758loPI   C1B10777  10.654  16.413   6.642 -0.3506 -0.0123  0.2623
  758loPI   C2B10778  10.944  16.448   6.920 -0.3576  0.3119  0.0823
  758loPI   C3B10779  11.218  16.427   7.347  0.0219 -0.3032 -0.1650
  758loPI   C4B10780  11.569  16.394   7.559 -0.0245  0.0410 -0.1237
  759loPI    C110781   8.464   5.538   5.446  0.0353 -0.2308  0.0446
  759loPI    C210782   8.703   5.846   5.535 -0.0232 -0.2938  0.4364
  759loPI    C310783   8.792   5.606   5.228  0.0054  0.1288  0.1058
  759loPI   PO410784   8.204   5.590   5.572 -0.0020  0.2027 -0.1581
  759loPI   GL110785   8.170   5.505   6.122 -0.1139  0.0693 -0.2310
  759loPI   GL210786   8.041   5.152   6.069  0.0363 -0.1701 -0.0624
  759loPI   C1A10787   8.610   5.300   6.270 -0.1358  0.4110  0.1414
  759loPI   C2A10788   8.841   5.162   6.627 -0.3843 -0.0416  0.1005
  759loPI   C3A10789   8.803   5.114   7.034 -0.0862  0.0940  0.2201
  759loPI   C4A10790   8.708   5.444   7.340 -0.3593  0.3192  0.5261
  759loPI   C5A10791   8.689   5.681   7.745 -0.0500 -0.2045 -0.0398
  759loPI   C6A10792   8.716   5.691   8.260 -0.0756  0.0262  0.0439
  759loPI   C1B10793   8.197   5.139   6.515  0.3672  0.3005  0.2173
  759loPI   C2B10794   8.239   5.201   6.987  0.0408  0.1754 -0.1262
  759loPI   C3B10795   8.426   4.995   7.332  0.2712  0.0127  0.0286
  759loPI   C4B10796   8.859   4.982   7.623  0.1153 -0.2174  0.1310
  760loPI    C110797   8.707  12.413   5.364  0.1374 -0.3014 -0.1287
  760loPI    C210798   8.734  12.793   5.241  0.0783 -0.1753  0.2371
  760loPI    C310799   8.793  12.495   4.982  0.1178  0.0820 -0.0555
  760loPI   PO410800   8.736  12.452   5.606  0.0521  0.2191  0.0135
  760loPI   GL110801   8.799  12.460   6.092  0.0593 -0.1614 -0.0851
  760loPI   GL210802   8.972  12.241   6.163  0.3302 -0.2345 -0.0897
  760loPI   C1A10803   8.563  12.554   6.495 -0.1985 -0.2554  0.2763
  760loPI   C2A10804   8.512  12.783   6.854  0.3106  0.1810 -0.0584
  760loPI   C3A10805   8.456  12.712   7.222 -0.2215 -0.0299  0.3146
  760loPI   C4A10806   8.623  12.615   7.568  0.1634 -0.0414 -0.1097
  760loPI   C5A10807   8.590  12.311   7.897  0.2039 -0.0883  0.0045
  760loPI   C6A10808   8.671  11.980   8.135 -0.0515  0.0193  0.0014
  760loPI   C1B10809   8.892  12.189   6.690  0.1876 -0.4678  0.0425
  760loPI   C2B10810   9.047  12.146   7.110  0.0092  0.2052 -0.0277
  760loPI   C3B10811   9.022  12.339   7.499 -0.1201  0.0451 -0.2983
  760loPI   C4B10812   9.439  12.588   7.576  0.1063 -0.1805  0.0030
  761loPI    C110813  17.896   6.199   5.115  0.1944  0.0138 -0.0427
  761loPI    C210814  18.044   6.570   5.099 -0.0889  0.1198 -0.3411
  761loPI    C310815  18.125   6.310   4.806  0.0300 -0.0266 -0.1808
  761loPI   PO410816  17.883   6.233   5.390 -0.4974  0.1356 -0.4424
  761loPI   GL110817  18.043   6.388   5.787 -0.1581 -0.0051 -0.0135
  761loPI   GL210818  18.264   6.501   5.680  0.0023  0.0495  0.0639
  761loPI   C1A10819  18.005   6.440   6.185 -0.3306  0.0840  0.0166
  761loPI   C2A10820  17.834   6.490   6.623  0.0793 -0.1721 -0.0176
  761loPI   C3A10821  17.797   6.283   6.966  0.3533 -0.0028  0.0544
  761loPI   C4A10822  17.651   6.153   7.318 -0.0843  0.0263  0.0229
  761loPI   C5A10823  17.300   5.904   7.472  0.1022 -0.1001  0.0404
  761loPI   C6A10824  17.222   5.444   7.448  0.0211 -0.0701  0.2042
  761loPI   C1B10825  18.461   6.572   6.165  0.0188 -0.0592 -0.1214
  761loPI   C2B10826  18.380   6.428   6.621  0.0979  0.0909  0.1489
  761loPI   C3B10827  18.331   6.217   7.034  0.0909 -0.0244  0.1428
  761loPI   C4B10828  18.111   6.070   7.436 -0.0864  0.0789 -0.1288
  762loPI    C110829  11.259  18.378   5.827 -0.0605 -0.3273 -0.1991
  762loPI    C210830  11.030  18.665   5.668 -0.0965 -0.1454  0.1709
  762loPI    C310831  11.000  18.288   5.536 -0.3715 -0.0629 -0.0097
  762loPI   PO410832  11.271  18.377   6.024 -0.0500  0.0771 -0.2202
  762loPI   GL110833  10.968  18.598   6.292  0.3018  0.1312 -0.0889
  762loPI   GL210834  10.801  18.428   6.255 -0.0032 -0.1073 -0.2726
  762loPI   C1A10835  11.087  18.579   6.686  0.2760  0.0911  0.0415
  762loPI   C2A10836  10.942  18.577   7.038  0.0018  0.0277  0.0929
  762loPI   C3A10837  11.065  18.650   7.498 -0.2240  0.2562  0.0510
  762loPI   C4A10838  10.790  18.501   7.879 -0.3551  0.0330  0.0307
  762loPI   C5A10839  10.400  18.524   7.963 -0.0477  0.0304 -0.1631
  762loPI   C6A10840  10.211  18.411   8.284  0.1463 -0.1133  0.1560
  762loPI   C1B10841  10.725  18.265   6.694 -0.1735  0.2772  0.2627
  762loPI   C2B10842  10.723  17.918   6.915  0.0973 -0.0200 -0.3319
  762loPI   C3B10843  10.674  17.721   7.326 -0.0536  0.0423  0.2590
  762loPI   C4B10844  10.670  17.423   7.660 -0.2862 -0.1850  0.2262
  763loPI    C110845  14.453  11.209   5.792  0.2653 -0.0663 -0.2569
  763loPI    C210846  14.433  11.325   5.409  0.0367  0.0698 -0.2052
  763loPI    C310847  14.610  11.560   5.680  0.4140 -0.1356 -0.2676
  763loPI   PO410848  14.481  10.934   5.811  0.0158 -0.0692  0.0991
  763loPI   GL110849  14.379  10.791   6.198  0.0456  0.1151  0.2715
  763loPI   GL210850  14.635  10.967   6.365  0.0735 -0.0297  0.2122
  763loPI   C1A10851  14.277  10.658   6.680  0.1112  0.1680 -0.1017
  763loPI   C2A10852  14.168  10.395   7.044 -0.2476 -0.0097  0.5090
  763loPI   C3A10853  14.271  10.334   7.463 -0.1257  0.0572 -0.2818
  763loPI   C4A10854  14.106  10.396   7.873 -0.1128 -0.0738 -0.2211
  763loPI   C5A10855  13.917  10.870   7.950  0.0087 -0.0317 -0.1632
  763loPI   C6A10856  14.029  11.141   8.236 -0.0137  0.3290  0.0661
  763loPI   C1B10857  14.547  11.065   6.767  0.0937 -0.1824 -0.2031
  763loPI   C2B10858  14.636  11.062   7.148  0.2320  0.1284 -0.0960
  763loPI   C3B10859  14.724  11.182   7.536 -0.3593  0.2509 -0.1822
  763loPI   C4B10860  14.838  11.102   7.905 -0.0477 -0.0965  0.0121
  764loPI    C110861  14.301   6.175   5.500 -0.1137  0.1351 -0.0544
  764loPI    C210862  14.619   5.950   5.590 -0.0682  0.1372 -0.2069
  764loPI    C310863  14.485   5.964   5.214 -0.1622  0.2482 -0.1698
  764loPI   PO410864  14.069   6.149   5.690 -0.2219 -0.2550 -0.0781
  764loPI   GL110865  14.013   6.261   6.034  0.4053  0.3317 -0.0423
  764loPI   GL210866  14.172   5.835   6.014 -0.0180  0.0129  0.0531
  764loPI   C1A10867  14.132   6.122   6.443 -0.3348  0.1945  0.3134
  764loPI   C2A10868  14.368   5.919   6.834 -0.0655 -0.2244 -0.1408
  764loPI   C3A10869  14.392   5.768   7.264 -0.2649 -0.0927 -0.0278
  764loPI   C4A10870  14.542   5.864   7.608 -0.1340  0.1569  0.2058
  764loPI   C5A10871  14.494   6.041   8.011  0.0294 -0.1753  0.1040
  764loPI   C6A10872  14.111   6.228   8.131 -0.1182  0.0626 -0.0052
  764loPI   C1B10873  14.574   6.023   6.093 -0.0769 -0.0728  0.0663
  764loPI   C2B10874  14.754   5.932   6.463 -0.1075 -0.1013 -0.0286
  764loPI   C3B10875  15.079   5.963   6.743 -0.0552 -0.1914 -0.1851
  764loPI   C4B10876  15.308   6.121   7.143 -0.5209 -0.1030 -0.2873
  765loPI    C110877  17.464   3.042   5.184  0.0312 -0.0037  0.1123
  765loPI    C210878  17.122   3.001   5.388 -0.0592 -0.0554 -0.0484
  765loPI    C310879  17.146   3.264   5.087  0.0600 -0.0110 -0.0006
  765loPI   PO410880  17.612   2.941   5.392 -0.3245  0.0638  0.0728
  765loPI   GL110881  17.370   2.855   5.769 -0.2972 -0.0378  0.0600
  765loPI   GL210882  17.278   2.631   5.907  0.1625 -0.0325 -0.0296
  765loPI   C1A10883  17.654   2.909   6.149  0.2157 -0.1969 -0.0558
  765loPI   C2A10884  17.680   2.812   6.554 -0.2138 -0.5584 -0.2248
  765loPI   C3A10885  17.693   2.815   6.963  0.4062  0.0518  0.0127
  765loPI   C4A10886  17.912   2.820   7.353  0.1110  0.0496 -0.0898
  765loPI   C5A10887  18.184   2.664   7.703 -0.2619  0.1754 -0.3117
  765loPI   C6A10888  18.599   2.561   7.834 -0.1310  0.1529 -0.0147
  765loPI   C1B10889  17.310   2.474   6.361  0.2589 -0.1049  0.0463
  765loPI   C2B10890  17.548   2.298   6.576 -0.0585 -0.0284  0.1833
  765loPI   C3B10891  17.513   2.192   6.963 -0.2209 -0.1853  0.2702
  765loPI   C4B10892  17.490   1.943   7.349  0.0516 -0.1143  0.1482
  766loPI    C110893   8.298   7.445   5.381 -0.4421 -0.0260  0.1337
  766loPI    C210894   8.122   7.198   5.121 -0.1010  0.0414 -0.1689
  766loPI    C310895   8.357   7.494   4.989  0.2567 -0.0595  0.2212
  766loPI   PO410896   8.215   7.257   5.636  0.2558 -0.3265 -0.0917
  766loPI   GL110897   8.038   6.901   5.888  0.0425  0.2673 -0.0370
  766loPI   GL210898   8.078   6.534   5.932  0.0199  0.0860 -0.3801
  766loPI   C1A10899   8.181   7.136   6.325  0.3229 -0.2093 -0.0493
  766loPI   C2A10900   8.269   7.042   6.730  0.1638 -0.1267 -0.0739
  766loPI   C3A10901   8.488   6.915   7.068  0.3584  0.0568  0.1372
  766loPI   C4A10902   8.523   6.838   7.536  0.0973 -0.1919  0.0923
  766loPI   C5A10903   8.660   7.006   7.863 -0.2932  0.0943 -0.1185
  766loPI   C6A10904   8.556   7.086   8.203  0.0660  0.1721  0.2895
  766loPI   C1B10905   8.204   6.541   6.309 -0.2289  0.0002 -0.0812
  766loPI   C2B10906   8.260   6.549   6.656 -0.0900 -0.0651  0.1423
  766loPI   C3B10907   8.171   6.120   6.887  0.0953  0.1469  0.0699
  766loPI   C4B10908   8.442   5.869   7.046 -0.1137  0.0861  0.0313
  767loPI    C110909   7.240  15.645   5.216 -0.0537 -0.2243 -0.0837
  767loPI    C210910   6.906  15.471   5.080  0.0133 -0.1860 -0.3010
  767loPI    C310911   7.002  15.841   4.961 -0.1154 -0.0043  0.1379
  767loPI   PO410912   7.318  15.522   5.438  0.3313  0.1644 -0.2529
  767loPI   GL110913   7.272  15.668   5.826  0.0658 -0.0342  0.1285
  767loPI   GL210914   7.058  15.533   5.916  0.0678 -0.2868 -0.0267
  767loPI   C1A10915   7.463  15.727   6.243  0.1373  0.0969 -0.1600
  767loPI   C2A10916   7.338  15.712   6.700 -0.1688  0.2108  0.2178
  767loPI   C3A10917   7.391  15.585   7.104  0.3151 -0.0974  0.2834
  767loPI   C4A10918   7.446  15.755   7.493 -0.1014 -0.2515  0.2291
  767loPI   C5A10919   7.645  15.655   7.892 -0.0812  0.0980 -0.4017
  767loPI   C6A10920   7.535  15.634   8.350  0.1540 -0.0042  0.1819
  767loPI   C1B10921   7.008  15.395   6.462  0.1925 -0.1046  0.0477
  767loPI   C2B10922   6.944  15.419   6.935  0.1159 -0.0270  0.2784
  767loPI   C3B10923   6.921  15.677   7.304 -0.0165 -0.1080  0.1801
  767loPI   C4B10924   6.658  15.840   7.565  0.1015 -0.0100 -0.1043
  768loPI    C110925   8.204  14.503   5.745 -0.2616 -0.0759  0.1727
  768loPI    C210926   7.841  14.348   5.676 -0.2483 -0.0628  0.0718
  768loPI    C310927   8.096  14.402   5.373 -0.1875 -0.0077  0.1325
  768loPI   PO410928   8.219  14.458   5.990 -0.2641 -0.2083  0.0775
  768loPI   GL110929   7.964  14.577   6.319 -0.2103 -0.1435  0.2070
  768loPI   GL210930   7.704  14.779   6.012  0.0485  0.1679 -0.0693
  768loPI   C1A10931   7.820  14.668   6.762 -0.2284  0.1570  0.0537
  768loPI   C2A10932   7.611  14.614   7.145  0.0996 -0.4738 -0.3164
  768loPI   C3A10933   7.352  14.757   7.485 -0.1122  0.1894 -0.2355
  768loPI   C4A10934   7.212  14.671   7.875 -0.3127 -0.2015  0.2567
  768loPI   C5A10935   7.055  14.279   7.947 -0.0274 -0.4687  0.4413
  768loPI   C6A10936   6.774  14.035   8.082 -0.1655  0.1995  0.2989
  768loPI   C1B10937   7.437  14.540   6.335  0.1864  0.0756  0.1893
  768loPI   C2B10938   7.288  14.634   6.735  0.1807 -0.0716  0.1767
  768loPI   C3B10939   7.034  14.601   7.042  0.1884  0.0685 -0.4035
  768loPI   C4B10940   6.788  14.654   7.325 -0.1743  0.1562  0.2287
  769loPI    C110941  11.651  13.781   5.533  0.0556  0.0531  0.1148
  769loPI    C210942  11.778  14.042   5.257 -0.1441  0.0316  0.0003
  769loPI    C310943  12.030  13.768   5.405  0.0500  0.2466  0.0749
  769loPI   PO410944  11.597  13.853   5.724  0.0356 -0.0805  0.0121
  769loPI   GL110945  11.313  13.665   6.048 -0.3554 -0.1839  0.6272
  769loPI   GL210946  11.345  13.263   6.144  0.1548  0.1851  0.1387
  769loPI   C1A10947  11.331  13.663   6.451 -0.0227  0.1732 -0.2121
  769loPI   C2A10948  11.405  13.661   6.878 -0.0870  0.0560 -0.1279
  769loPI   C3A10949  11.308  13.543   7.248  0.2865 -0.1254  0.2886
  769loPI   C4A10950  11.280  13.489   7.674  0.1177  0.1471  0.0566
  769loPI   C5A10951  11.283  13.413   8.071  0.0586  0.1090  0.1008
  769loPI   C6A10952  11.392  13.121   8.466  0.0762  0.1360 -0.0621
  769loPI   C1B10953  11.333  13.150   6.563 -0.0835 -0.0692  0.1012
  769loPI   C2B10954  11.323  13.074   7.014  0.1767 -0.0213  0.1601
  769loPI   C3B10955  11.272  12.950   7.337 -0.0693 -0.1694 -0.1275
  769loPI   C4B10956  11.233  12.888   7.736 -0.0028  0.0292 -0.0664
  770loPI    C110957  14.699   8.051   5.642 -0.2057  0.0585 -0.1226
  770loPI    C210958  14.784   8.382   5.436 -0.1996  0.0825 -0.0817
  770loPI    C310959  14.942   8.327   5.799 -0.2360  0.0557 -0.0699
  770loPI   PO410960  14.552   7.978   5.747  0.3069 -0.2454 -0.0330
  770loPI   GL110961  14.480   8.172   6.119  0.0321  0.1581 -0.2138
  770loPI   GL210962  14.739   8.021   6.161  0.0066 -0.1205 -0.1314
  770loPI   C1A10963  14.636   8.393   6.538 -0.2130 -0.0145 -0.2213
  770loPI   C2A10964  14.877   8.323   6.960 -0.0114 -0.1871  0.4417
  770loPI   C3A10965  14.722   8.190   7.341 -0.0389  0.0592  0.1010
  770loPI   C4A10966  14.605   8.245   7.749 -0.1551  0.3210  0.1631
  770loPI   C5A10967  14.314   8.221   8.075 -0.0686 -0.0185 -0.1082
  770loPI   C6A10968  14.429   8.078   8.499 -0.1240  0.0914 -0.1964
  770loPI   C1B10969  14.908   7.981   6.544  0.2629  0.1612  0.1953
  770loPI   C2B10970  14.790   7.690   6.927 -0.3439 -0.0794 -0.0100
  770loPI   C3B10971  14.508   7.779   7.315 -0.2670  0.0450 -0.1130
  770loPI   C4B10972  14.283   7.847   7.591 -0.1120  0.1089  0.0473
  771loPI    C110973   1.043   5.467   5.036 -0.1320 -0.0739  0.1772
  771loPI    C210974   0.859   5.805   4.927  0.0129 -0.0856 -0.1157
  771loPI    C310975   0.770   5.462   4.743 -0.0816 -0.1961  0.1316
  771loPI   PO410976   1.128   5.643   5.329  0.0721  0.1755 -0.1967
  771loPI   GL110977   1.025   5.707   5.657  0.2020 -0.0714  0.3178
  771loPI   GL210978   0.734   5.954   5.863 -0.2565  0.1268  0.1112
  771loPI   C1A10979   1.375   6.007   5.907 -0.0728 -0.0245 -0.1483
  771loPI   C2A10980   1.504   6.205   6.313 -0.1506  0.1094  0.1462
  771loPI   C3A10981   1.478   6.296   6.764 -0.0340 -0.3347 -0.2840
  771loPI   C4A10982   1.294   6.298   7.196 -0.2432  0.1035  0.3340
  771loPI   C5A10983   1.247   6.237   7.598 -0.1184 -0.1526 -0.0949
  771loPI   C6A10984   0.964   6.216   7.826  0.2188  0.3087  0.2931
  771loPI   C1B10985   0.887   5.839   6.220 -0.2249 -0.2424  0.0263
  771loPI   C2B10986   0.703   5.728   6.607  0.1484 -0.1310  0.5668
  771loPI   C3B10987   0.673   5.605   7.069  0.2879 -0.0067  0.1325
  771loPI   C4B10988   0.759   5.561   7.485  0.1678 -0.0147 -0.0836
  772loPI    C110989  10.187   1.707   5.668 -0.1762 -0.1449 -0.0592
  772loPI    C210990  10.476   1.866   5.442 -0.2668 -0.0043 -0.0778
  772loPI    C310991  10.274   1.546   5.313 -0.0966 -0.1245 -0.0490
  772loPI   PO410992  10.299   1.822   5.961 -0.0080  0.1180 -0.1280
  772loPI   GL110993  10.224   2.040   6.342  0.0196 -0.0198 -0.0306
  772loPI   GL210994  10.181   1.714   6.504  0.1482  0.3404  0.1129
  772loPI   C1A10995  10.164   2.128   6.763  0.0196 -0.2175  0.1757
  772loPI   C2A10996  10.329   2.269   7.153 -0.0268  0.5178  0.3373
  772loPI   C3A10997  10.280   2.184   7.638 -0.0107 -0.1942 -0.2081
  772loPI   C4A10998  10.235   2.524   7.911 -0.3091 -0.0596  0.0115
  772loPI   C5A10999  10.222   2.929   8.119  0.0048 -0.2546 -0.0364
  772loPI   C6A11000  10.166   3.236   8.508 -0.1891 -0.1877 -0.1803
  772loPI   C1B11001  10.109   1.430   6.857 -0.1815 -0.0567  0.2753
  772loPI   C2B11002  10.221   1.403   7.323 -0.1467 -0.3396 -0.2157
  772loPI   C3B11003  10.196   1.391   7.715  0.1031  0.0831  0.0479
  772loPI   C4B11004  10.228   1.560   8.111 -0.0075 -0.0515  0.0438
  773loPI    C111005   7.281   3.456   4.785  0.0524  0.0132  0.0772
  773loPI    C211006   7.209   3.820   4.637  0.1575  0.0107  0.0200
  773loPI    C311007   7.584   3.709   4.723  0.1247 -0.0807  0.0455
  773loPI   PO411008   6.996   3.451   4.940 -0.0722 -0.0245  0.3040
  773loPI   GL111009   6.864   3.524   5.343  0.0115  0.0658 -0.1496
  773loPI   GL211010   6.671   3.640   5.472 -0.1343  0.1883  0.0110
  773loPI   C1A11011   6.972   3.464   5.860  0.1396 -0.0880  0.1967
  773loPI   C2A11012   7.069   3.515   6.340 -0.0067  0.2296 -0.2549
  773loPI   C3A11013   7.285   3.403   6.725 -0.0474 -0.0316  0.2986
  773loPI   C4A11014   7.407   3.083   6.903  0.1381  0.2904  0.2410
  773loPI   C5A11015   7.534   2.957   7.313  0.2136 -0.1086  0.0801
  773loPI   C6A11016   7.455   2.805   7.750 -0.2017  0.1409  0.0569
  773loPI   C1B11017   6.639   3.762   6.010 -0.0124 -0.1040  0.2842
  773loPI   C2B11018   6.731   3.856   6.437 -0.0602  0.2631 -0.0529
  773loPI   C3B11019   7.017   3.789   6.855  0.0129  0.1121 -0.1787
  773loPI   C4B11020   7.253   3.539   7.169  0.2075 -0.1416  0.2020
  774loPI    C111021   3.788  12.260   5.095  0.2372 -0.2042  0.3725
  774loPI    C211022   3.391  12.215   5.097  0.2255 -0.1197  0.1783
  774loPI    C311023   3.607  12.070   4.794  0.2884  0.2701  0.0309
  774loPI   PO411024   3.849  12.564   5.200  0.0608 -0.1025  0.0078
  774loPI   GL111025   3.858  12.703   5.732 -0.1535  0.2699 -0.1384
  774loPI   GL211026   3.513  12.650   5.673 -0.2601 -0.1128  0.1655
  774loPI   C1A11027   4.035  12.713   6.061 -0.1112  0.6452  0.0504
  774loPI   C2A11028   4.312  12.685   6.520 -0.0366  0.3560  0.1744
  774loPI   C3A11029   4.701  12.515   6.813 -0.0324  0.0826  0.3027
  774loPI   C4A11030   4.738  12.524   7.321 -0.0175  0.1195 -0.0133
  774loPI   C5A11031   4.519  12.229   7.720  0.2680  0.0025  0.0338
  774loPI   C6A11032   4.224  12.055   7.884 -0.2254  0.3316 -0.2254
  774loPI   C1B11033   3.577  12.482   6.090 -0.1482  0.1537  0.0988
  774loPI   C2B11034   3.328  12.382   6.444  0.2172 -0.1029  0.0282
  774loPI   C3B11035   3.268  12.041   6.725  0.0693  0.1378 -0.0153
  774loPI   C4B11036   3.540  11.596   6.811  0.1957 -0.1364  0.0646
  775loPI    C111037   2.357  16.328   5.474 -0.0813  0.0323 -0.0579
  775loPI    C211038   2.728  16.382   5.335 -0.0311  0.0379  0.0767
  775loPI    C311039   2.422  16.344   5.080  0.0648  0.0103 -0.0352
  775loPI   PO411040   2.404  16.263   5.716 -0.0550 -0.0931 -0.0492
  775loPI   GL111041   2.642  16.310   6.038 -0.3524 -0.2282  0.0572
  775loPI   GL211042   2.666  16.579   6.130  0.0506 -0.2342 -0.3954
  775loPI   C1A11043   2.698  16.186   6.367 -0.1064 -0.0753  0.0604
  775loPI   C2A11044   3.107  16.148   6.743  0.3538 -0.1787 -0.0507
  775loPI   C3A11045   3.470  15.870   6.784  0.0819  0.0139 -0.1217
  775loPI   C4A11046   3.687  15.873   7.263  0.0359 -0.0006  0.0060
  775loPI   C5A11047   3.916  15.540   7.445 -0.0923  0.2069  0.0445
  775loPI   C6A11048   4.239  15.296   7.610  0.0990 -0.0275  0.1466
  775loPI   C1B11049   2.421  16.561   6.543 -0.0253  0.1469 -0.2520
  775loPI   C2B11050   2.398  16.626   7.107 -0.1475  0.3541  0.0485
  775loPI   C3B11051   2.555  16.487   7.532  0.0030 -0.0142  0.3366
  775loPI   C4B11052   2.614  16.725   7.950  0.0076 -0.2085  0.0636
  776loPI    C111053  16.960   7.936   5.277  0.0183  0.1465  0.0340
  776loPI    C211054  16.619   7.738   5.345  0.0345  0.1847  0.2337
  776loPI    C311055  16.877   7.604   5.070 -0.1978  0.2253 -0.0085
  776loPI   PO411056  17.093   7.941   5.603  0.0499  0.1630  0.0390
  776loPI   GL111057  16.922   8.197   5.975 -0.4171  0.0472 -0.0626
  776loPI   GL211058  17.332   8.132   6.006 -0.0890  0.5003  0.2276
  776loPI   C1A11059  17.058   8.303   6.418  0.2593  0.1033 -0.1757
  776loPI   C2A11060  16.997   8.355   6.878 -0.1795 -0.0419 -0.1161
  776loPI   C3A11061  16.968   8.327   7.282 -0.1753 -0.2193 -0.3515
  776loPI   C4A11062  16.988   8.511   7.704  0.1239 -0.1993  0.0897
  776loPI   C5A11063  17.081   9.053   7.711  0.1627  0.0845 -0.0522
  776loPI   C6A11064  16.836   9.349   7.898  0.0845  0.1757 -0.0252
  776loPI   C1B11065  17.569   8.256   6.302  0.2033  0.3433 -0.0011
  776loPI   C2B11066  17.512   8.212   6.697  0.0221  0.0031  0.0286
  776loPI   C3B11067  17.480   8.021   7.139  0.0172  0.0583  0.0135
  776loPI   C4B11068  17.735   7.768   7.410 -0.0286 -0.0026  0.0794
  777loPI    C111069   6.378  10.772   5.026  0.1815 -0.0348  0.2591
  777loPI    C211070   6.748  10.662   5.131  0.2106 -0.1405  0.0527
  777loPI    C311071   6.531  10.427   4.891  0.0756  0.0057  0.0303
  777loPI   PO411072   6.375  10.898   5.376 -0.2446  0.0431 -0.3828
  777loPI   GL111073   6.287  11.115   5.741  0.0274  0.1117 -0.1005
  777loPI   GL211074   6.628  11.106   6.021  0.0736  0.2495  0.0017
  777loPI   C1A11075   6.119  11.162   6.154  0.0941  0.0074  0.0329
  777loPI   C2A11076   6.019  11.333   6.566  0.0671  0.2000 -0.0959
  777loPI   C3A11077   5.999  11.528   6.844 -0.1541 -0.1474  0.2668
  777loPI   C4A11078   5.960  11.546   7.307 -0.2233 -0.3087 -0.1260
  777loPI   C5A11079   5.754  11.807   7.542  0.0065  0.0507 -0.0036
  777loPI   C6A11080   5.755  12.181   7.867 -0.4489  0.1259 -0.1333
  777loPI   C1B11081   6.553  10.963   6.519 -0.1723  0.1099 -0.1255
  777loPI   C2B11082   6.666  10.799   6.904 -0.2436  0.1438 -0.1679
  777loPI   C3B11083   6.479  10.776   7.277 -0.2722 -0.2476 -0.0441
  777loPI   C4B11084   6.294  10.736   7.726  0.0016 -0.1618  0.2922
  778loPI    C111085  11.155  15.279   5.760  0.0098 -0.1876 -0.0033
  778loPI    C211086  11.127  15.365   5.371  0.1622  0.2023  0.0671
  778loPI    C311087  11.382  15.083   5.495  0.0707  0.0354 -0.1186
  778loPI   PO411088  10.940  15.172   5.891 -0.1919  0.4399 -0.2784
  778loPI   GL111089  10.717  15.021   6.218 -0.3344 -0.1479  0.1149
  778loPI   GL211090  11.003  14.814   6.248  0.0129  0.1169 -0.1249
  778loPI   C1A11091  10.594  14.784   6.581 -0.0073  0.0188  0.2404
  778loPI   C2A11092  10.584  14.884   7.014 -0.3231  0.1143  0.1964
  778loPI   C3A11093  10.619  15.021   7.455  0.0153  0.2600  0.3318
  778loPI   C4A11094  10.508  15.216   7.878 -0.0192  0.0018 -0.0866
  778loPI   C5A11095  10.441  15.353   8.311 -0.1125 -0.2403 -0.0615
  778loPI   C6A11096  10.450  15.667   8.647  0.0185 -0.0473  0.2022
  778loPI   C1B11097  11.117  14.995   6.660 -0.2972  0.5243 -0.1753
  778loPI   C2B11098  11.056  14.966   7.068  0.2093  0.0261  0.2644
  778loPI   C3B11099  11.160  15.084   7.477 -0.0176 -0.0842 -0.0603
  778loPI   C4B11100  11.060  15.310   7.925  0.0021  0.2612  0.0800
  779loPI    C111101   7.546  17.116   5.514 -0.0163  0.0932 -0.1854
  779loPI    C211102   7.881  17.011   5.321 -0.0452 -0.0825 -0.1415
  779loPI    C311103   7.526  16.879   5.192 -0.0597 -0.2500  0.0653
  779loPI   PO411104   7.683  17.024   5.806  0.0746  0.0072 -0.1072
  779loPI   GL111105   7.851  16.839   6.098  0.1605 -0.1492  0.4145
  779loPI   GL211106   7.569  16.999   6.294 -0.0729  0.0679  0.0085
  779loPI   C1A11107   8.116  16.909   6.497 -0.0495 -0.2727 -0.3388
  779loPI   C2A11108   8.050  16.929   6.909  0.0662 -0.0749  0.0097
  779loPI   C3A11109   8.078  17.080   7.377  0.0218  0.1154  0.2843
  779loPI   C4A11110   8.095  16.964   7.848 -0.5328 -0.0878  0.0133
  779loPI   C5A11111   8.254  16.810   8.195  0.2164  0.0031  0.1417
  779loPI   C6A11112   8.171  16.568   8.605 -0.2237  0.1253  0.3562
  779loPI   C1B11113   7.596  17.036   6.728 -0.0589  0.1340 -0.0859
  779loPI   C2B11114   7.641  17.028   7.127 -0.0138 -0.2667  0.0375
  779loPI   C3B11115   7.608  17.073   7.567 -0.0073 -0.0845  0.1463
  779loPI   C4B11116   7.683  17.229   7.955  0.0924 -0.1644 -0.1351
  780loPI    C111117  16.919  14.583   5.246 -0.0800  0.1303  0.0265
  780loPI    C211118  16.865  14.195   5.324  0.2447  0.0770 -0.0005
  780loPI    C311119  16.804  14.334   4.954  0.2807  0.0212 -0.0278
  780loPI   PO411120  17.128  14.618   5.464 -0.2270 -0.3014 -0.0670
  780loPI   GL111121  17.321  14.549   5.835 -0.2343 -0.2474  0.2657
  780loPI   GL211122  17.407  14.861   5.951  0.0797 -0.3594 -0.0157
  780loPI   C1A11123  17.174  14.355   6.221  0.2180 -0.1098  0.2635
  780loPI   C2A11124  17.158  14.114   6.590  0.0786  0.0476  0.0360
  780loPI   C3A11125  17.040  14.026   6.988 -0.0482 -0.0764  0.3236
  780loPI   C4A11126  17.120  13.903   7.518  0.2382 -0.1634 -0.1791
  780loPI   C5A11127  17.478  13.823   7.880  0.0714 -0.1321 -0.2340
  780loPI   C6A11128  17.936  14.041   7.959  0.0467  0.0415  0.0001
  780loPI   C1B11129  17.352  14.789   6.383 -0.1228 -0.1073  0.0361
  780loPI   C2B11130  17.129  14.619   6.701 -0.3386 -0.0619  0.0428
  780loPI   C3B11131  17.271  14.611   7.057 -0.1161  0.2387 -0.0468
  780loPI   C4B11132  17.263  14.413   7.511  0.1561  0.3210  0.0156
  781loPI    C111133  12.654  16.129   6.125 -0.0329  0.1283 -0.0588
  781loPI    C211134  12.336  15.963   6.302  0.1214 -0.2133 -0.0950
  781loPI    C311135  12.350  15.993   5.903  0.0812 -0.0841 -0.0871
  781loPI   PO411136  12.854  16.049   6.365 -0.1167 -0.2129  0.4254
  781loPI   GL111137  12.863  15.901   6.676  0.0195 -0.1490  0.2848
  781loPI   GL211138  12.536  15.764   6.760  0.0572 -0.0310 -0.0463
  781loPI   C1A11139  13.039  15.839   7.082 -0.3271  0.3410 -0.3185
  781loPI   C2A11140  13.081  15.666   7.487 -0.6380  0.0443  0.1293
  781loPI   C3A11141  13.116  15.388   7.720  0.0697  0.2171  0.2550
  781loPI   C4A11142  12.853  15.365   8.029  0.0088  0.1397 -0.0482
  781loPI   C5A11143  12.908  15.278   8.410 -0.2536  0.3456  0.0247
  781loPI   C6A11144  12.877  14.917   8.652 -0.0033 -0.3445 -0.1094
  781loPI   C1B11145  12.488  15.900   7.060  0.2340 -0.0403  0.0831
  781loPI   C2B11146  12.714  15.997   7.526 -0.3210 -0.0843  0.1565
  781loPI   C3B11147  12.923  15.835   7.898  0.2512 -0.2476  0.0675
  781loPI   C4B11148  13.089  15.727   8.272  0.0182  0.0261 -0.0743
  782loPI    C111149  12.863   8.007   5.767 -0.0179  0.1971 -0.0873
  782loPI    C211150  12.713   7.658   5.891  0.0637  0.1973  0.0140
  782loPI    C311151  12.760   7.728   5.500 -0.1172  0.1638 -0.0150
  782loPI   PO411152  13.182   8.085   5.940  0.0977  0.2106 -0.0990
  782loPI   GL111153  13.378   8.208   6.346  0.3500  0.3266 -0.1118
  782loPI   GL211154  13.276   8.468   6.488  0.0020  0.0719 -0.2906
  782loPI   C1A11155  13.452   8.024   6.685 -0.1793  0.0883  0.2812
  782loPI   C2A11156  13.303   8.010   7.092  0.0159 -0.2101  0.1460
  782loPI   C3A11157  13.088   7.929   7.495  0.1838  0.1570 -0.1284
  782loPI   C4A11158  12.837   8.093   7.891 -0.1256 -0.0069  0.0425
  782loPI   C5A11159  12.628   8.150   8.179 -0.0860  0.1265 -0.4218
  782loPI   C6A11160  12.600   7.945   8.630  0.0524  0.0790  0.1970
  782loPI   C1B11161  13.128   8.568   6.897 -0.2187 -0.1001  0.0559
  782loPI   C2B11162  13.304   8.451   7.345 -0.0020 -0.2351 -0.2178
  782loPI   C3B11163  13.263   8.356   7.801 -0.0040 -0.0687  0.1325
  782loPI   C4B11164  13.378   8.609   8.122  0.3666  0.1297 -0.2901
  783loPI    C111165  11.590  17.899   5.875  0.1282  0.0676  0.3060
  783loPI    C211166  11.278  17.870   5.626  0.1713 -0.1398  0.2741
  783loPI    C311167  11.561  18.145   5.562  0.2415 -0.2670  0.0256
  783loPI   PO411168  11.427  17.887   6.065 -0.1620 -0.1459  0.1901
  783loPI   GL111169  11.186  18.045   6.387  0.0784  0.0335  0.1528
  783loPI   GL211170  11.481  18.264   6.478 -0.1468 -0.1549 -0.0629
  783loPI   C1A11171  11.222  18.102   6.812  0.0874  0.0285  0.0788
  783loPI   C2A11172  11.057  18.121   7.196 -0.0835  0.3970 -0.2214
  783loPI   C3A11173  11.202  18.184   7.538  0.2620  0.1853 -0.1514
  783loPI   C4A11174  11.317  18.369   7.970  0.2163 -0.0062  0.0319
  783loPI   C5A11175  11.081  18.602   8.293  0.0256 -0.5405 -0.1539
  783loPI   C6A11176  10.649  18.780   8.345 -0.1908 -0.1927 -0.4206
  783loPI   C1B11177  11.597  18.435   6.880  0.1858 -0.0946  0.1006
  783loPI   C2B11178  11.450  18.470   7.208 -0.0638  0.1171 -0.0768
  783loPI   C3B11179  11.547  18.554   7.608  0.0237 -0.3742 -0.0235
  783loPI   C4B11180  11.840  18.563   7.712 -0.2074  0.3052 -0.0228
  784loPI    C111181   1.592  14.509   5.350 -0.0643  0.0910 -0.0595
  784loPI    C211182   1.593  14.909   5.326  0.0494  0.0892 -0.0914
  784loPI    C311183   1.857  14.695   5.114  0.1307  0.0070  0.0906
  784loPI   PO411184   1.382  14.357   5.283 -0.0372  0.1596  0.0961
  784loPI   GL111185   1.165  14.058   5.530  0.0385  0.0792  0.0624
  784loPI   GL211186   1.334  13.758   5.639  0.1156  0.0558 -0.0918
  784loPI   C1A11187   1.274  14.212   5.919  0.2011  0.0404  0.2475
  784loPI   C2A11188   1.248  14.221   6.326 -0.1363  0.1426  0.0167
  784loPI   C3A11189   1.271  14.372   6.865  0.0369  0.2259  0.0715
  784loPI   C4A11190   1.424  14.358   7.319 -0.3233 -0.4083 -0.0911
  784loPI   C5A11191   1.395  14.078   7.650 -0.1600 -0.2025 -0.1007
  784loPI   C6A11192   1.482  14.043   8.013 -0.0892 -0.0589 -0.0455
  784loPI   C1B11193   1.166  13.719   6.087  0.0903  0.0585  0.0719
  784loPI   C2B11194   1.290  13.752   6.527  0.1919  0.0964  0.1698
  784loPI   C3B11195   1.187  13.752   6.945  0.1526 -0.0487  0.1012
  784loPI   C4B11196   1.078  14.049   7.259  0.1286  0.1966  0.1727
  785loPI    C111197   0.674   2.637   5.172  0.2527  0.0336  0.0752
  785loPI    C211198   0.503   2.281   5.105  0.1393  0.0922  0.0516
  785loPI    C311199   0.881   2.346   4.991  0.1552 -0.0156  0.0422
  785loPI   PO411200   0.515   2.680   5.507 -0.0498  0.1599  0.1447
  785loPI   GL111201   0.387   3.080   5.844  0.0854 -0.2368 -0.1251
  785loPI   GL211202   0.646   2.942   5.861  0.6111 -0.1599  0.0132
  785loPI   C1A11203   0.148   2.985   6.198  0.1722  0.4495 -0.1467
  785loPI   C2A11204   0.236   3.014   6.584 -0.2742  0.0183 -0.0465
  785loPI   C3A11205   0.387   3.029   6.969 -0.1637 -0.0581 -0.0124
  785loPI   C4A11206   0.483   3.276   7.291 -0.2106 -0.1700  0.1144
  785loPI   C5A11207   0.681   3.561   7.546 -0.1903 -0.2505  0.1059
  785loPI   C6A11208   0.940   3.752   7.774  0.3099 -0.1439 -0.0475
  785loPI   C1B11209   0.630   2.817   6.337  0.0341 -0.0945 -0.2073
  785loPI   C2B11210   0.728   2.704   6.731 -0.0440 -0.0873  0.3855
  785loPI   C3B11211   0.801   2.694   7.087 -0.0130 -0.0898  0.0336
  785loPI   C4B11212   0.838   2.499   7.519 -0.0843  0.0401  0.5097
  786loPI    C111213  15.990  11.091   5.627 -0.0843  0.2434  0.0480
  786loPI    C211214  15.839  11.137   5.260 -0.1934  0.1976  0.0867
  786loPI    C311215  15.806  10.785   5.447  0.0914  0.1423  0.0379
  786loPI   PO411216  16.196  11.100   5.675  0.4267 -0.0367  0.1479
  786loPI   GL111217  16.265  11.143   6.102 -0.3882 -0.3390  0.0108
  786loPI   GL211218  16.439  10.808   5.972 -0.2032  0.1267 -0.1570
  786loPI   C1A11219  16.162  11.233   6.466 -0.1051  0.0474 -0.2126
  786loPI   C2A11220  16.231  11.171   6.837 -0.1032  0.2131 -0.0194
  786loPI   C3A11221  16.220  11.075   7.348  0.0254  0.1070 -0.0131
  786loPI   C4A11222  16.443  11.007   7.757 -0.0585 -0.2012 -0.0962
  786loPI   C5A11223  16.611  11.353   7.860  0.0734  0.0404  0.1181
  786loPI   C6A11224  16.877  11.642   7.987 -0.0898 -0.0714 -0.2337
  786loPI   C1B11225  16.149  10.741   6.331 -0.3422  0.1430  0.0095
  786loPI   C2B11226  16.268  10.614   6.738 -0.0544  0.0403  0.1523
  786loPI   C3B11227  16.151  10.581   7.174  0.3466  0.1100  0.2402
  786loPI   C4B11228  16.235  10.573   7.601 -0.3527  0.3672  0.3038
  787loPI    C111229  15.762   6.662   5.357  0.2991 -0.0665 -0.1532
  787loPI    C211230  15.508   6.447   5.136 -0.0962  0.3810 -0.1508
  787loPI    C311231  15.770   6.692   4.959  0.2216  0.0524 -0.1464
  787loPI   PO411232  15.932   6.504   5.547  0.0495 -0.0153  0.4129
  787loPI   GL111233  15.913   6.311   5.903  0.0137  0.1197  0.0037
  787loPI   GL211234  15.872   6.619   6.105 -0.1687  0.1211 -0.3609
  787loPI   C1A11235  15.946   6.032   6.365 -0.2581  0.1167  0.0289
  787loPI   C2A11236  15.698   6.017   6.817 -0.0867  0.3001  0.3560
  787loPI   C3A11237  15.736   5.762   7.143 -0.3496 -0.1188 -0.0234
  787loPI   C4A11238  15.762   5.490   7.561  0.0407  0.2209  0.0490
  787loPI   C5A11239  15.888   5.080   7.622 -0.3342  0.0059  0.0885
  787loPI   C6A11240  16.411   4.969   7.764 -0.1259 -0.0429 -0.1055
  787loPI   C1B11241  15.631   6.374   6.479  0.2390  0.1695 -0.1729
  787loPI   C2B11242  15.508   6.485   6.859 -0.1015  0.0120  0.0275
  787loPI   C3B11243  15.472   6.633   7.371  0.1024 -0.2288 -0.2318
  787loPI   C4B11244  15.249   6.406   7.729  0.2671  0.0127 -0.1709
  788loPI    C111245   1.978  10.113   5.358  0.2860 -0.3070  0.0263
  788loPI    C211246   2.117   9.957   5.017  0.1520  0.0043 -0.1750
  788loPI    C311247   2.355  10.182   5.246  0.1695  0.0014 -0.1902
  788loPI   PO411248   1.840   9.940   5.559 -0.0472  0.0750  0.0899
  788loPI   GL111249   1.651   9.897   5.864 -0.0642 -0.1463  0.1700
  788loPI   GL211250   1.326  10.014   5.976 -0.1139  0.1810 -0.1249
  788loPI   C1A11251   1.569   9.642   6.156 -0.1202  0.2974  0.2183
  788loPI   C2A11252   1.685   9.462   6.498  0.0220  0.1685  0.1776
  788loPI   C3A11253   1.649   9.342   6.874  0.1091 -0.0069  0.1390
  788loPI   C4A11254   1.671   9.326   7.337  0.0533 -0.2829  0.0271
  788loPI   C5A11255   2.025   9.129   7.665 -0.1400  0.4114  0.0571
  788loPI   C6A11256   2.335   9.362   7.710  0.0963 -0.0217 -0.0169
  788loPI   C1B11257   1.528  10.074   6.376  0.1523  0.0252 -0.1323
  788loPI   C2B11258   1.804   9.891   6.703  0.0782  0.0647  0.0865
  788loPI   C3B11259   1.927   9.688   7.065  0.0610 -0.0998 -0.1925
  788loPI   C4B11260   2.155   9.318   7.101 -0.1738 -0.1957 -0.2298
  789loPI    C111261   9.088   4.320   5.057 -0.0164  0.0781  0.1527
  789loPI    C211262   9.008   4.022   4.802 -0.1840  0.1162  0.1597
  789loPI    C311263   9.280   4.300   4.707 -0.2135  0.1052  0.0418
  789loPI   PO411264   9.101   4.251   5.311  0.0205 -0.0116 -0.1450
  789loPI   GL111265   9.117   4.408   5.768 -0.0453  0.1650 -0.3301
  789loPI   GL211266   9.017   4.042   5.743 -0.2777  0.0138  0.0704
  789loPI   C1A11267   8.765   4.326   6.026 -0.2051  0.0197 -0.1998
  789loPI   C2A11268   8.723   4.293   6.391  0.0314  0.0531 -0.3296
  789loPI   C3A11269   8.689   4.097   6.822  0.2088  0.2259  0.0598
  789loPI   C4A11270   8.720   4.059   7.312  0.3716 -0.0109  0.3294
  789loPI   C5A11271   8.405   3.999   7.716 -0.0197  0.0721 -0.0358
  789loPI   C6A11272   8.084   3.707   7.863 -0.1156  0.2104  0.0756
  789loPI   C1B11273   9.196   4.067   6.170  0.0126  0.1754 -0.2432
  789loPI   C2B11274   9.189   4.176   6.579 -0.0934 -0.2211  0.3177
  789loPI   C3B11275   9.119   4.210   7.048 -0.1582 -0.3563  0.2453
  789loPI   C4B11276   9.196   3.956   7.472 -0.1852  0.0032  0.1070
  790loPI    C111277  10.562   8.409   5.367  0.1399  0.0510  0.1152
  790loPI    C211278  10.313   8.660   5.180  0.0466  0.0293  0.2093
  790loPI    C311279  10.625   8.505   4.984 -0.1291 -0.1024  0.0295
  790loPI   PO411280  10.552   8.466   5.625  0.0212  0.1694  0.1457
  790loPI   GL111281  10.369   8.269   5.948 -0.1713 -0.0098  0.2799
  790loPI   GL211282  10.017   8.149   5.979  0.1657 -0.1847 -0.0763
  790loPI   C1A11283  10.307   8.277   6.395 -0.0819  0.0089 -0.2272
  790loPI   C2A11284  10.146   8.284   6.772 -0.1263  0.1380 -0.2701
  790loPI   C3A11285  10.148   8.397   7.128  0.2059 -0.0984  0.0407
  790loPI   C4A11286   9.925   8.564   7.482 -0.0240  0.0713  0.5026
  790loPI   C5A11287   9.760   8.972   7.608  0.0199  0.2908 -0.0950
  790loPI   C6A11288   9.602   9.236   8.011 -0.2623  0.0052 -0.2293
  790loPI   C1B11289   9.790   8.179   6.477  0.1529 -0.4299 -0.2808
  790loPI   C2B11290   9.714   8.170   6.958 -0.3294  0.1421  0.0818
  790loPI   C3B11291   9.819   8.093   7.396 -0.3518 -0.0031  0.1474
  790loPI   C4B11292   9.814   7.706   7.621 -0.1114  0.0024  0.1687
  791loPI    C111293  13.449   1.666   5.704 -0.1635 -0.1957 -0.0879
  791loPI    C211294  13.505   1.690   5.308 -0.1828 -0.1249 -0.0864
  791loPI    C311295  13.284   1.965   5.496 -0.0770 -0.0920 -0.0083
  791loPI   PO411296  13.690   1.623   5.907  0.1414  0.1119  0.1671
  791loPI   GL111297  13.409   1.579   6.327  0.4480 -0.0013 -0.0773
  791loPI   GL211298  13.449   1.333   6.505  0.4218 -0.1559 -0.0183
  791loPI   C1A11299  13.725   1.716   6.601 -0.0572  0.0412 -0.0705
  791loPI   C2A11300  13.712   1.774   7.039  0.0320  0.0124  0.3269
  791loPI   C3A11301  13.657   1.853   7.376  0.1875 -0.2011 -0.2490
  791loPI   C4A11302  13.662   1.788   7.825  0.1789  0.4126 -0.1183
  791loPI   C5A11303  14.028   1.740   7.991  0.1919 -0.0321 -0.1378
  791loPI   C6A11304  14.372   2.052   8.147  0.0472 -0.0443  0.1156
  791loPI   C1B11305  13.382   1.454   6.929  0.1226  0.4775  0.1144
  791loPI   C2B11306  13.302   1.495   7.325 -0.0105  0.2826  0.3038
  791loPI   C3B11307  13.182   1.582   7.740  0.1452  0.2709 -0.3140
  791loPI   C4B11308  12.931   1.469   8.077  0.0314 -0.2385  0.3073
  792loPI    C111309   3.863   6.766   5.223  0.0448 -0.0579  0.0154
  792loPI    C211310   3.727   7.134   5.303 -0.0166 -0.0498 -0.1221
  792loPI    C311311   3.697   6.986   4.933  0.0318 -0.1836 -0.0734
  792loPI   PO411312   3.799   6.677   5.530  0.1859 -0.0307 -0.0522
  792loPI   GL111313   3.723   6.517   5.864 -0.1952 -0.2300  0.0186
  792loPI   GL211314   3.919   6.857   5.965  0.1245  0.0021 -0.0254
  792loPI   C1A11315   3.739   6.411   6.208  0.0512 -0.0153 -0.0872
  792loPI   C2A11316   3.837   6.437   6.616  0.0574  0.4959 -0.2913
  792loPI   C3A11317   3.822   6.228   7.027  0.0499  0.0670  0.1348
  792loPI   C4A11318   3.567   6.064   7.408 -0.2042  0.0556  0.0028
  792loPI   C5A11319   3.852   6.076   7.766  0.4404  0.1442  0.1898
  792loPI   C6A11320   4.071   5.781   7.946  0.0413 -0.2428  0.0551
  792loPI   C1B11321   4.188   6.753   6.329  0.0499  0.1551  0.4171
  792loPI   C2B11322   4.285   6.928   6.618 -0.1470 -0.2174  0.1642
  792loPI   C3B11323   4.397   7.063   7.036 -0.0730 -0.1921  0.0395
  792loPI   C4B11324   4.563   7.087   7.365  0.0676  0.0228 -0.2143
  793loPI    C111325  12.289  16.768   5.974 -0.2689 -0.2179 -0.1949
  793loPI    C211326  12.611  16.914   5.788 -0.2084 -0.3590 -0.2019
  793loPI    C311327  12.247  16.979   5.637 -0.2283  0.2338  0.0747
  793loPI   PO411328  12.349  16.860   6.231  0.0034 -0.1467  0.2267
  793loPI   GL111329  12.390  17.034   6.619 -0.0249  0.0016  0.1968
  793loPI   GL211330  12.626  16.861   6.626 -0.0294 -0.3181 -0.0399
  793loPI   C1A11331  12.433  17.495   6.934  0.1363  0.0052 -0.1898
  793loPI   C2A11332  12.489  17.526   7.385 -0.0917 -0.0007 -0.1420
  793loPI   C3A11333  12.779  17.572   7.729  0.2185  0.1072 -0.3872
  793loPI   C4A11334  12.837  17.508   8.125 -0.2059  0.1798 -0.0261
  793loPI   C5A11335  12.781  17.108   8.352 -0.3985  0.1716  0.0387
  793loPI   C6A11336  12.450  16.867   8.687  0.0316 -0.3210 -0.0245
  793loPI   C1B11337  12.912  17.070   6.922  0.1653  0.0854  0.3104
  793loPI   C2B11338  12.841  17.116   7.355 -0.0106  0.0050 -0.2111
  793loPI   C3B11339  13.229  17.259   7.568 -0.0837 -0.2403 -0.1050
  793loPI   C4B11340  13.664  17.426   7.686 -0.2299  0.0644  0.0644
  794loPI    C111341   0.706  16.871   5.280 -0.1094 -0.3267 -0.1039
  794loPI    C211342   0.608  16.930   4.896 -0.0671  0.0894 -0.0547
  794loPI    C311343   0.961  17.058   5.035 -0.2107  0.2239  0.1947
  794loPI   PO411344   0.494  16.897   5.448 -0.3007 -0.3506  0.3166
  794loPI   GL111345   0.565  17.196   5.660  0.0006 -0.0621 -0.2648
  794loPI   GL211346   0.928  17.209   5.655 -0.1376 -0.0723  0.0985
  794loPI   C1A11347   0.645  17.521   6.034  0.1813  0.0395 -0.1716
  794loPI   C2A11348   0.439  18.024   6.124 -0.0144 -0.0566  0.1326
  794loPI   C3A11349   0.446  18.199   6.587  0.4082  0.2612  0.0464
  794loPI   C4A11350   0.240  18.311   6.940  0.1922  0.0646  0.0642
  794loPI   C5A11351   0.086  18.308   7.398 -0.0620 -0.0782  0.0218
  794loPI   C6A11352   0.167  18.615   7.598  0.4228  0.4947  0.0601
  794loPI   C1B11353   0.929  17.111   6.113 -0.0103 -0.1869 -0.0483
  794loPI   C2B11354   0.686  17.089   6.463 -0.0123 -0.1565 -0.2207
  794loPI   C3B11355   0.698  16.830   6.766 -0.0375 -0.1049 -0.0383
  794loPI   C4B11356   0.757  16.401   6.966 -0.1364  0.2522  0.0774
  795loPI    C111357  15.443   0.049   5.545  0.0972  0.2836  0.0816
  795loPI    C211358  15.223   0.096   5.214 -0.0411  0.3485  0.1817
  795loPI    C311359  15.609  -0.004   5.186 -0.1590 -0.0792  0.0115
  795loPI   PO411360  15.405  -0.101   5.762 -0.2613  0.0148 -0.3607
  795loPI   GL111361  15.261  -0.235   6.115 -0.2277 -0.2469  0.1642
  795loPI   GL211362  15.570  -0.494   5.983 -0.0127  0.0760 -0.0146
  795loPI   C1A11363  15.193  -0.091   6.505  0.0801 -0.2583  0.1010
  795loPI   C2A11364  15.094  -0.165   6.939  0.1237  0.0697 -0.1302
  795loPI   C3A11365  14.762  -0.256   7.329 -0.0997 -0.4776  0.2704
  795loPI   C4A11366  14.556   0.036   7.539 -0.1800  0.0360  0.2282
  795loPI   C5A11367  14.337  -0.108   7.821  0.1209  0.1344 -0.0084
  795loPI   C6A11368  13.959  -0.099   8.090  0.1030  0.3262  0.0805
  795loPI   C1B11369  15.486  -0.572   6.400  0.0392 -0.2279 -0.0952
  795loPI   C2B11370  15.328  -0.584   6.807  0.1132  0.3046 -0.0150
  795loPI   C3B11371  15.165  -0.594   7.212  0.3414 -0.0187 -0.1304
  795loPI   C4B11372  15.006  -0.697   7.534 -0.2635  0.4509  0.0983
  796loPI    C111373   6.355   8.200   5.101  0.0586  0.2917  0.0452
  796loPI    C211374   6.547   8.246   4.753 -0.0579  0.1135 -0.0443
  796loPI    C311375   6.150   8.197   4.758 -0.0827  0.3167  0.1287
  796loPI   PO411376   6.459   8.218   5.259 -0.1970  0.0365  0.0133
  796loPI   GL111377   6.623   8.173   5.582 -0.2363 -0.4220 -0.0872
  796loPI   GL211378   6.540   8.509   5.657  0.1271 -0.2722  0.1096
  796loPI   C1A11379   6.382   7.937   5.939  0.0900 -0.0250 -0.1472
  796loPI   C2A11380   6.353   7.895   6.349  0.3414 -0.0024  0.1024
  796loPI   C3A11381   6.368   8.025   6.781 -0.1024  0.1724  0.0891
  796loPI   C4A11382   6.198   8.008   7.187 -0.1184 -0.1954 -0.0782
  796loPI   C5A11383   6.346   7.604   7.476  0.1349  0.0648  0.1573
  796loPI   C6A11384   6.351   7.558   7.924 -0.2694  0.0293 -0.1260
  796loPI   C1B11385   6.284   8.433   5.969 -0.0518  0.1469  0.3598
  796loPI   C2B11386   6.127   8.431   6.343 -0.1443 -0.0634 -0.1001
  796loPI   C3B11387   6.381   8.516   6.776  0.0187 -0.0424 -0.0502
  796loPI   C4B11388   6.506   8.414   7.189 -0.4788  0.0546 -0.4214
  797loPI    C111389  15.433  17.047   5.421  0.0288 -0.0223 -0.0155
  797loPI    C211390  15.192  16.730   5.456  0.1349 -0.1282 -0.2265
  797loPI    C311391  15.172  16.961   5.130  0.2228 -0.0568 -0.1817
  797loPI   PO411392  15.514  16.999   5.749  0.2299  0.0395  0.5274
  797loPI   GL111393  15.390  16.828   6.138  0.3232 -0.1256 -0.1162
  797loPI   GL211394  15.498  16.619   6.195  0.0404  0.2734  0.3093
  797loPI   C1A11395  15.255  16.951   6.532 -0.0001 -0.2294 -0.0403
  797loPI   C2A11396  15.176  16.860   6.829  0.1925 -0.3492 -0.0376
  797loPI   C3A11397  15.342  16.888   7.188  0.0639 -0.0606  0.2048
  797loPI   C4A11398  15.405  16.880   7.562  0.0177  0.0971  0.1003
  797loPI   C5A11399  15.455  16.510   7.780  0.2319  0.0230  0.1629
  797loPI   C6A11400  15.694  16.359   8.079 -0.0034  0.2344  0.0968
  797loPI   C1B11401  15.383  16.357   6.494 -0.1799 -0.3595  0.1066
  797loPI   C2B11402  15.558  16.534   6.904 -0.3566 -0.0119 -0.0676
  797loPI   C3B11403  15.776  16.521   7.312 -0.1328 -0.0366  0.1996
  797loPI   C4B11404  15.923  16.617   7.687 -0.0046 -0.0369  0.4108
  798loPI    C111405  16.089   3.260   5.208  0.1618 -0.4514  0.1991
  798loPI    C211406  15.695   3.192   5.202  0.0285  0.2528  0.1465
  798loPI    C311407  15.922   3.076   4.894 -0.1631 -0.0005  0.0975
  798loPI   PO411408  16.144   3.244   5.483 -0.1724  0.0041 -0.1569
  798loPI   GL111409  16.370   3.293   5.796  0.0263  0.0519 -0.1324
  798loPI   GL211410  16.757   3.155   5.838  0.0650 -0.3064 -0.2167
  798loPI   C1A11411  16.050   3.598   5.973 -0.2972 -0.0605  0.1639
  798loPI   C2A11412  16.112   3.779   6.297  0.1237 -0.0301 -0.2821
  798loPI   C3A11413  15.936   3.869   6.698  0.1634 -0.1533  0.0921
  798loPI   C4A11414  15.784   3.886   7.148 -0.4011 -0.0877  0.2313
  798loPI   C5A11415  15.585   3.623   7.473 -0.0787 -0.1779 -0.4741
  798loPI   C6A11416  15.629   3.408   7.901  0.0463  0.1726  0.0639
  798loPI   C1B11417  16.542   3.184   6.269  0.2512  0.0441  0.0025
  798loPI   C2B11418  16.582   3.108   6.742  0.0145  0.0708 -0.0927
  798loPI   C3B11419  16.461   3.075   7.233 -0.2700  0.0426  0.0846
  798loPI   C4B11420  16.768   2.896   7.670 -0.2679 -0.1409 -0.2171
  799loPI    C111421  13.697  18.024   5.635  0.1594  0.0044 -0.0458
  799loPI    C211422  14.031  18.176   5.794  0.2945 -0.0471 -0.2766
  799loPI    C311423  13.837  18.375   5.505 -0.0245  0.1107  0.0382
  799loPI   PO411424  13.781  17.693   5.767  0.2210 -0.3713  0.1753
  799loPI   GL111425  13.658  17.626   6.273  0.3579  0.0707  0.0777
  799loPI   GL211426  13.826  17.938   6.188  0.0637 -0.1506  0.1848
  799loPI   C1A11427  13.779  17.383   6.603 -0.3152  0.2030  0.2583
  799loPI   C2A11428  13.956  17.389   6.977 -0.0492  0.2295  0.0572
  799loPI   C3A11429  13.972  17.623   7.348 -0.2389 -0.1432 -0.0340
  799loPI   C4A11430  14.143  17.633   7.776 -0.0307  0.1200 -0.2546
  799loPI   C5A11431  13.810  17.637   8.111 -0.2174  0.0944  0.0945
  799loPI   C6A11432  13.796  17.521   8.505 -0.0696  0.2099 -0.0600
  799loPI   C1B11433  14.026  17.839   6.561 -0.0170  0.0949 -0.0001
  799loPI   C2B11434  14.142  17.937   6.965 -0.1209 -0.0558  0.2394
  799loPI   C3B11435  14.253  18.036   7.389  0.1270 -0.1193 -0.2089
  799loPI   C4B11436  14.613  17.933   7.727 -0.2517 -0.0449  0.2883
  800loPI    C111437  13.666   7.615   5.462 -0.0782  0.1237 -0.0168
  800loPI    C211438  13.750   7.994   5.365 -0.1380  0.1297 -0.0456
  800loPI    C311439  13.842   7.697   5.112 -0.2175  0.1376 -0.0841
  800loPI   PO411440  13.733   7.639   5.718 -0.3027  0.1324 -0.1810
  800loPI   GL111441  13.672   7.879   6.062 -0.0283  0.0192  0.2919
  800loPI   GL211442  13.915   7.891   6.272 -0.0583  0.2770 -0.0459
  800loPI   C1A11443  13.470   7.580   6.413  0.0803  0.1283  0.0683
  800loPI   C2A11444  13.538   7.442   6.780 -0.2588 -0.1072 -0.2860
  800loPI   C3A11445  13.739   7.333   7.012 -0.0780  0.3516 -0.0144
  800loPI   C4A11446  13.861   7.018   7.325  0.0804 -0.0857  0.2585
  800loPI   C5A11447  14.072   6.956   7.786 -0.0587  0.0975  0.2714
  800loPI   C6A11448  13.953   6.716   8.116  0.2383  0.3019 -0.4347
  800loPI   C1B11449  13.901   7.745   6.688  0.0313 -0.3442  0.2376
  800loPI   C2B11450  13.927   7.857   7.101  0.1158  0.1277  0.2886
  800loPI   C3B11451  13.870   7.541   7.498  0.1310 -0.2689 -0.0450
  800loPI   C4B11452  13.981   7.437   7.979  0.1752 -0.6215  0.0565
  801loPI    C111453  15.813  14.146   5.312 -0.1022 -0.0442  0.2449
  801loPI    C211454  15.561  14.456   5.281 -0.0566 -0.0051  0.2634
  801loPI    C311455  15.459  14.099   5.132 -0.0365  0.0620  0.0860
  801loPI   PO411456  15.867  14.124   5.637  0.2528  0.0313 -0.1013
  801loPI   GL111457  15.939  13.921   5.956  0.1656  0.0146 -0.0871
  801loPI   GL211458  15.892  13.643   5.978  0.3536  0.0440  0.2446
  801loPI   C1A11459  16.152  14.095   6.310  0.2623 -0.2815 -0.1266
  801loPI   C2A11460  16.262  13.991   6.744 -0.0163  0.0693 -0.0546
  801loPI   C3A11461  16.375  14.109   7.266  0.0015  0.0739 -0.0453
  801loPI   C4A11462  16.328  14.312   7.686  0.0920  0.0021 -0.1042
  801loPI   C5A11463  16.699  14.543   7.871  0.2950 -0.1976  0.0416
  801loPI   C6A11464  17.106  14.642   7.982  0.0655 -0.3926 -0.1645
  801loPI   C1B11465  16.186  13.616   6.352 -0.0910 -0.0910 -0.7649
  801loPI   C2B11466  16.172  13.503   6.707 -0.1961 -0.2748 -0.0218
  801loPI   C3B11467  16.058  13.593   7.080  0.1365 -0.0145  0.1155
  801loPI   C4B11468  16.108  13.451   7.461  0.2003  0.0315 -0.0100
  802loPI    C111469  11.660   6.495   5.318 -0.0347  0.1487  0.1398
  802loPI    C211470  11.490   6.181   5.498 -0.1402  0.0749 -0.0851
  802loPI    C311471  11.532   6.185   5.100 -0.0737  0.3149 -0.0771
  802loPI   PO411472  11.462   6.772   5.402  0.2357  0.3248 -0.1324
  802loPI   GL111473  11.232   6.860   5.676  0.1846  0.0372 -0.1752
  802loPI   GL211474  10.822   6.923   5.687 -0.0113 -0.0663 -0.1166
  802loPI   C1A11475  11.232   6.796   6.146 -0.2678 -0.1559 -0.2649
  802loPI   C2A11476  11.301   6.925   6.658 -0.0800  0.4265  0.0128
  802loPI   C3A11477  11.374   6.889   7.157 -0.2800  0.3150 -0.0918
  802loPI   C4A11478  11.571   6.877   7.540 -0.4516 -0.0980 -0.2561
  802loPI   C5A11479  11.469   7.119   7.873 -0.0785 -0.0911  0.0416
  802loPI   C6A11480  11.678   7.405   8.095 -0.1639 -0.0657 -0.0809
  802loPI   C1B11481  10.976   7.200   6.022  0.4224 -0.1241 -0.1677
  802loPI   C2B11482  10.924   7.164   6.505  0.1795  0.2799 -0.4157
  802loPI   C3B11483  10.901   7.087   7.004 -0.0538 -0.0779 -0.1636
  802loPI   C4B11484  10.598   6.995   7.233  0.0688 -0.2464  0.3710
  803loPI    C111485   5.173  16.861   5.409  0.0495  0.1371  0.0050
  803loPI    C211486   4.833  16.704   5.270  0.1445  0.0282 -0.1057
  803loPI    C311487   5.041  16.962   5.045  0.2079 -0.0141 -0.0959
  803loPI   PO411488   5.049  16.957   5.689  0.0049 -0.3689  0.3159
  803loPI   GL111489   4.957  16.702   6.083 -0.1359 -0.0996 -0.0162
  803loPI   GL211490   4.624  16.748   6.329  0.1377  0.1064  0.3146
  803loPI   C1A11491   5.075  16.780   6.489  0.0703 -0.0888 -0.0887
  803loPI   C2A11492   5.009  16.867   6.914 -0.2164  0.1020  0.1703
  803loPI   C3A11493   5.099  17.007   7.312  0.1183 -0.2797  0.0190
  803loPI   C4A11494   4.855  16.885   7.608 -0.0930 -0.1811  0.0210
  803loPI   C5A11495   4.860  16.820   7.999 -0.1406  0.1173  0.2712
  803loPI   C6A11496   4.735  16.486   8.237  0.2031  0.3353  0.2083
  803loPI   C1B11497   4.471  16.778   6.731 -0.2284 -0.1316 -0.0901
  803loPI   C2B11498   4.467  16.987   6.986 -0.1290 -0.1320 -0.1261
  803loPI   C3B11499   4.460  17.096   7.419 -0.2347 -0.1419 -0.0326
  803loPI   C4B11500   4.495  17.164   7.803  0.1736  0.1032 -0.1132
  804loPI    C111501  18.292   3.129   5.246  0.2173 -0.0939 -0.1126
  804loPI    C211502  18.249   3.279   4.877  0.1707 -0.0807 -0.1019
  804loPI    C311503  17.951   3.070   5.044  0.1214  0.0679 -0.0008
  804loPI   PO411504  18.344   3.330   5.391 -0.0722  0.0070 -0.2056
  804loPI   GL111505  18.145   3.586   5.715 -0.2021  0.2242  0.0860
  804loPI   GL211506  18.490   3.543   5.893 -0.0857 -0.0628  0.1070
  804loPI   C1A11507  18.151   3.271   6.110 -0.0787 -0.0790  0.0708
  804loPI   C2A11508  18.073   3.211   6.580 -0.4387 -0.0144  0.0897
  804loPI   C3A11509  18.002   3.188   6.962  0.2935  0.0661 -0.1361
  804loPI   C4A11510  18.110   3.319   7.262  0.0361  0.1983 -0.0276
  804loPI   C5A11511  18.148   3.587   7.626  0.2289 -0.0242 -0.1185
  804loPI   C6A11512  17.919   3.838   7.990  0.0657 -0.0532 -0.0200
  804loPI   C1B11513  18.544   3.475   6.406 -0.3512 -0.5748 -0.0721
  804loPI   C2B11514  18.450   3.393   6.887  0.1338  0.3896  0.3000
  804loPI   C3B11515  18.570   3.647   7.138 -0.0350 -0.0677 -0.1502
  804loPI   C4B11516  18.410   3.964   7.307  0.0607  0.2237  0.1153
  805loPI    C111517  14.257   6.858   5.268  0.0804  0.1319  0.1356
  805loPI    C211518  14.226   6.889   4.870 -0.0359  0.0605  0.1387
  805loPI    C311519  14.587   6.884   5.043  0.0152  0.0731  0.0327
  805loPI   PO411520  14.191   6.749   5.387  0.0952  0.0890 -0.3132
  805loPI   GL111521  14.354   6.633   5.828  0.0083  0.1924 -0.1590
  805loPI   GL211522  14.134   6.927   6.051  0.0996  0.0584  0.0936
  805loPI   C1A11523  14.453   6.502   6.200  0.0374  0.0753 -0.5528
  805loPI   C2A11524  14.652   6.377   6.519 -0.1854  0.1986 -0.3457
  805loPI   C3A11525  14.639   6.346   6.960 -0.4987 -0.0549 -0.1870
  805loPI   C4A11526  14.767   6.129   7.146  0.1288 -0.1772  0.1489
  805loPI   C5A11527  14.596   6.345   7.632  0.1899  0.0645  0.0641
  805loPI   C6A11528  14.481   6.628   7.949  0.0422 -0.1125  0.0828
  805loPI   C1B11529  14.086   6.669   6.489  0.0846  0.1219 -0.1688
  805loPI   C2B11530  14.223   6.475   6.826 -0.0720 -0.0828  0.0299
  805loPI   C3B11531  14.165   6.237   7.168  0.1055 -0.0824 -0.0313
  805loPI   C4B11532  14.076   6.389   7.644  0.4985  0.1903 -0.3345
  806loPI    C111533  13.633   3.732   4.898 -0.0710  0.1830 -0.0140
  806loPI    C211534  13.982   3.684   5.087 -0.1822 -0.0588  0.1349
  806loPI    C311535  13.971   3.866   4.731  0.1014 -0.0948  0.1052
  806loPI   PO411536  13.497   3.780   5.156  0.2795  0.0798 -0.2046
  806loPI   GL111537  13.403   3.892   5.550 -0.0488  0.1039 -0.1777
  806loPI   GL211538  13.700   4.023   5.603 -0.1840  0.0666 -0.1824
  806loPI   C1A11539  13.490   3.801   5.971 -0.1406 -0.1752 -0.2014
  806loPI   C2A11540  13.390   3.932   6.435 -0.0716 -0.0838 -0.0799
  806loPI   C3A11541  13.353   3.816   6.979  0.0188  0.0530  0.1427
  806loPI   C4A11542  13.340   3.986   7.397 -0.0073  0.0035 -0.1167
  806loPI   C5A11543  13.621   4.212   7.738  0.0659 -0.2789  0.0668
  806loPI   C6A11544  13.504   4.614   7.744  0.0368 -0.0786 -0.0578
  806loPI   C1B11545  14.055   4.301   5.868  0.3210 -0.0261  0.0510
  806loPI   C2B11546  14.331   4.325   6.208  0.1494  0.1610  0.2171
  806loPI   C3B11547  14.280   3.987   6.429 -0.4372  0.2638  0.1199
  806loPI   C4B11548  14.302   3.896   6.787  0.1629  0.2707 -0.1261
  807loPI    C111549  16.391   6.335   5.249 -0.1382  0.0519 -0.1848
  807loPI    C211550  16.206   6.678   5.159 -0.0734  0.1499  0.0465
  807loPI    C311551  16.543   6.576   4.969  0.1299  0.4134  0.2582
  807loPI   PO411552  16.483   6.380   5.553 -0.1374  0.2594  0.4814
  807loPI   GL111553  16.532   6.111   5.846 -0.0825  0.2116  0.1187
  807loPI   GL211554  16.945   6.073   5.811 -0.1108 -0.1821  0.0455
  807loPI   C1A11555  16.439   6.064   6.313  0.0786 -0.2227  0.1180
  807loPI   C2A11556  16.442   5.968   6.661  0.1784  0.1938 -0.0798
  807loPI   C3A11557  16.238   5.899   7.007 -0.2947 -0.0718  0.2019
  807loPI   C4A11558  16.219   5.603   7.332 -0.3067 -0.3780 -0.0531
  807loPI   C5A11559  16.254   5.464   7.739  0.0118  0.2865 -0.1977
  807loPI   C6A11560  16.116   5.379   8.170 -0.1413  0.0801 -0.1816
  807loPI   C1B11561  17.141   5.992   6.192 -0.0471 -0.2634  0.0423
  807loPI   C2B11562  17.022   5.892   6.546 -0.0113  0.0335 -0.2822
  807loPI   C3B11563  16.981   5.690   6.931  0.1053  0.0755 -0.1276
  807loPI   C4B11564  16.690   5.894   7.201  0.0806  0.0585 -0.0442
  808loPI    C111565  11.854   7.316   5.038 -0.0666 -0.0135  0.1393
  808loPI    C211566  12.203   7.162   4.918 -0.0951  0.1225 -0.1275
  808loPI    C311567  11.917   7.239   4.650 -0.2149  0.3013  0.0496
  808loPI   PO411568  11.873   7.098   5.316 -0.0164  0.0321 -0.0988
  808loPI   GL111569  11.984   7.142   5.816 -0.2875 -0.0268 -0.2044
  808loPI   GL211570  12.281   7.201   6.011 -0.3881 -0.1308 -0.1151
  808loPI   C1A11571  11.777   7.032   6.249  0.3008  0.3174 -0.1323
  808loPI   C2A11572  11.754   6.806   6.717  0.1400 -0.0887  0.2041
  808loPI   C3A11573  11.801   6.496   7.185  0.0116 -0.0468  0.1298
  808loPI   C4A11574  11.959   6.482   7.552 -0.1781 -0.0697 -0.0415
  808loPI   C5A11575  11.800   6.592   7.929 -0.5457 -0.0834  0.1611
  808loPI   C6A11576  11.815   6.965   8.229  0.2148 -0.0166 -0.0366
  808loPI   C1B11577  12.186   7.102   6.478  0.0939  0.0370  0.0788
  808loPI   C2B11578  12.267   6.741   6.718  0.1136 -0.3037 -0.3633
  808loPI   C3B11579  12.424   6.608   7.107 -0.0689  0.3408 -0.0690
  808loPI   C4B11580  12.372   6.664   7.521 -0.2894 -0.0949  0.1009
  809loPI    C111581  14.988   6.524   5.066  0.0048 -0.1523  0.0384
  809loPI    C211582  14.819   6.272   4.806 -0.0295  0.3179 -0.4124
  809loPI    C311583  15.184   6.419   4.734  0.0379  0.3133 -0.0964
  809loPI   PO411584  14.836   6.400   5.386 -0.2209  0.1639  0.1037
  809loPI   GL111585  15.053   6.422   5.735  0.1497 -0.0832  0.0981
  809loPI   GL211586  15.368   6.486   5.864  0.3078  0.0489 -0.0974
  809loPI   C1A11587  14.980   6.318   6.133 -0.3026 -0.1685 -0.1792
  809loPI   C2A11588  15.132   6.425   6.582 -0.1530  0.0153 -0.0637
  809loPI   C3A11589  15.050   6.645   6.923 -0.0968 -0.4601 -0.0359
  809loPI   C4A11590  14.921   6.585   7.349 -0.3322  0.1148 -0.2141
  809loPI   C5A11591  15.033   6.862   7.808  0.2246 -0.0029  0.3050
  809loPI   C6A11592  14.940   6.929   8.258 -0.1492 -0.0192 -0.3443
  809loPI   C1B11593  15.529   6.071   6.063 -0.0910 -0.1425  0.2470
  809loPI   C2B11594  15.456   5.850   6.408 -0.1154 -0.1479  0.0282
  809loPI   C3B11595  15.422   5.601   6.770 -0.0529 -0.1591  0.4311
  809loPI   C4B11596  15.313   5.607   7.247  0.1691  0.1216 -0.1642
  810loPI    C111597  14.695   0.311   5.325 -0.2002  0.1606  0.1684
  810loPI    C211598  14.384   0.556   5.273 -0.1501  0.2053  0.0772
  810loPI    C311599  14.333   0.160   5.246 -0.1983  0.2128  0.0576
  810loPI   PO411600  14.761   0.348   5.510 -0.3612  0.0070  0.1417
  810loPI   GL111601  14.964   0.185   5.859 -0.3418  0.3945 -0.1547
  810loPI   GL211602  15.250   0.274   6.096  0.0115 -0.2603 -0.0945
  810loPI   C1A11603  14.725   0.402   6.189 -0.1407  0.0791  0.0084
  810loPI   C2A11604  14.611   0.339   6.565 -0.1677 -0.0757 -0.0279
  810loPI   C3A11605  14.557   0.531   6.954 -0.1057 -0.0513  0.2629
  810loPI   C4A11606  14.467   0.457   7.349  0.2588  0.2578 -0.1255
  810loPI   C5A11607  14.100   0.478   7.608 -0.0798  0.2011  0.1896
  810loPI   C6A11608  13.810   0.428   7.937 -0.1594 -0.1287  0.3229
  810loPI   C1B11609  15.139   0.529   6.417  0.1729 -0.3847 -0.2892
  810loPI   C2B11610  15.061   0.472   6.880 -0.0373  0.0781  0.1210
  810loPI   C3B11611  14.928   0.246   7.297 -0.2009  0.3581 -0.0742
  810loPI   C4B11612  14.970   0.306   7.659  0.0111  0.1984 -0.0055
  811loPI    C111613   2.648   3.062   5.133 -0.0820 -0.0907  0.1365
  811loPI    C211614   2.352   3.135   4.874  0.1487  0.2389 -0.0424
  811loPI    C311615   2.564   2.798   4.845 -0.0969  0.0796 -0.0176
  811loPI   PO411616   2.516   3.170   5.326 -0.0561  0.2242 -0.1819
  811loPI   GL111617   2.352   3.178   5.631 -0.0359 -0.2738  0.2968
  811loPI   GL211618   2.447   2.875   5.727 -0.0715 -0.4238  0.1122
  811loPI   C1A11619   2.490   3.266   6.099  0.1129 -0.0359  0.0564
  811loPI   C2A11620   2.400   3.423   6.561 -0.3837  0.0163 -0.0854
  811loPI   C3A11621   2.549   3.525   6.915 -0.2060  0.2734  0.0734
  811loPI   C4A11622   2.328   3.517   7.327  0.0320 -0.1898  0.1497
  811loPI   C5A11623   2.103   3.737   7.601  0.0713 -0.2345 -0.3081
  811loPI   C6A11624   1.731   3.815   7.780  0.0625  0.2774  0.1181
  811loPI   C1B11625   2.489   2.708   6.130 -0.1000 -0.1632  0.3503
  811loPI   C2B11626   2.486   2.876   6.540 -0.1633 -0.1517 -0.1119
  811loPI   C3B11627   2.639   2.922   6.916  0.1114  0.1277  0.1167
  811loPI   C4B11628   2.729   3.180   7.324 -0.3336 -0.1686 -0.2719
  812loPI    C111629  13.146  12.386   5.621  0.1443 -0.1941  0.0060
  812loPI    C211630  13.375  12.406   5.293 -0.0622  0.0415 -0.1268
  812loPI    C311631  13.000  12.268   5.268  0.0172 -0.2186  0.0663
  812loPI   PO411632  13.161  12.598   5.804  0.2753  0.3401 -0.0002
  812loPI   GL111633  13.301  12.785   6.055 -0.2221  0.0533  0.0337
  812loPI   GL211634  13.564  12.961   6.024 -0.0822  0.0678 -0.0808
  812loPI   C1A11635  13.085  12.698   6.431  0.1894 -0.0398  0.0123
  812loPI   C2A11636  13.053  12.834   6.852 -0.1506  0.0266 -0.0120
  812loPI   C3A11637  12.879  12.831   7.211 -0.3262 -0.0132  0.1673
  812loPI   C4A11638  12.758  13.206   7.464  0.1263 -0.0304 -0.2751
  812loPI   C5A11639  12.638  13.664   7.637 -0.2585  0.1274  0.1397
  812loPI   C6A11640  12.640  14.044   7.909  0.0829 -0.1982 -0.2230
  812loPI   C1B11641  13.362  13.117   6.488  0.2500  0.1007 -0.0524
  812loPI   C2B11642  13.463  13.064   6.958 -0.2064 -0.3244 -0.2143
  812loPI   C3B11643  13.319  13.092   7.368 -0.0163  0.1398  0.2136
  812loPI   C4B11644  13.137  12.943   7.825  0.1131 -0.0300 -0.1119
  813loPI    C111645   5.968  13.964   5.245 -0.1000 -0.2008  0.0025
  813loPI    C211646   5.647  14.053   5.023 -0.1347  0.1367  0.1817
  813loPI    C311647   6.001  14.218   4.937 -0.0973  0.0831  0.2331
  813loPI   PO411648   5.844  13.921   5.452  0.0569  0.1711 -0.2548
  813loPI   GL111649   5.797  14.235   5.800  0.3835 -0.1630 -0.0723
  813loPI   GL211650   5.581  14.193   6.014 -0.3945 -0.0445  0.0072
  813loPI   C1A11651   5.990  14.276   6.225  0.0019 -0.1943 -0.2622
  813loPI   C2A11652   6.017  14.325   6.670  0.0563 -0.1503  0.2934
  813loPI   C3A11653   6.023  14.281   7.112 -0.2911 -0.0394  0.0433
  813loPI   C4A11654   5.867  14.267   7.561  0.2204 -0.2960  0.3413
  813loPI   C5A11655   5.624  14.303   7.915 -0.2908 -0.2545  0.1508
  813loPI   C6A11656   5.464  14.430   8.326  0.1860 -0.0838 -0.1168
  813loPI   C1B11657   5.514  14.190   6.394  0.2146  0.3102 -0.1235
  813loPI   C2B11658   5.562  14.174   6.875  0.0392  0.3154 -0.0193
  813loPI   C3B11659   5.469  14.406   7.238  0.1194  0.2286 -0.1402
  813loPI   C4B11660   5.184  14.180   7.627  0.0791 -0.4133  0.1086
  814loPI    C111661   0.288  10.332   5.478  0.0182 -0.0327  0.0277
  814loPI    C211662  -0.108  10.354   5.527  0.0606  0.2178  0.2872
  814loPI    C311663   0.046  10.117   5.244 -0.2726  0.1134  0.1887
  814loPI   PO411664   0.352  10.437   5.648 -0.0027  0.1594 -0.1329
  814loPI   GL111665   0.282  10.533   6.049 -0.1310 -0.0508  0.0451
  814loPI   GL211666  -0.101  10.417   6.021 -0.4374  0.0738 -0.0820
  814loPI   C1A11667   0.233  10.763   6.407 -0.2748  0.0860  0.1789
  814loPI   C2A11668   0.182  10.907   6.821  0.1881 -0.2015  0.2489
  814loPI   C3A11669   0.151  11.161   7.154  0.2965  0.1406 -0.2215
  814loPI   C4A11670   0.161  11.409   7.496 -0.0424  0.1507 -0.1900
  814loPI   C5A11671   0.238  11.504   7.972  0.0298  0.2634  0.4227
  814loPI   C6A11672   0.159  11.448   8.308 -0.0423 -0.0519  0.0168
  814loPI   C1B11673   0.011  10.233   6.459  0.1752 -0.1047  0.0387
  814loPI   C2B11674   0.010  10.336   6.901  0.0873 -0.0237 -0.0703
  814loPI   C3B11675   0.086  10.209   7.291 -0.2263  0.3339 -0.0871
  814loPI   C4B11676   0.118   9.894   7.623 -0.0106 -0.0963 -0.1670
  815loPI    C111677   6.535  17.794   5.516 -0.0310 -0.4185 -0.0521
  815loPI    C211678   6.698  17.871   5.159 -0.1625 -0.0067 -0.0286
  815loPI    C311679   6.722  17.503   5.315  0.3344 -0.0687 -0.2325
  815loPI   PO411680   6.594  18.030   5.636 -0.4269 -0.0004 -0.3624
  815loPI   GL111681   6.475  18.219   5.979  0.2175 -0.0624 -0.1127
  815loPI   GL211682   6.522  17.820   6.061 -0.1398  0.0860 -0.1890
  815loPI   C1A11683   6.233  18.241   6.311 -0.0071  0.1282 -0.0546
  815loPI   C2A11684   6.136  18.132   6.717 -0.0082 -0.0459  0.1063
  815loPI   C3A11685   5.781  18.025   7.047 -0.1030 -0.1511  0.0499
  815loPI   C4A11686   5.585  17.774   7.335 -0.1105 -0.1006 -0.0781
  815loPI   C5A11687   5.427  17.395   7.428  0.2326 -0.3118  0.1343
  815loPI   C6A11688   5.188  17.207   7.786  0.1417 -0.1750 -0.3090
  815loPI   C1B11689   6.646  17.312   6.091 -0.0176 -0.2368  0.2147
  815loPI   C2B11690   6.647  17.436   6.433  0.0307  0.0663 -0.0377
  815loPI   C3B11691   6.601  17.223   6.799 -0.1330  0.0209  0.1182
  815loPI   C4B11692   6.708  16.867   6.830  0.0108  0.0240  0.3364
  816loPI    C111693  17.447  10.015   5.414 -0.2070  0.0088  0.0930
  816loPI    C211694  17.594  10.373   5.514  0.2344 -0.1408  0.0049
  816loPI    C311695  17.654  10.229   5.146  0.0689 -0.3111  0.0434
  816loPI   PO411696  17.457   9.949   5.720 -0.2888 -0.3718 -0.0952
  816loPI   GL111697  17.484   9.759   6.085  0.2584 -0.2021 -0.0302
  816loPI   GL211698  17.428   9.420   6.329  0.4615 -0.1403  0.2330
  816loPI   C1A11699  17.338   9.938   6.422  0.0608 -0.2890  0.1967
  816loPI   C2A11700  17.553  10.101   6.755 -0.0507  0.0846  0.1327
  816loPI   C3A11701  17.508  10.079   7.186  0.0489 -0.0191  0.1529
  816loPI   C4A11702  17.633  10.243   7.610 -0.2671  0.0218  0.0944
  816loPI   C5A11703  18.013  10.187   7.878 -0.0299  0.0191  0.2079
  816loPI   C6A11704  18.332   9.903   8.073  0.3282  0.1308 -0.2606
  816loPI   C1B11705  17.462   9.564   6.692 -0.2081 -0.2619 -0.1603
  816loPI   C2B11706  17.682   9.601   7.084  0.0310  0.0367  0.1748
  816loPI   C3B11707  17.808   9.348   7.430  0.0282  0.1559  0.1721
  816loPI   C4B11708  17.975   9.581   7.819  0.0397  0.0667 -0.1861
  817loPI    C111709   5.283   8.952   5.182  0.1575  0.1894  0.0299
  817loPI    C211710   5.644   8.786   5.138  0.0091 -0.1456  0.0539
  817loPI    C311711   5.340   8.570   5.284 -0.0973  0.2567  0.4496
  817loPI   PO411712   5.376   9.145   5.292  0.1188 -0.1651  0.0979
  817loPI   GL111713   5.424   9.309   5.675  0.3362 -0.2198 -0.1851
  817loPI   GL211714   5.415   9.057   5.792  0.1485  0.0169 -0.1390
  817loPI   C1A11715   5.174   9.475   5.976 -0.2006 -0.0260 -0.1509
  817loPI   C2A11716   5.040   9.303   6.388 -0.2011 -0.0774 -0.1221
  817loPI   C3A11717   5.214   9.277   6.814  0.2144 -0.1066 -0.1554
  817loPI   C4A11718   5.303   9.165   7.210 -0.2276 -0.1244 -0.1369
  817loPI   C5A11719   5.783   9.081   7.522 -0.0151  0.1188 -0.2764
  817loPI   C6A11720   6.163   8.884   7.789  0.2007 -0.0358 -0.0107
  817loPI   C1B11721   5.206   8.859   6.105  0.0155 -0.1903  0.0521
  817loPI   C2B11722   5.084   8.815   6.450 -0.0427  0.0318 -0.2645
  817loPI   C3B11723   5.153   8.778   6.806  0.3971 -0.2925  0.1086
  817loPI   C4B11724   5.045   8.665   7.180 -0.3258  0.0565 -0.0150
  818loPI    C111725  11.128   9.127   5.125  0.1119  0.0430  0.0783
  818loPI    C211726  10.971   8.844   4.891  0.0477  0.1590 -0.0201
  818loPI    C311727  11.353   8.954   4.843  0.0967  0.0326  0.0726
  818loPI   PO411728  11.135   9.038   5.381  0.0406 -0.0008 -0.3380
  818loPI   GL111729  10.985   8.765   5.803 -0.1587 -0.0575  0.0523
  818loPI   GL211730  10.907   8.507   6.027 -0.5493  0.0560  0.2108
  818loPI   C1A11731  10.903   9.092   6.116  0.1158  0.1585  0.1458
  818loPI   C2A11732  10.865   9.196   6.532 -0.1510  0.0883 -0.2763
  818loPI   C3A11733  10.734   9.038   6.977 -0.1098 -0.1394  0.2766
  818loPI   C4A11734  10.627   9.037   7.385  0.0266 -0.3261 -0.1526
  818loPI   C5A11735  10.393   8.752   7.650  0.1325  0.0781  0.0493
  818loPI   C6A11736  10.630   8.524   8.106  0.1241 -0.1816 -0.2402
  818loPI   C1B11737  10.748   8.531   6.447  0.2611  0.1233 -0.0898
  818loPI   C2B11738  10.667   8.463   6.908 -0.2855  0.0507 -0.2394
  818loPI   C3B11739  10.791   8.601   7.305  0.1628  0.1648 -0.0511
  818loPI   C4B11740  10.877   8.493   7.699 -0.1169 -0.0397 -0.0495
  819loPI    C111741  10.314  12.001   5.471  0.1870  0.2966  0.1007
  819loPI    C211742  10.317  11.999   5.071  0.0125 -0.1472  0.0958
  819loPI    C311743  10.661  11.979   5.273  0.0986  0.0315 -0.0301
  819loPI   PO411744  10.203  12.256   5.613  0.3194  0.0467  0.0989
  819loPI   GL111745   9.986  12.275   5.996  0.1411 -0.1588 -0.0935
  819loPI   GL211746   9.750  12.495   6.109  0.2380  0.0564  0.0957
  819loPI   C1A11747  10.103  12.348   6.372  0.3771  0.2457  0.1018
  819loPI   C2A11748   9.992  12.254   6.755  0.0443 -0.4044 -0.2802
  819loPI   C3A11749  10.078  12.258   7.151  0.6141  0.1128 -0.1609
  819loPI   C4A11750   9.896  12.302   7.530  0.0394 -0.3136 -0.1097
  819loPI   C5A11751   9.807  12.306   7.948  0.2781  0.1033  0.0854
  819loPI   C6A11752   9.698  12.017   8.283 -0.0457 -0.0281  0.2094
  819loPI   C1B11753   9.713  12.563   6.543 -0.3499 -0.2802  0.0496
  819loPI   C2B11754   9.746  12.670   7.060 -0.0791 -0.1491  0.0015
  819loPI   C3B11755   9.888  12.813   7.463 -0.1334 -0.3492  0.2247
  819loPI   C4B11756   9.812  12.809   7.847 -0.0680  0.0048 -0.4320
  820loPI    C111757   7.804  12.456   5.230 -0.0007 -0.1521 -0.2035
  820loPI    C211758   7.780  12.842   5.129 -0.1133 -0.1438 -0.1459
  820loPI    C311759   7.513  12.581   4.986 -0.1986 -0.1535  0.0278
  820loPI   PO411760   7.831  12.460   5.477 -0.0073  0.3770  0.2211
  820loPI   GL111761   7.835  12.337   5.823  0.1401 -0.3058  0.1677
  820loPI   GL211762   8.014  12.029   5.866 -0.0846  0.0334 -0.1477
  820loPI   C1A11763   7.665  12.313   6.190  0.3795  0.1256  0.0697
  820loPI   C2A11764   7.696  12.405   6.593 -0.1284 -0.0185  0.0393
  820loPI   C3A11765   7.564  12.587   7.115 -0.0182 -0.1841  0.0699
  820loPI   C4A11766   7.435  12.973   7.365  0.0102  0.0300  0.2155
  820loPI   C5A11767   7.518  12.895   7.822  0.2736 -0.1634 -0.2521
  820loPI   C6A11768   7.840  12.714   8.143 -0.2741  0.1090 -0.0060
  820loPI   C1B11769   8.205  12.177   6.244  0.2966  0.2973  0.1285
  820loPI   C2B11770   8.187  12.272   6.672  0.1277 -0.1710 -0.0582
  820loPI   C3B11771   8.059  12.491   7.007 -0.0787 -0.6466  0.0251
  820loPI   C4B11772   8.168  12.427   7.484 -0.1106 -0.0451 -0.1656
  821loPI    C111773   0.131   9.067   5.008  0.1950 -0.0922 -0.0694
  821loPI    C211774   0.254   8.811   4.726  0.0437 -0.3794  0.1204
  821loPI    C311775  -0.049   9.063   4.650  0.3419 -0.0902 -0.1440
  821loPI   PO411776   0.078   8.915   5.200 -0.1486 -0.1743  0.0136
  821loPI   GL111777   0.152   8.932   5.670 -0.2504  0.1216  0.1859
  821loPI   GL211778   0.334   9.003   5.911 -0.0457 -0.0425  0.2101
  821loPI   C1A11779  -0.120   8.840   6.037  0.3757  0.2274 -0.2048
  821loPI   C2A11780  -0.128   8.750   6.471 -0.2913  0.3525  0.1753
  821loPI   C3A11781  -0.205   8.713   6.843  0.0585 -0.0081 -0.0545
  821loPI   C4A11782  -0.294   8.655   7.260  0.1978 -0.1082  0.1076
  821loPI   C5A11783  -0.170   8.392   7.682  0.2674  0.0188  0.3705
  821loPI   C6A11784   0.135   8.001   7.778  0.0774  0.2092  0.1517
  821loPI   C1B11785   0.356   8.652   6.173 -0.0558 -0.0864 -0.1999
  821loPI   C2B11786   0.314   8.679   6.706 -0.0709 -0.3461 -0.2397
  821loPI   C3B11787   0.276   8.769   7.130 -0.0784  0.0042  0.3525
  821loPI   C4B11788   0.401   9.168   7.480 -0.0095 -0.1700  0.1150
  822loPI    C111789   0.490  18.001   5.052 -0.0159  0.0262  0.1061
  822loPI    C211790   0.468  17.735   4.755 -0.0037 -0.0539  0.1762
  822loPI    C311791   0.137  17.918   4.885  0.0214  0.1459 -0.0339
  822loPI   PO411792   0.670  17.882   5.264 -0.0460 -0.1822 -0.2314
  822loPI   GL111793   0.984  17.753   5.583 -0.2065  0.0111  0.2225
  822loPI   GL211794   0.822  17.920   5.781 -0.0873  0.3852 -0.2840
  822loPI   C1A11795   1.107  17.584   5.998 -0.0284  0.1168  0.2291
  822loPI   C2A11796   1.109  17.439   6.418  0.3418  0.0689 -0.2175
  822loPI   C3A11797   0.879  17.392   6.811  0.0977 -0.3324 -0.0565
  822loPI   C4A11798   0.944  17.264   7.186 -0.0195 -0.2532 -0.2372
  822loPI   C5A11799   1.109  17.061   7.561  0.1477 -0.1152  0.1678
  822loPI   C6A11800   1.270  16.925   7.961 -0.0137 -0.1067 -0.1453
  822loPI   C1B11801   0.902  17.920   6.233  0.0651  0.0613  0.1287
  822loPI   C2B11802   0.603  17.750   6.497  0.2753  0.0148 -0.1502
  822loPI   C3B11803   0.411  17.846   6.884  0.3277  0.0271 -0.1786
  822loPI   C4B11804   0.372  17.889   7.294  0.0830 -0.1990 -0.1997
  823loPI    C111805  11.997  16.543   5.651  0.1297 -0.0353  0.0915
  823loPI    C211806  11.890  16.236   5.419 -0.1451  0.1696 -0.0582
  823loPI    C311807  11.950  16.598   5.258  0.1042  0.2139  0.1275
  823loPI   PO411808  12.040  16.358   5.966  0.1772 -0.1254 -0.1551
  823loPI   GL111809  12.261  16.437   6.380 -0.2187 -0.0758 -0.0743
  823loPI   GL211810  12.103  16.645   6.695 -0.0021  0.3952  0.2401
  823loPI   C1A11811  12.079  16.076   6.775  0.1136  0.0566 -0.1322
  823loPI   C2A11812  11.996  15.890   7.149  0.2091 -0.1017  0.1940
  823loPI   C3A11813  12.248  15.703   7.437 -0.0263  0.0183  0.0448
  823loPI   C4A11814  12.328  15.876   7.808  0.0683  0.2044  0.0654
  823loPI   C5A11815  12.582  15.767   8.226  0.0423  0.0037  0.1407
  823loPI   C6A11816  12.859  15.632   8.697  0.0552  0.0713  0.0013
  823loPI   C1B11817  12.313  16.883   7.067 -0.2090  0.1111  0.0774
  823loPI   C2B11818  12.379  17.016   7.550  0.1181 -0.1894 -0.0990
  823loPI   C3B11819  12.436  17.139   7.947  0.0938 -0.2492 -0.0361
  823loPI   C4B11820  12.337  17.273   8.402 -0.0571  0.0896 -0.1423
  824loPI    C111821   4.702   8.785   5.240 -0.0815 -0.2825  0.0953
  824loPI    C211822   4.460   8.791   4.922  0.3119  0.2322 -0.2096
  824loPI    C311823   4.549   9.132   5.113  0.2170 -0.0482  0.3558
  824loPI   PO411824   4.582   8.595   5.478 -0.0543 -0.0251 -0.0818
  824loPI   GL111825   4.776   8.433   5.803  0.0187 -0.2190  0.1382
  824loPI   GL211826   4.685   8.680   6.000 -0.3450 -0.1173  0.1354
  824loPI   C1A11827   4.858   8.286   6.329  0.1368 -0.1236  0.0082
  824loPI   C2A11828   4.892   8.277   6.801  0.1703 -0.2580  0.2394
  824loPI   C3A11829   4.776   8.178   7.222 -0.1046  0.0942  0.1245
  824loPI   C4A11830   4.738   8.378   7.504 -0.1121  0.0624  0.0418
  824loPI   C5A11831   4.940   8.816   7.702 -0.1887  0.1385  0.2078
  824loPI   C6A11832   5.349   8.946   7.760 -0.0712  0.2257  0.2397
  824loPI   C1B11833   4.545   8.924   6.392  0.1628 -0.1674  0.0937
  824loPI   C2B11834   4.699   9.114   6.728 -0.2382 -0.1071 -0.1402
  824loPI   C3B11835   4.818   9.286   7.192  0.2094  0.1549  0.3677
  824loPI   C4B11836   4.948   9.289   7.564 -0.0526 -0.1410  0.1556
  825loPI    C111837   8.896   6.731   5.252 -0.0079 -0.1602 -0.0493
  825loPI    C211838   9.181   7.009   5.215 -0.1592  0.0126  0.0682
  825loPI    C311839   9.058   6.805   4.894 -0.0134  0.0470 -0.0101
  825loPI   PO411840   9.023   6.575   5.531 -0.0708 -0.1505 -0.1274
  825loPI   GL111841   8.983   6.476   5.947  0.1139 -0.5359  0.1541
  825loPI   GL211842   8.778   6.221   5.840  0.0586  0.1566  0.4315
  825loPI   C1A11843   8.910   6.420   6.278  0.0729 -0.0549 -0.1883
  825loPI   C2A11844   9.032   6.464   6.730  0.1500 -0.1814  0.2046
  825loPI   C3A11845   8.952   6.758   7.109  0.0030 -0.1048  0.0326
  825loPI   C4A11846   9.045   7.021   7.485 -0.0152  0.1029 -0.1587
  825loPI   C5A11847   9.407   7.165   7.733  0.1054 -0.2397  0.0932
  825loPI   C6A11848   9.483   7.583   7.986 -0.2428 -0.0993 -0.0336
  825loPI   C1B11849   8.647   6.010   6.198  0.1362 -0.0712 -0.3857
  825loPI   C2B11850   8.607   6.152   6.585 -0.2260 -0.3716 -0.1753
  825loPI   C3B11851   8.599   6.403   6.975 -0.0962  0.0367 -0.0576
  825loPI   C4B11852   8.356   6.433   7.289 -0.3088  0.0887  0.1333
  826loPI    C111853   7.550  16.030   5.301 -0.1105 -0.0007 -0.0247
  826loPI    C211854   7.708  16.343   5.109 -0.2439  0.0152 -0.1104
  826loPI    C311855   7.476  16.084   4.912 -0.2748 -0.0420 -0.0001
  826loPI   PO411856   7.502  16.063   5.520  0.0492 -0.0905 -0.1650
  826loPI   GL111857   7.324  16.209   5.941 -0.0969  0.3060  0.1399
  826loPI   GL211858   7.022  16.168   5.924 -0.1335 -0.3420  0.2299
  826loPI   C1A11859   7.266  16.184   6.460 -0.1028 -0.1390  0.0438
  826loPI   C2A11860   7.196  16.102   6.967  0.0877 -0.1933  0.1841
  826loPI   C3A11861   7.042  16.186   7.446  0.0485 -0.0553 -0.1978
  826loPI   C4A11862   6.709  16.236   7.787 -0.2690 -0.0975  0.0990
  826loPI   C5A11863   6.540  15.908   8.020  0.1331 -0.0232  0.0390
  826loPI   C6A11864   6.320  15.935   8.433  0.1710  0.1369  0.1904
  826loPI   C1B11865   6.714  16.352   6.383 -0.1505  0.2632  0.0519
  826loPI   C2B11866   6.417  16.513   6.776  0.1852  0.0090 -0.0928
  826loPI   C3B11867   6.260  16.568   7.187 -0.4141 -0.3654 -0.1535
  826loPI   C4B11868   6.279  16.473   7.663  0.3163  0.0500  0.1515
  827loPI    C111869   7.698  18.376   5.576 -0.1840  0.0891 -0.0164
  827loPI    C211870   8.056  18.496   5.709 -0.1070 -0.1619  0.0081
  827loPI    C311871   7.853  18.722   5.448  0.0296  0.0228  0.0595
  827loPI   PO411872   7.597  18.083   5.727  0.3965  0.1873  0.1639
  827loPI   GL111873   7.297  17.935   5.869  0.0040 -0.3042 -0.0658
  827loPI   GL211874   7.004  18.055   5.945  0.2726 -0.0045  0.2054
  827loPI   C1A11875   7.392  18.085   6.321  0.2716  0.0101 -0.0102
  827loPI   C2A11876   7.429  17.971   6.666  0.3973  0.0537  0.0810
  827loPI   C3A11877   7.495  17.943   7.137 -0.0947  0.0639 -0.3150
  827loPI   C4A11878   7.516  18.243   7.494 -0.0902 -0.1296  0.0708
  827loPI   C5A11879   7.290  18.436   7.850 -0.3295  0.2953 -0.2436
  827loPI   C6A11880   6.883  18.650   7.920 -0.3098  0.4470  0.1407
  827loPI   C1B11881   6.805  18.109   6.328  0.2615  0.2522  0.1948
  827loPI   C2B11882   6.543  17.894   6.659 -0.1732  0.0690 -0.2764
  827loPI   C3B11883   6.450  17.868   7.050  0.1096 -0.0405 -0.2390
  827loPI   C4B11884   6.126  17.874   7.387 -0.1801 -0.1054  0.4393
  828loPI    C111885   9.682  18.382   5.453  0.1526  0.1728 -0.1219
  828loPI    C211886   9.454  18.629   5.236 -0.1449  0.1865  0.1976
  828loPI    C311887   9.399  18.234   5.213 -0.1257  0.1843  0.1922
  828loPI   PO411888   9.659  18.441   5.647 -0.4871 -0.0143 -0.0502
  828loPI   GL111889   9.452  18.358   6.029 -0.1034 -0.0444  0.1697
  828loPI   GL211890   9.674  18.146   6.065  0.0450  0.1770  0.2251
  828loPI   C1A11891   9.309  18.425   6.445 -0.1527  0.3664 -0.2104
  828loPI   C2A11892   9.029  18.519   6.786  0.4304  0.3307 -0.1176
  828loPI   C3A11893   8.870  18.607   7.191 -0.0390  0.0437 -0.0797
  828loPI   C4A11894   8.949  18.901   7.480  0.0381 -0.0787 -0.1679
  828loPI   C5A11895   8.985  19.191   7.780 -0.0348  0.1431 -0.0984
  828loPI   C6A11896   8.990  19.176   8.211 -0.2277  0.0144 -0.0710
  828loPI   C1B11897   9.727  18.145   6.470 -0.2435  0.0936  0.0365
  828loPI   C2B11898   9.742  18.285   6.954 -0.0209  0.1300  0.2663
  828loPI   C3B11899   9.880  18.384   7.347  0.2118  0.0366  0.0615
  828loPI   C4B11900   9.913  18.426   7.769 -0.1304  0.0652 -0.2754
  829loPI    C111901  12.016   4.115   4.731 -0.1379  0.0606 -0.0463
  829loPI    C211902  11.914   4.437   4.516  0.0412  0.1257 -0.0354
  829loPI    C311903  12.299   4.331   4.548 -0.0154 -0.0807 -0.0255
  829loPI   PO411904  11.827   4.110   4.977  0.1283 -0.3897 -0.0377
  829loPI   GL111905  11.688   4.292   5.269 -0.1431  0.1038 -0.0163
  829loPI   GL211906  11.530   4.368   5.571  0.2373 -0.1057  0.3318
  829loPI   C1A11907  11.936   4.514   5.728  0.1554  0.3384  0.1023
  829loPI   C2A11908  12.086   4.713   5.999 -0.2538 -0.1129  0.2747
  829loPI   C3A11909  12.021   4.756   6.475  0.0076  0.0493  0.0317
  829loPI   C4A11910  12.188   4.629   6.858 -0.3073 -0.0239  0.1458
  829loPI   C5A11911  12.028   4.641   7.236 -0.4371  0.0168  0.3627
  829loPI   C6A11912  12.110   4.789   7.717 -0.3993  0.0559  0.1852
  829loPI   C1B11913  11.495   4.618   6.005 -0.0167 -0.0322  0.0611
  829loPI   C2B11914  11.242   5.037   6.105 -0.2020 -0.1422 -0.0451
  829loPI   C3B11915  11.069   5.297   6.501 -0.0424  0.0374  0.1190
  829loPI   C4B11916  11.232   5.288   6.893  0.0808 -0.0658  0.0414
  830loPI    C111917   7.140   2.045   5.137  0.0783 -0.1902  0.1076
  830loPI    C211918   7.467   2.023   4.908 -0.1585  0.1816 -0.2802
  830loPI    C311919   7.169   1.762   4.855 -0.0123 -0.0349 -0.0592
  830loPI   PO411920   7.234   2.046   5.431  0.0961  0.0864  0.3109
  830loPI   GL111921   7.121   2.011   5.884  0.0745 -0.1210  0.1556
  830loPI   GL211922   6.941   2.284   5.840 -0.0069  0.1285 -0.1596
  830loPI   C1A11923   7.065   1.684   6.159  0.2489 -0.3520 -0.1855
  830loPI   C2A11924   7.150   1.662   6.527  0.3467  0.2432 -0.2255
  830loPI   C3A11925   7.164   1.704   6.970 -0.5203 -0.1857  0.0356
  830loPI   C4A11926   7.137   1.859   7.421  0.0827 -0.1671 -0.2065
  830loPI   C5A11927   6.995   2.017   7.845 -0.0386  0.0347 -0.2992
  830loPI   C6A11928   6.803   1.999   8.251  0.2478  0.0490  0.0146
  830loPI   C1B11929   6.856   2.174   6.346 -0.2309  0.3208  0.0871
  830loPI   C2B11930   6.825   2.088   6.704 -0.0829 -0.2005 -0.1169
  830loPI   C3B11931   6.850   2.208   7.131 -0.1253  0.2512 -0.0597
  830loPI   C4B11932   6.666   2.290   7.488  0.0338 -0.0405  0.0615
  831loPI    C111933   5.860   1.377   5.781 -0.0269 -0.0167 -0.0167
  831loPI    C211934   5.712   1.300   5.417 -0.0979 -0.0890  0.0273
  831loPI    C311935   5.676   1.666   5.574  0.0671 -0.0164 -0.1010
  831loPI   PO411936   5.746   1.268   5.977  0.1358  0.0455 -0.2563
  831loPI   GL111937   5.908   1.292   6.375 -0.0734 -0.0071 -0.2136
  831loPI   GL211938   6.205   1.310   6.310  0.0771 -0.1499  0.3567
  831loPI   C1A11939   5.938   1.422   6.804 -0.1732 -0.2809  0.0521
  831loPI   C2A11940   6.023   1.312   7.222 -0.0387  0.4205 -0.1027
  831loPI   C3A11941   6.267   1.483   7.617  0.2371  0.3150  0.0842
  831loPI   C4A11942   6.179   1.506   8.029  0.2808 -0.0646  0.1184
  831loPI   C5A11943   6.065   1.155   8.196  0.0650 -0.1827 -0.1248
  831loPI   C6A11944   5.729   0.939   8.282 -0.1394 -0.1426  0.0968
  831loPI   C1B11945   6.249   1.082   6.643  0.0503  0.2865 -0.1642
  831loPI   C2B11946   6.351   1.001   7.022  0.1723  0.1229 -0.0308
  831loPI   C3B11947   6.319   0.905   7.427 -0.0054  0.2806  0.0198
  831loPI   C4B11948   6.166   1.048   7.742 -0.1571  0.2176 -0.1521
  832loPI    C111949  16.468   3.739   5.148 -0.0055 -0.1425  0.3016
  832loPI    C211950  16.482   3.416   4.913  0.1096  0.0747  0.0036
  832loPI    C311951  16.818   3.617   4.998  0.0259  0.1717  0.1088
  832loPI   PO411952  16.367   3.707   5.403  0.1996 -0.0762  0.2069
  832loPI   GL111953  16.474   3.829   5.792  0.2317 -0.2095  0.0526
  832loPI   GL211954  16.484   4.104   5.732  0.0663  0.0729 -0.3234
  832loPI   C1A11955  16.629   3.703   6.145 -0.1581 -0.0715  0.3538
  832loPI   C2A11956  16.598   3.698   6.531 -0.2319 -0.1678 -0.0079
  832loPI   C3A11957  16.769   3.948   6.804 -0.0083  0.1860  0.0442
  832loPI   C4A11958  16.646   4.512   6.828 -0.0138 -0.0696 -0.0180
  832loPI   C5A11959  16.853   4.748   7.095 -0.0299  0.1230 -0.2913
  832loPI   C6A11960  17.176   4.826   7.360 -0.3291  0.0577 -0.1556
  832loPI   C1B11961  16.508   4.215   6.107 -0.0753 -0.0496  0.1071
  832loPI   C2B11962  16.431   4.247   6.468  0.0911  0.3052 -0.1516
  832loPI   C3B11963  16.299   4.151   6.893  0.0404  0.1545  0.3313
  832loPI   C4B11964  16.476   4.086   7.329 -0.0883 -0.0479 -0.0525
  833loPI    C111965   4.170  16.429   5.102 -0.1906  0.0700  0.0782
  833loPI    C211966   3.995  16.087   5.212 -0.1172  0.0182  0.0343
  833loPI    C311967   3.771  16.404   5.112 -0.1860 -0.0467 -0.0184
  833loPI   PO411968   4.308  16.457   5.352 -0.4476 -0.1178 -0.1877
  833loPI   GL111969   3.992  16.361   5.651  0.1082 -0.1754 -0.0516
  833loPI   GL211970   3.752  16.540   5.831 -0.0898  0.1800  0.2201
  833loPI   C1A11971   4.174  16.345   6.099 -0.3583 -0.0929  0.1881
  833loPI   C2A11972   4.187  16.385   6.503  0.0713  0.0617 -0.1926
  833loPI   C3A11973   4.215  16.423   6.894 -0.1445 -0.1117  0.0104
  833loPI   C4A11974   4.025  16.245   7.314 -0.1314 -0.2825 -0.0138
  833loPI   C5A11975   4.122  16.410   7.638 -0.1148 -0.0967  0.3918
  833loPI   C6A11976   3.787  16.498   7.904  0.3578  0.0286 -0.0197
  833loPI   C1B11977   3.589  16.510   6.244 -0.0421 -0.0800 -0.5423
  833loPI   C2B11978   3.659  16.451   6.648 -0.1055 -0.1673  0.2566
  833loPI   C3B11979   3.482  16.313   6.996  0.1276  0.0927 -0.0394
  833loPI   C4B11980   3.088  16.282   7.377  0.0747  0.5590  0.4915
  834loPI    C111981  17.486  15.005   5.284  0.1256  0.0332 -0.1305
  834loPI    C211982  17.196  14.969   5.011 -0.0969  0.0776  0.0964
  834loPI    C311983  17.509  15.208   4.941 -0.1664  0.1107 -0.1067
  834loPI   PO411984  17.583  14.748   5.393 -0.0226 -0.2602  0.2235
  834loPI   GL111985  17.833  14.800   5.711 -0.0533  0.5028  0.0093
  834loPI   GL211986  17.863  14.505   5.787 -0.3492  0.2199 -0.4698
  834loPI   C1A11987  18.234  14.859   5.926  0.2430  0.0773 -0.0936
  834loPI   C2A11988  18.471  14.828   6.439  0.2009 -0.1985  0.0990
  834loPI   C3A11989  18.405  14.700   6.822 -0.2752  0.2973  0.3710
  834loPI   C4A11990  18.244  14.598   7.219 -0.1201  0.1040  0.0669
  834loPI   C5A11991  18.434  14.326   7.478 -0.0934  0.1251 -0.0081
  834loPI   C6A11992  18.591  14.007   7.855  0.1392  0.0412  0.1536
  834loPI   C1B11993  17.657  14.396   6.205  0.2526 -0.5245 -0.0282
  834loPI   C2B11994  17.592  14.329   6.665  0.2057 -0.1231  0.0725
  834loPI   C3B11995  17.614  14.216   7.091 -0.0621 -0.0342  0.0724
  834loPI   C4B11996  17.572  13.943   7.402  0.0180 -0.4411 -0.2730
  835loPI    C111997  12.604  11.262   5.430  0.3077  0.2434  0.0566
  835loPI    C211998  12.355  11.518   5.249  0.0966 -0.0238 -0.0363
  835loPI    C311999  12.711  11.437   5.086  0.1367  0.1588 -0.0409
  835loPI   PO412000  12.559  11.305   5.672  0.0188  0.2798 -0.1503
  835loPI   GL112001  12.614  11.392   6.040  0.1462  0.4076  0.0451
  835loPI   GL212002  12.684  11.072   6.163 -0.1112  0.0763 -0.1828
  835loPI   C1A12003  12.594  11.600   6.472  0.0508  0.1462  0.0982
  835loPI   C2A12004  12.606  11.642   6.896  0.0763 -0.1886  0.0568
  835loPI   C3A12005  12.741  11.670   7.318  0.1015 -0.0562 -0.0454
  835loPI   C4A12006  12.739  11.943   7.647  0.0908  0.0336  0.0154
  835loPI   C5A12007  12.732  11.894   8.142  0.0624 -0.0772 -0.1557
  835loPI   C6A12008  12.546  12.040   8.461  0.3280 -0.1863 -0.0087
  835loPI   C1B12009  12.528  11.058   6.649  0.2925  0.1257  0.1150
  835loPI   C2B12010  12.469  10.821   6.963 -0.0394  0.0524  0.0316
  835loPI   C3B12011  12.487  10.428   7.013  0.0663 -0.0020 -0.1050
  835loPI   C4B12012  12.371  10.252   7.260 -0.0862 -0.1369  0.3204
  836loPI    C112013   9.284  15.684   5.699  0.3932  0.0808 -0.0966
  836loPI    C212014   9.099  15.329   5.696  0.3830  0.0840  0.0809
  836loPI    C312015   9.113  15.550   5.363  0.3005 -0.0368 -0.0035
  836loPI   PO412016   9.487  15.634   5.843 -0.1757  0.1587  0.0457
  836loPI   GL112017   9.505  15.969   6.227  0.2688 -0.0099 -0.0136
  836loPI   GL212018   9.314  16.227   6.203  0.2375  0.4034 -0.2327
  836loPI   C1A12019   9.582  16.040   6.681  0.1226 -0.3347 -0.1629
  836loPI   C2A12020   9.849  16.104   7.061  0.1132  0.1324  0.0179
  836loPI   C3A12021   9.896  16.049   7.528 -0.0142 -0.0581  0.2684
  836loPI   C4A12022  10.038  16.036   7.957  0.0993 -0.0090 -0.0474
  836loPI   C5A12023   9.880  15.939   8.345 -0.3477 -0.0066  0.3790
  836loPI   C6A12024   9.906  15.522   8.514  0.0672  0.2578 -0.0322
  836loPI   C1B12025   9.200  16.420   6.645  0.0923  0.3795 -0.0717
  836loPI   C2B12026   8.986  16.551   6.931  0.1732 -0.1785 -0.1023
  836loPI   C3B12027   9.056  16.833   7.285  0.1629 -0.2675 -0.0191
  836loPI   C4B12028   9.365  16.780   7.607 -0.3291  0.2972  0.0271
  837loPI    C112029   1.003  11.984   5.681  0.0624  0.1640 -0.0631
  837loPI    C212030   0.979  12.155   6.042 -0.1553  0.0227 -0.0083
  837loPI    C312031   1.095  12.370   5.725  0.1535  0.1179  0.1653
  837loPI   PO412032   0.859  11.758   5.673  0.1251 -0.0380  0.0233
  837loPI   GL112033   0.798  11.499   5.978  0.2390 -0.0775  0.2326
  837loPI   GL212034   0.553  11.381   6.125 -0.0754 -0.0277  0.0037
  837loPI   C1A12035   1.088  11.445   6.271  0.0994 -0.1472 -0.2548
  837loPI   C2A12036   1.116  11.341   6.743  0.1780 -0.0129 -0.1527
  837loPI   C3A12037   1.122  11.300   7.143 -0.0440 -0.1003  0.1453
  837loPI   C4A12038   1.043  11.313   7.594 -0.2030 -0.0789  0.0717
  837loPI   C5A12039   1.164  11.445   8.042 -0.0534  0.1797 -0.4590
  837loPI   C6A12040   1.317  11.818   8.298 -0.1053  0.2925  0.2720
  837loPI   C1B12041   0.537  11.353   6.523  0.1886 -0.1185 -0.3437
  837loPI   C2B12042   0.592  11.318   6.925 -0.0924  0.0421 -0.2557
  837loPI   C3B12043   0.628  11.052   7.388 -0.0275 -0.0894 -0.2399
  837loPI   C4B12044   0.670  11.142   7.928 -0.2191  0.1170  0.0248
  838loPI    C112045   0.170  11.840   5.603 -0.0329  0.0360 -0.1614
  838loPI    C212046   0.071  11.891   5.219  0.0500  0.0558 -0.1802
  838loPI    C312047   0.456  11.895   5.329  0.0099  0.4939 -0.0340
  838loPI   PO412048   0.033  11.985   5.724  0.0269 -0.1086 -0.0911
  838loPI   GL112049   0.095  12.115   6.067 -0.4138 -0.0842  0.1906
  838loPI   GL212050   0.418  11.853   6.076 -0.0427 -0.1285 -0.2825
  838loPI   C1A12051   0.298  12.182   6.470 -0.0470 -0.0342  0.2135
  838loPI   C2A12052   0.371  12.134   6.847  0.1014 -0.1780 -0.1387
  838loPI   C3A12053   0.331  12.352   7.266 -0.0420 -0.2758 -0.5914
  838loPI   C4A12054   0.061  12.392   7.670  0.0896 -0.2401  0.2225
  838loPI   C5A12055  -0.361  12.306   7.905  0.2334 -0.0578 -0.0919
  838loPI   C6A12056  -0.764  12.113   7.785  0.0592 -0.2621  0.0035
  838loPI   C1B12057   0.664  11.828   6.358  0.0132 -0.2482 -0.2249
  838loPI   C2B12058   0.761  11.806   6.793 -0.3020 -0.0241 -0.2636
  838loPI   C3B12059   0.768  11.795   7.318  0.0567  0.0890 -0.3394
  838loPI   C4B12060   0.627  11.557   7.619  0.1303 -0.0381 -0.1130
  839loPI    C112061   3.421   4.926   5.232 -0.0190 -0.0557  0.0605
  839loPI    C212062   3.815   4.926   5.168 -0.0638 -0.1814 -0.2308
  839loPI    C312063   3.604   5.260   5.110  0.0311 -0.0498  0.1506
  839loPI   PO412064   3.359   4.889   5.523 -0.1489 -0.2661 -0.0895
  839loPI   GL112065   3.645   4.688   5.799  0.1721 -0.2498 -0.2277
  839loPI   GL212066   3.734   4.987   5.918  0.0484 -0.0930  0.1082
  839loPI   C1A12067   3.636   4.363   6.157 -0.2412 -0.2897 -0.1193
  839loPI   C2A12068   3.523   4.299   6.455  0.1345 -0.0120  0.1320
  839loPI   C3A12069   3.335   4.349   6.866  0.1627  0.0584  0.1593
  839loPI   C4A12070   3.040   4.320   7.126  0.1707 -0.4160 -0.1629
  839loPI   C5A12071   2.888   4.182   7.493 -0.1798 -0.1168  0.0739
  839loPI   C6A12072   2.875   4.381   7.872  0.0097 -0.0248  0.1315
  839loPI   C1B12073   3.735   4.936   6.374  0.2568 -0.1184  0.2988
  839loPI   C2B12074   3.760   4.681   6.786  0.0085 -0.1865 -0.1151
  839loPI   C3B12075   3.626   4.688   7.210 -0.2742  0.0018  0.4269
  839loPI   C4B12076   3.630   4.627   7.688 -0.4029  0.0670  0.0635
  840loPI    C112077  14.587  15.718   5.756  0.1158  0.2759  0.1082
  840loPI    C212078  14.868  15.769   5.476 -0.0566  0.3392 -0.0556
  840loPI    C312079  14.582  15.494   5.424  0.0130  0.2271  0.1421
  840loPI   PO412080  14.690  15.674   5.950  0.0644  0.1936 -0.1106
  840loPI   GL112081  14.819  15.188   6.212  0.2059 -0.2053 -0.0073
  840loPI   GL212082  15.126  15.154   6.196 -0.1711 -0.1018  0.0638
  840loPI   C1A12083  14.543  15.261   6.608 -0.2337  0.0857 -0.4957
  840loPI   C2A12084  14.663  15.376   7.010  0.1334 -0.1523 -0.3113
  840loPI   C3A12085  14.875  15.339   7.472 -0.1412  0.1563  0.1655
  840loPI   C4A12086  15.017  15.121   7.857  0.2586  0.1787  0.0801
  840loPI   C5A12087  15.313  15.156   8.023  0.0352 -0.2398  0.2798
  840loPI   C6A12088  15.627  15.505   8.154 -0.2691  0.2066 -0.1758
  840loPI   C1B12089  15.125  15.251   6.617 -0.0234  0.1759  0.3199
  840loPI   C2B12090  15.168  15.197   7.032  0.2659  0.1042 -0.0771
  840loPI   C3B12091  15.377  15.026   7.348  0.1605 -0.1724  0.2035
  840loPI   C4B12092  15.237  14.729   7.556 -0.1526  0.4488 -0.2954
  841loPI    C112093   2.262   4.422   5.217  0.0512  0.2485 -0.1155
  841loPI    C212094   1.995   4.138   5.127  0.2966 -0.0261  0.0049
  841loPI    C312095   2.173   4.344   4.835 -0.4216  0.5286 -0.0702
  841loPI   PO412096   2.443   4.261   5.446 -0.1200 -0.0369  0.2509
  841loPI   GL112097   2.428   4.309   5.884  0.0495  0.0824  0.0231
  841loPI   GL212098   2.782   4.190   5.839 -0.1046 -0.4157 -0.2565
  841loPI   C1A12099   2.441   4.138   6.302  0.1617 -0.1254 -0.1203
  841loPI   C2A12100   2.383   3.977   6.705  0.0955 -0.0697 -0.0382
  841loPI   C3A12101   2.508   4.216   7.125  0.0172  0.0668  0.0493
  841loPI   C4A12102   2.372   4.187   7.568 -0.0944  0.0328  0.0329
  841loPI   C5A12103   2.071   4.218   7.789 -0.1063  0.1536 -0.1238
  841loPI   C6A12104   1.877   4.597   7.960 -0.2628  0.1679  0.0655
  841loPI   C1B12105   3.016   4.267   6.238 -0.1551 -0.3603  0.1038
  841loPI   C2B12106   2.833   4.345   6.587 -0.1184 -0.0877 -0.2382
  841loPI   C3B12107   2.773   4.695   6.920  0.0761  0.2295 -0.0942
  841loPI   C4B12108   2.718   4.652   7.354  0.1388  0.0823  0.0263
  842loPI    C112109  12.474  13.739   5.595  0.1240 -0.1487  0.2451
  842loPI    C212110  12.766  13.697   5.325 -0.1705  0.0409 -0.1112
  842loPI    C312111  12.431  13.481   5.293 -0.1268 -0.0807  0.2204
  842loPI   PO412112  12.604  13.744   5.795 -0.3423  0.0172 -0.0106
  842loPI   GL112113  12.711  13.526   6.181 -0.0275  0.0140 -0.2467
  842loPI   GL212114  12.469  13.848   6.310 -0.2704  0.4526 -0.0015
  842loPI   C1A12115  12.987  13.517   6.620  0.0070  0.3175 -0.2040
  842loPI   C2A12116  12.977  13.380   7.061 -0.4999 -0.1165 -0.1478
  842loPI   C3A12117  13.118  13.582   7.476  0.0443  0.1757 -0.4197
  842loPI   C4A12118  13.025  13.420   7.871  0.0993  0.2654 -0.0428
  842loPI   C5A12119  12.642  13.206   8.033 -0.1217 -0.0205  0.1359
  842loPI   C6A12120  12.273  13.275   8.351 -0.1997  0.2043  0.0265
  842loPI   C1B12121  12.833  13.997   6.655  0.0061 -0.2688 -0.2337
  842loPI   C2B12122  13.193  13.903   6.968 -0.3417 -0.0991 -0.0437
  842loPI   C3B12123  13.516  13.965   7.365 -0.3460 -0.0202  0.2141
  842loPI   C4B12124  13.731  14.061   7.663  0.2635  0.0469  0.1038
  843loPI    C112125   0.847   4.414   5.381  0.2302  0.3577 -0.0123
  843loPI    C212126   1.006   4.410   5.014 -0.0826 -0.0040 -0.1505
  843loPI    C312127   0.637   4.268   5.073 -0.0440  0.0707  0.3030
  843loPI   PO412128   0.946   4.678   5.509 -0.1406 -0.2601 -0.1812
  843loPI   GL112129   0.780   4.848   5.819  0.0538 -0.1110  0.0661
  843loPI   GL212130   0.627   4.788   6.018 -0.1525  0.0651 -0.1789
  843loPI   C1A12131   1.109   4.771   6.134  0.0310 -0.1475  0.0252
  843loPI   C2A12132   1.182   4.801   6.593 -0.2095 -0.0214 -0.2439
  843loPI   C3A12133   1.325   4.868   6.967  0.1339 -0.0796 -0.0296
  843loPI   C4A12134   1.529   4.939   7.310 -0.1498 -0.4789  0.1210
  843loPI   C5A12135   1.616   4.970   7.703  0.1930 -0.0880  0.1900
  843loPI   C6A12136   2.025   5.200   7.817  0.0401 -0.0365 -0.2627
  843loPI   C1B12137   0.562   5.093   6.358 -0.1990 -0.1019 -0.0130
  843loPI   C2B12138   0.466   5.195   6.785 -0.2162  0.1037  0.2492
  843loPI   C3B12139   0.414   5.209   7.263 -0.0018  0.1539 -0.2328
  843loPI   C4B12140   0.098   5.007   7.391 -0.0798 -0.0197 -0.0426
  844loPI    C112141   3.087   3.317   5.190 -0.2369 -0.0259  0.0614
  844loPI    C212142   3.107   3.630   4.942 -0.1586  0.0819  0.2023
  844loPI    C312143   3.267   3.279   4.835 -0.4795  0.0126 -0.0681
  844loPI   PO412144   2.996   3.487   5.427 -0.1579 -0.1732 -0.1924
  844loPI   GL112145   3.036   3.714   5.772  0.1431 -0.2484 -0.1340
  844loPI   GL212146   3.291   3.620   5.883 -0.0985 -0.3727  0.2209
  844loPI   C1A12147   2.796   3.742   6.108 -0.0757  0.0506 -0.2545
  844loPI   C2A12148   2.803   3.755   6.564 -0.0906  0.4728  0.1696
  844loPI   C3A12149   2.897   3.906   6.925 -0.2245 -0.1699 -0.3820
  844loPI   C4A12150   2.864   3.722   7.247  0.2427  0.0291 -0.2640
  844loPI   C5A12151   2.626   3.715   7.643  0.0129  0.1355  0.2148
  844loPI   C6A12152   2.549   3.976   7.958 -0.2993  0.0747 -0.0416
  844loPI   C1B12153   3.265   3.778   6.270  0.1814 -0.1997 -0.1578
  844loPI   C2B12154   3.364   3.894   6.673  0.0783 -0.1609  0.0992
  844loPI   C3B12155   3.362   3.943   7.183  0.1085 -0.3030 -0.0088
  844loPI   C4B12156   3.401   4.246   7.396 -0.5489 -0.1322  0.0143
  845loPI    C112157   0.631   5.105   5.145  0.1529  0.0920 -0.1935
  845loPI    C212158   0.618   4.750   4.962 -0.0769 -0.0293  0.0512
  845loPI    C312159   0.969   4.932   5.020  0.0310 -0.1582 -0.1826
  845loPI   PO412160   0.546   5.097   5.394 -0.1596 -0.1573  0.0063
  845loPI   GL112161   0.600   5.324   5.801  0.2163 -0.1251 -0.1948
  845loPI   GL212162   0.864   5.381   6.005  0.1839  0.1918 -0.2770
  845loPI   C1A12163   0.439   5.564   6.169 -0.1875 -0.0397  0.3028
  845loPI   C2A12164   0.154   5.601   6.543  0.1361  0.0788  0.0837
  845loPI   C3A12165  -0.004   5.407   6.897  0.2967 -0.3829  0.1062
  845loPI   C4A12166  -0.260   5.183   7.055 -0.0157 -0.0934 -0.0968
  845loPI   C5A12167  -0.386   5.281   7.376  0.1470  0.1230 -0.0692
  845loPI   C6A12168  -0.310   5.614   7.722 -0.1523 -0.1259 -0.0028
  845loPI   C1B12169   1.014   5.224   6.368 -0.0577 -0.1552 -0.1756
  845loPI   C2B12170   0.949   5.309   6.790  0.2058  0.2753  0.2003
  845loPI   C3B12171   0.824   4.973   7.075 -0.2274  0.2561  0.2393
  845loPI   C4B12172   0.780   5.058   7.531  0.0878  0.0280  0.0584
  846loPI    C112173  16.510  14.783   5.212  0.0940 -0.1783 -0.1600
  846loPI    C212174  16.796  15.063   5.190 -0.0191 -0.0482  0.0011
  846loPI    C312175  16.707  14.841   4.869  0.1406  0.0318 -0.0994
  846loPI   PO412176  16.475  14.600   5.511  0.1769 -0.1211  0.1599
  846loPI   GL112177  16.785  14.484   5.820  0.2258  0.1634  0.2415
  846loPI   GL212178  16.787  14.801   5.793  0.2117 -0.1001 -0.0372
  846loPI   C1A12179  16.662  14.365   6.166  0.1356 -0.1078  0.2479
  846loPI   C2A12180  16.691  14.312   6.666 -0.3295  0.2299  0.0329
  846loPI   C3A12181  16.712  14.388   6.964 -0.0254 -0.2628  0.0624
  846loPI   C4A12182  16.756  14.312   7.466  0.0351  0.1499  0.6088
  846loPI   C5A12183  16.906  14.132   7.958 -0.0321 -0.1408 -0.0869
  846loPI   C6A12184  16.891  13.951   8.350  0.0801  0.1180  0.0393
  846loPI   C1B12185  16.880  14.803   6.247 -0.1357 -0.2901  0.3228
  846loPI   C2B12186  16.855  15.022   6.556  0.0607  0.2476  0.3636
  846loPI   C3B12187  16.920  14.917   7.052 -0.4555 -0.3801  0.1162
  846loPI   C4B12188  16.923  14.827   7.462  0.0605  0.1341  0.0102
  847loPI    C112189   2.315  17.759   5.276  0.2013 -0.0358 -0.1542
  847loPI    C212190   2.086  17.438   5.206  0.0071  0.1487 -0.3846
  847loPI    C312191   2.300  17.600   4.909  0.0468  0.2766 -0.2872
  847loPI   PO412192   2.394  17.699   5.561  0.0814 -0.0346 -0.0643
  847loPI   GL112193   2.379  18.062   5.950  0.1292  0.3330 -0.0935
  847loPI   GL212194   2.207  18.368   5.981  0.0433  0.0123  0.1148
  847loPI   C1A12195   2.340  17.882   6.344 -0.0980 -0.2192 -0.0769
  847loPI   C2A12196   2.480  17.791   6.847 -0.3117 -0.0843  0.3078
  847loPI   C3A12197   2.206  18.011   7.112  0.0113 -0.1839 -0.0905
  847loPI   C4A12198   2.075  17.992   7.415  0.0369 -0.1479  0.2616
  847loPI   C5A12199   2.001  17.862   7.808  0.1772  0.0071  0.2268
  847loPI   C6A12200   1.616  17.797   7.940  0.0553  0.1957 -0.1269
  847loPI   C1B12201   2.469  18.389   6.347  0.1842  0.2103 -0.0236
  847loPI   C2B12202   2.335  18.263   6.698 -0.3451 -0.4648 -0.0641
  847loPI   C3B12203   2.094  18.465   6.833  0.1402 -0.0749  0.1406
  847loPI   C4B12204   1.757  18.677   6.756  0.1411 -0.1575 -0.0975
  848loPI    C112205  11.634  10.577   5.451 -0.4260 -0.1195 -0.3602
  848loPI    C212206  11.877  10.591   5.134 -0.0798 -0.0428 -0.0973
  848loPI    C312207  11.698  10.924   5.264  0.1331  0.0146  0.0542
  848loPI   PO412208  11.756  10.340   5.536  0.1487 -0.1206 -0.2870
  848loPI   GL112209  11.743  10.179   6.036  0.2046 -0.1233 -0.1090
  848loPI   GL212210  11.996  10.102   6.075 -0.2428  0.1358  0.3057
  848loPI   C1A12211  11.753  10.038   6.514 -0.0397 -0.1994  0.3073
  848loPI   C2A12212  11.796  10.108   6.910  0.4765 -0.0516 -0.1126
  848loPI   C3A12213  11.758   9.987   7.380  0.1154 -0.1540  0.0000
  848loPI   C4A12214  11.971  10.376   7.558  0.0886 -0.1628  0.4638
  848loPI   C5A12215  12.430  10.387   7.863  0.4322 -0.2086  0.0429
  848loPI   C6A12216  12.748  10.578   8.099  0.2615 -0.0442 -0.0215
  848loPI   C1B12217  12.174  10.284   6.495  0.0355  0.0801 -0.0942
  848loPI   C2B12218  12.538  10.539   6.529 -0.1804 -0.2081  0.0287
  848loPI   C3B12219  12.918  10.727   6.589  0.0257 -0.2321  0.1542
  848loPI   C4B12220  13.280  10.608   6.492  0.0892  0.0174 -0.1497
  849loPI    C112221  17.482   5.068   5.163 -0.1300  0.1790  0.0567
  849loPI    C212222  17.559   5.291   5.486  0.2326  0.0423  0.0697
  849loPI    C312223  17.430   5.464   5.150 -0.1805  0.1817  0.2924
  849loPI   PO412224  17.560   4.826   5.275 -0.1011  0.1090  0.0286
  849loPI   GL112225  17.389   4.668   5.671 -0.1002  0.1837  0.0016
  849loPI   GL212226  17.157   4.906   5.548 -0.1358 -0.1501 -0.0934
  849loPI   C1A12227  17.492   4.596   6.135 -0.1544  0.2294 -0.2037
  849loPI   C2A12228  17.555   4.439   6.526 -0.0962 -0.1827 -0.4133
  849loPI   C3A12229  17.587   4.164   6.940  0.2167 -0.0651  0.3628
  849loPI   C4A12230  17.437   4.270   7.396 -0.1234  0.1522 -0.1606
  849loPI   C5A12231  17.499   4.209   7.863  0.0445  0.1390  0.0696
  849loPI   C6A12232  17.346   4.563   8.154  0.0908  0.4889  0.0282
  849loPI   C1B12233  17.068   4.809   6.020 -0.0805  0.1430  0.1617
  849loPI   C2B12234  16.975   5.171   6.290 -0.2495  0.0945  0.2205
  849loPI   C3B12235  16.910   5.237   6.628 -0.1718  0.3083  0.4090
  849loPI   C4B12236  17.264   5.126   6.959 -0.3801 -0.2261 -0.0538
  850loPI    C112237   1.797   2.546   5.019 -0.0555  0.1546 -0.0038
  850loPI    C212238   1.712   2.896   4.847  0.0298  0.1591 -0.0370
  850loPI    C312239   2.046   2.700   4.747  0.0207  0.1053  0.0377
  850loPI   PO412240   1.837   2.559   5.268 -0.1721  0.1777 -0.1652
  850loPI   GL112241   1.714   2.483   5.687 -0.1044 -0.1335 -0.3186
  850loPI   GL212242   1.947   2.661   5.739 -0.0878  0.2628  0.0126
  850loPI   C1A12243   1.529   2.476   6.088 -0.0064  0.0295 -0.2199
  850loPI   C2A12244   1.563   2.460   6.537  0.0092 -0.1076  0.1708
  850loPI   C3A12245   1.837   2.291   6.878  0.2204  0.0412 -0.2906
  850loPI   C4A12246   1.750   2.184   7.360 -0.1340  0.1115  0.1305
  850loPI   C5A12247   1.601   2.201   7.761  0.0314 -0.1361  0.1074
  850loPI   C6A12248   1.718   2.395   8.017  0.2705 -0.2835  0.0985
  850loPI   C1B12249   1.984   2.656   6.183 -0.4708  0.1423  0.0178
  850loPI   C2B12250   2.055   2.589   6.523 -0.0647  0.3435 -0.3733
  850loPI   C3B12251   2.217   2.611   6.886  0.0169 -0.2515  0.3981
  850loPI   C4B12252   2.077   2.553   7.277 -0.4288 -0.2693  0.0562
  851loPI    C112253   2.720   0.280   5.461 -0.2021 -0.2168  0.1376
  851loPI    C212254   2.720   0.147   5.083  0.0218 -0.0331  0.0707
  851loPI    C312255   2.511   0.474   5.180  0.0669 -0.0065  0.0787
  851loPI   PO412256   2.938   0.121   5.568  0.2432 -0.1119  0.0094
  851loPI   GL112257   2.766  -0.060   5.959 -0.3238 -0.1937 -0.2244
  851loPI   GL212258   2.913  -0.395   6.167  0.1100 -0.0245 -0.1957
  851loPI   C1A12259   2.959   0.110   6.250  0.2205 -0.0923 -0.0043
  851loPI   C2A12260   3.028   0.235   6.732  0.1404 -0.3006 -0.0053
  851loPI   C3A12261   2.854   0.373   7.097  0.1599 -0.1474 -0.1476
  851loPI   C4A12262   2.939   0.526   7.533 -0.0866  0.2901  0.2530
  851loPI   C5A12263   2.756   0.743   7.882  0.2189  0.1620  0.2025
  851loPI   C6A12264   2.545   0.751   8.346 -0.0525 -0.1336  0.1525
  851loPI   C1B12265   3.027  -0.243   6.590 -0.3715  0.3490 -0.3095
  851loPI   C2B12266   2.816  -0.254   6.959 -0.2078  0.1183  0.2497
  851loPI   C3B12267   2.738  -0.386   7.393 -0.0457 -0.0195  0.1235
  851loPI   C4B12268   2.498  -0.429   7.755  0.0433 -0.3185 -0.2120
  852loPI    C112269   8.829   2.184   5.655  0.0054  0.1669  0.1290
  852loPI    C212270   8.679   2.329   5.314 -0.0631 -0.1191  0.0347
  852loPI    C312271   9.061   2.213   5.330 -0.0420 -0.0442  0.0745
  852loPI   PO412272   8.666   2.339   5.814 -0.0409  0.2559 -0.2811
  852loPI   GL112273   8.348   2.411   5.963  0.0265  0.0393  0.0612
  852loPI   GL212274   7.979   2.488   5.865 -0.3738 -0.0795  0.1844
  852loPI   C1A12275   8.322   2.246   6.433  0.1285 -0.0849  0.0014
  852loPI   C2A12276   8.020   2.117   6.755 -0.3066 -0.7142  0.1470
  852loPI   C3A12277   7.877   2.030   7.214  0.1797 -0.1001 -0.0794
  852loPI   C4A12278   7.770   2.004   7.722  0.1861 -0.0028  0.0707
  852loPI   C5A12279   7.984   2.051   8.101  0.1343 -0.3263  0.4578
  852loPI   C6A12280   8.347   2.145   8.226  0.0008  0.2734  0.2121
  852loPI   C1B12281   8.007   2.661   6.235  0.1880 -0.2364 -0.1146
  852loPI   C2B12282   7.818   2.543   6.633  0.2141 -0.1828  0.0945
  852loPI   C3B12283   7.689   2.562   7.043  0.1677  0.0963  0.0273
  852loPI   C4B12284   7.658   2.441   7.346  0.3606  0.0870 -0.1927
  853loPI    C112285   1.684  10.555   5.294  0.1626 -0.0920 -0.1260
  853loPI    C212286   1.604  10.436   4.921  0.2224  0.0608 -0.1885
  853loPI    C312287   1.526  10.812   5.031  0.0046 -0.0413  0.0162
  853loPI   PO412288   1.526  10.422   5.492 -0.1856 -0.4253 -0.3055
  853loPI   GL112289   1.719  10.371   5.829  0.1541  0.1558 -0.1022
  853loPI   GL212290   1.664  10.587   6.110  0.2345 -0.3065 -0.0326
  853loPI   C1A12291   2.043  10.399   6.283  0.3023  0.0549 -0.0167
  853loPI   C2A12292   2.143  10.331   6.703 -0.0248 -0.0218 -0.0972
  853loPI   C3A12293   2.093  10.193   7.027  0.1740 -0.1725 -0.0497
  853loPI   C4A12294   2.075  10.267   7.444  0.2173  0.3381  0.0821
  853loPI   C5A12295   1.826  10.292   7.870 -0.1677  0.0515 -0.0676
  853loPI   C6A12296   1.805  10.269   8.249  0.2447  0.1616  0.1566
  853loPI   C1B12297   1.618  10.585   6.618 -0.2005 -0.1810 -0.0852
  853loPI   C2B12298   1.504  10.359   6.908 -0.1571 -0.2189  0.3073
  853loPI   C3B12299   1.422  10.094   7.031 -0.0245  0.1378  0.1117
  853loPI   C4B12300   1.068  10.039   7.335 -0.1183  0.1804 -0.1816
  854loPI    C112301   6.551   0.650   5.647  0.1087  0.0005  0.0966
  854loPI    C212302   6.681   0.804   5.302 -0.0059  0.0746  0.0859
  854loPI    C312303   6.319   0.636   5.322  0.0451 -0.0297  0.1429
  854loPI   PO412304   6.562   0.837   5.815  0.0340  0.0473  0.0313
  854loPI   GL112305   6.727   0.928   6.132  0.0737 -0.0374 -0.0891
  854loPI   GL212306   6.817   1.202   6.010  0.0119 -0.3306  0.0059
  854loPI   C1A12307   6.599   0.677   6.498 -0.1334  0.3037 -0.0440
  854loPI   C2A12308   6.504   0.619   6.862  0.2551 -0.0799  0.1733
  854loPI   C3A12309   6.328   0.467   7.289 -0.3226 -0.2497  0.0952
  854loPI   C4A12310   6.156   0.521   7.673  0.3693  0.0180  0.0874
  854loPI   C5A12311   6.127   0.682   8.098  0.0259 -0.0766  0.0392
  854loPI   C6A12312   6.482   0.880   8.473 -0.0666 -0.0582 -0.1047
  854loPI   C1B12313   6.730   1.260   6.448 -0.0924  0.2809  0.1682
  854loPI   C2B12314   6.817   1.066   6.798  0.1303 -0.1459 -0.0746
  854loPI   C3B12315   6.788   0.918   7.278 -0.1516  0.2446 -0.0699
  854loPI   C4B12316   6.931   0.598   7.588  0.0408 -0.4421  0.1062
  855loPI    C112317  16.077   1.481   5.363 -0.0377  0.0538  0.1311
  855loPI    C212318  16.338   1.780   5.406  0.0328  0.0252 -0.0859
  855loPI    C312319  15.958   1.859   5.309 -0.0458  0.0679  0.2464
  855loPI   PO412320  16.183   1.353   5.628  0.0643  0.1857  0.0725
  855loPI   GL112321  16.257   1.558   5.956  0.1988  0.0489 -0.0872
  855loPI   GL212322  16.073   1.338   6.140  0.1959 -0.2840  0.0021
  855loPI   C1A12323  16.166   1.828   6.395  0.1354 -0.2394  0.2228
  855loPI   C2A12324  16.090   1.930   6.896 -0.0670 -0.1361  0.2514
  855loPI   C3A12325  16.220   1.746   7.249  0.3227 -0.0533 -0.0015
  855loPI   C4A12326  16.313   1.622   7.649 -0.2246 -0.1046  0.2703
  855loPI   C5A12327  16.365   1.287   7.914  0.3286 -0.1963 -0.3522
  855loPI   C6A12328  16.080   1.252   8.205 -0.1341  0.2426 -0.0892
  855loPI   C1B12329  16.023   1.376   6.615 -0.1260 -0.1167  0.2815
  855loPI   C2B12330  15.975   1.358   6.942 -0.0791 -0.1122  0.0155
  855loPI   C3B12331  16.002   1.256   7.346  0.1347  0.0263  0.1156
  855loPI   C4B12332  15.890   1.380   7.795  0.0043  0.2470  0.1917
  856loPI    C112333   7.112  16.302   5.097 -0.0078 -0.1973 -0.0363
  856loPI    C212334   7.169  16.668   4.947  0.2870 -0.1682  0.1404
  856loPI    C312335   6.882  16.433   4.797  0.0529  0.1566  0.0677
  856loPI   PO412336   7.143  16.383   5.436 -0.1692 -0.1530 -0.2140
  856loPI   GL112337   7.179  16.812   5.698 -0.2217 -0.2820  0.5248
  856loPI   GL212338   7.067  16.981   5.846 -0.0554 -0.0578 -0.3362
  856loPI   C1A12339   7.156  16.616   6.177 -0.2118 -0.1194 -0.2565
  856loPI   C2A12340   7.133  16.602   6.671  0.1696  0.0068  0.1042
  856loPI   C3A12341   6.884  16.493   6.980 -0.3216 -0.2938 -0.1937
  856loPI   C4A12342   6.774  16.659   7.428 -0.0517 -0.0197  0.1942
  856loPI   C5A12343   6.554  17.023   7.869 -0.4436 -0.2306  0.0264
  856loPI   C6A12344   6.467  17.081   8.283  0.1226  0.0180 -0.1064
  856loPI   C1B12345   7.073  17.190   6.281  0.1077  0.1268  0.3452
  856loPI   C2B12346   7.089  17.137   6.767 -0.0544  0.1779  0.1100
  856loPI   C3B12347   7.004  17.049   7.193 -0.2116  0.2604 -0.1041
  856loPI   C4B12348   7.048  17.003   7.749 -0.0813 -0.0819  0.3560
  857loPI    C112349   8.010   4.023   4.962  0.1120  0.0965  0.0215
  857loPI    C212350   8.097   3.841   4.617  0.3594  0.0132  0.1260
  857loPI    C312351   8.001   4.229   4.620  0.2507 -0.0118 -0.0482
  857loPI   PO412352   7.843   3.883   5.119  0.0033 -0.0264 -0.1584
  857loPI   GL112353   7.694   3.850   5.551  0.0174  0.0083  0.1157
  857loPI   GL212354   7.769   4.131   5.729 -0.2606  0.0117  0.0302
  857loPI   C1A12355   7.457   3.681   5.868  0.2465  0.1788 -0.3217
  857loPI   C2A12356   7.542   3.518   6.229  0.0575  0.1863 -0.2978
  857loPI   C3A12357   7.728   3.551   6.587  0.0982  0.3130 -0.0103
  857loPI   C4A12358   7.824   3.420   7.042  0.0323  0.0228  0.1630
  857loPI   C5A12359   7.878   3.397   7.378  0.4403  0.0033 -0.0411
  857loPI   C6A12360   7.716   3.296   7.691  0.0553 -0.2490 -0.0245
  857loPI   C1B12361   7.788   3.933   6.169  0.1097  0.0988  0.1000
  857loPI   C2B12362   7.794   4.096   6.572 -0.0053  0.1259 -0.3602
  857loPI   C3B12363   7.879   4.242   7.133 -0.0736  0.0063  0.0580
  857loPI   C4B12364   7.927   4.163   7.612  0.2235  0.0798  0.1786
  858loPI    C112365   3.845  10.344   5.129 -0.1662 -0.0292 -0.0396
  858loPI    C212366   3.789  10.714   4.987 -0.1362 -0.0383 -0.0752
  858loPI    C312367   3.653  10.398   4.782  0.0342 -0.0597 -0.1573
  858loPI   PO412368   3.749  10.395   5.413 -0.1812 -0.0472 -0.1949
  858loPI   GL112369   3.952  10.439   5.814  0.2964  0.1019 -0.1595
  858loPI   GL212370   4.230  10.494   5.925 -0.1212 -0.0038 -0.0961
  858loPI   C1A12371   3.853  10.294   6.269  0.2135 -0.0412 -0.0415
  858loPI   C2A12372   3.793  10.225   6.787 -0.1756  0.4332  0.1259
  858loPI   C3A12373   3.661  10.215   7.202  0.1585  0.1812  0.0878
  858loPI   C4A12374   3.593  10.294   7.602 -0.0526  0.0674 -0.2043
  858loPI   C5A12375   3.464  10.014   8.012 -0.1941 -0.0951 -0.0236
  858loPI   C6A12376   3.622   9.958   8.456 -0.0379 -0.1531  0.1365
  858loPI   C1B12377   4.399  10.161   6.278  0.1418 -0.1580 -0.1853
  858loPI   C2B12378   4.663   9.911   6.600  0.0664  0.0180  0.2764
  858loPI   C3B12379   4.914   9.786   6.893 -0.1246 -0.2254 -0.1114
  858loPI   C4B12380   5.206   9.677   7.166 -0.1059 -0.0379 -0.0398
  859loPI    C112381   3.437   1.853   5.329 -0.0769  0.1505 -0.1852
  859loPI    C212382   3.708   1.646   5.121  0.4062  0.2006  0.3693
  859loPI    C312383   3.592   2.007   4.994  0.0982 -0.0896 -0.2172
  859loPI   PO412384   3.411   1.708   5.543  0.1069 -0.0782 -0.0778
  859loPI   GL112385   3.476   1.769   5.922  0.1156 -0.1154 -0.1584
  859loPI   GL212386   3.653   1.684   6.021 -0.0589  0.0772 -0.0119
  859loPI   C1A12387   3.388   2.156   6.079  0.0750  0.2305 -0.1894
  859loPI   C2A12388   3.309   2.379   6.469  0.1522  0.1619 -0.2199
  859loPI   C3A12389   3.499   2.463   6.799 -0.0285  0.0591 -0.2189
  859loPI   C4A12390   3.583   2.670   7.222 -0.0601 -0.0402 -0.2184
  859loPI   C5A12391   3.328   2.853   7.613  0.0632  0.0410  0.3559
  859loPI   C6A12392   3.291   3.076   7.937 -0.3130 -0.2319  0.1949
  859loPI   C1B12393   3.563   1.734   6.461  0.0522 -0.2466  0.1923
  859loPI   C2B12394   3.864   1.607   6.697  0.0820  0.3134 -0.3485
  859loPI   C3B12395   4.039   1.766   7.037 -0.1714 -0.1252  0.1400
  859loPI   C4B12396   4.288   2.033   7.127  0.0064 -0.2751 -0.0671
  860loPI    C112397  12.112  13.216   5.763  0.1016 -0.1058 -0.1804
  860loPI    C212398  11.858  13.043   6.019  0.1953  0.0127 -0.0051
  860loPI    C312399  11.725  13.319   5.761  0.1350  0.0314  0.0455
  860loPI   PO412400  12.271  13.309   5.922 -0.2362  0.0334 -0.2988
  860loPI   GL112401  12.347  13.214   6.263 -0.2943 -0.1975  0.0342
  860loPI   GL212402  12.244  12.880   6.273  0.0860 -0.1093 -0.0433
  860loPI   C1A12403  12.212  13.497   6.586 -0.0005 -0.2041 -0.4459
  860loPI   C2A12404  12.363  13.810   6.943 -0.0545 -0.2311 -0.0979
  860loPI   C3A12405  12.738  13.911   7.158  0.2614  0.0471  0.3296
  860loPI   C4A12406  12.928  14.065   7.460 -0.2212 -0.2203  0.1909
  860loPI   C5A12407  13.108  13.947   7.863  0.0241 -0.1874  0.1613
  860loPI   C6A12408  13.466  13.674   7.911  0.0587 -0.4322  0.0539
  860loPI   C1B12409  11.943  13.070   6.513  0.0768 -0.0254  0.3160
  860loPI   C2B12410  11.728  13.229   6.815 -0.4124  0.0754  0.2553
  860loPI   C3B12411  11.901  13.563   7.130 -0.2573 -0.1649 -0.2264
  860loPI   C4B12412  11.697  13.747   7.490  0.3009  0.2586  0.1620
  861loPI    C112413  18.070   8.219   5.162  0.1774  0.1515 -0.1258
  861loPI    C212414  17.806   7.953   5.022 -0.0351  0.1813  0.2054
  861loPI    C312415  18.069   8.124   4.773 -0.1126 -0.0901 -0.0699
  861loPI   PO412416  17.951   8.371   5.373 -0.0353  0.0863 -0.1447
  861loPI   GL112417  18.099   8.372   5.762 -0.2827 -0.2873  0.2292
  861loPI   GL212418  18.428   8.397   5.802  0.0071  0.1786  0.2166
  861loPI   C1A12419  18.013   8.378   6.221 -0.0533  0.2475  0.0112
  861loPI   C2A12420  18.006   8.309   6.670 -0.0003  0.1260 -0.0898
  861loPI   C3A12421  17.949   8.067   6.934 -0.1013  0.2549 -0.2836
  861loPI   C4A12422  17.909   8.213   7.313  0.1666  0.1965 -0.2368
  861loPI   C5A12423  17.544   8.346   7.528  0.0470  0.0729  0.1522
  861loPI   C6A12424  17.238   8.027   7.595  0.2158  0.1222 -0.2022
  861loPI   C1B12425  18.512   8.182   6.181 -0.6345 -0.0557  0.0292
  861loPI   C2B12426  18.517   8.251   6.618 -0.1797 -0.1915 -0.2801
  861loPI   C3B12427  18.409   8.309   7.053 -0.1740 -0.2286  0.0256
  861loPI   C4B12428  18.720   8.331   7.387 -0.0214  0.4117  0.0219
  862loPI    C112429   4.154   4.619   5.311 -0.1144  0.0455 -0.1859
  862loPI    C212430   4.450   4.409   5.479  0.2276  0.5518 -0.1315
  862loPI    C312431   4.200   4.232   5.221  0.3297  0.0199  0.1199
  862loPI   PO412432   4.128   4.801   5.544  0.3972 -0.0818  0.0844
  862loPI   GL112433   4.476   4.699   5.910 -0.0337  0.0524  0.1676
  862loPI   GL212434   4.456   4.350   6.040  0.0654  0.0204  0.2138
  862loPI   C1A12435   4.617   4.760   6.349 -0.0885 -0.2903 -0.1873
  862loPI   C2A12436   4.657   4.749   6.756  0.0104  0.3093 -0.0020
  862loPI   C3A12437   4.646   4.799   7.201 -0.0220  0.0260 -0.1379
  862loPI   C4A12438   4.535   4.659   7.613 -0.3198 -0.0375  0.1868
  862loPI   C5A12439   4.408   4.925   7.936  0.2183  0.2165  0.0023
  862loPI   C6A12440   4.376   5.347   8.133  0.0476 -0.0019 -0.0689
  862loPI   C1B12441   4.847   4.035   6.224 -0.0389 -0.0358 -0.4140
  862loPI   C2B12442   4.703   3.874   6.669 -0.2374  0.1919 -0.2034
  862loPI   C3B12443   4.672   3.843   7.135  0.0211 -0.1465  0.1447
  862loPI   C4B12444   4.914   3.819   7.508  0.2064 -0.0722  0.0760
  863loPI    C112445   6.973  12.565   5.534 -0.0468 -0.2793  0.2083
  863loPI    C212446   6.816  12.339   5.243 -0.0154  0.1348 -0.1394
  863loPI    C312447   7.213  12.352   5.295 -0.0326 -0.1160  0.0754
  863loPI   PO412448   6.843  12.731   5.527 -0.0162  0.0725 -0.1470
  863loPI   GL112449   6.531  12.927   5.754  0.0093  0.1211 -0.0901
  863loPI   GL212450   6.255  12.985   5.795 -0.2900 -0.1455  0.3449
  863loPI   C1A12451   6.594  12.956   6.153  0.1049 -0.4004 -0.0075
  863loPI   C2A12452   6.660  12.878   6.583  0.0966  0.0634  0.1606
  863loPI   C3A12453   6.640  12.990   6.943 -0.0607 -0.0861 -0.0471
  863loPI   C4A12454   6.456  12.917   7.285  0.0122 -0.1915 -0.0422
  863loPI   C5A12455   6.420  12.761   7.757 -0.2134  0.0728 -0.1465
  863loPI   C6A12456   6.673  12.508   7.994  0.0943 -0.1057  0.2900
  863loPI   C1B12457   6.102  12.978   6.121 -0.5123  0.2779  0.0407
  863loPI   C2B12458   6.140  12.954   6.513  0.1221 -0.1082 -0.0549
  863loPI   C3B12459   6.041  12.989   7.010 -0.1845 -0.0746 -0.0443
  863loPI   C4B12460   6.051  13.108   7.513  0.0920 -0.0395 -0.1751
  864loPI    C112461  13.268   0.885   5.635 -0.3535  0.0630 -0.0073
  864loPI    C212462  13.430   0.874   5.269 -0.2289 -0.1649  0.0527
  864loPI    C312463  13.297   1.220   5.419 -0.1524 -0.0451 -0.1519
  864loPI   PO412464  13.382   0.811   5.813 -0.2654  0.0384 -0.0408
  864loPI   GL112465  13.232   0.877   6.187  0.3095 -0.1501  0.3521
  864loPI   GL212466  12.935   0.807   6.235 -0.0389 -0.0322  0.2990
  864loPI   C1A12467  13.322   0.835   6.606  0.2869  0.3058 -0.0506
  864loPI   C2A12468  13.274   0.749   6.992  0.1593  0.1101 -0.6148
  864loPI   C3A12469  13.102   0.665   7.469 -0.1090  0.5079  0.1945
  864loPI   C4A12470  13.242   0.371   7.720 -0.2976 -0.3358 -0.2167
  864loPI   C5A12471  13.184   0.126   8.097  0.2607 -0.1573  0.0494
  864loPI   C6A12472  13.319   0.060   8.418 -0.0451 -0.2069  0.2044
  864loPI   C1B12473  12.823   1.064   6.624 -0.1433  0.0947 -0.1786
  864loPI   C2B12474  12.919   1.162   7.033 -0.0005  0.1623  0.3699
  864loPI   C3B12475  12.784   1.243   7.435  0.0407  0.0592 -0.0265
  864loPI   C4B12476  12.598   1.120   7.866 -0.2331  0.2597  0.1405
  865loPI    C112477   8.268   4.733   5.210  0.0781  0.1399 -0.1026
  865loPI    C212478   7.916   4.912   5.147 -0.0629 -0.0694  0.0769
  865loPI    C312479   7.985   4.547   4.997  0.1390  0.0369 -0.0943
  865loPI   PO412480   8.280   4.757   5.493  0.1603  0.0344  0.1737
  865loPI   GL112481   8.405   4.713   5.932 -0.1406  0.2161  0.1046
  865loPI   GL212482   8.117   4.486   5.905 -0.0320 -0.0142  0.1370
  865loPI   C1A12483   8.488   4.759   6.346 -0.0308  0.0164 -0.0182
  865loPI   C2A12484   8.512   4.741   6.851 -0.1161  0.3740  0.1308
  865loPI   C3A12485   8.749   4.582   7.219 -0.2548  0.1335  0.0775
  865loPI   C4A12486   8.916   4.428   7.617 -0.2409  0.2029 -0.1449
  865loPI   C5A12487   8.955   4.124   7.837 -0.0046  0.1958  0.0498
  865loPI   C6A12488   9.000   3.693   7.893  0.2286  0.1319 -0.3291
  865loPI   C1B12489   8.040   4.631   6.360 -0.0423  0.2956 -0.0193
  865loPI   C2B12490   7.940   4.639   6.753  0.3538 -0.0627  0.2477
  865loPI   C3B12491   7.981   4.737   7.134 -0.2242  0.0635  0.2573
  865loPI   C4B12492   7.884   4.656   7.560  0.0209  0.0600  0.0005
  866loPI    C112493  17.706  13.177   5.514 -0.0300 -0.1951 -0.0150
  866loPI    C212494  17.704  12.979   5.166  0.2539  0.1319 -0.2093
  866loPI    C312495  18.005  13.228   5.253 -0.0097  0.3517  0.1026
  866loPI   PO412496  17.383  13.285   5.482  0.0089 -0.4340  0.0716
  866loPI   GL112497  17.121  13.377   5.780  0.0923  0.1220  0.3231
  866loPI   GL212498  17.065  13.039   5.779  0.1735 -0.0068  0.0639
  866loPI   C1A12499  17.355  13.533   6.166  0.4230 -0.1151  0.1078
  866loPI   C2A12500  17.156  13.577   6.506 -0.0742 -0.1367 -0.4290
  866loPI   C3A12501  17.027  13.511   6.924 -0.1019  0.0555 -0.3260
  866loPI   C4A12502  17.016  13.340   7.284 -0.0647  0.2647 -0.1385
  866loPI   C5A12503  17.383  13.436   7.607  0.0972 -0.0417  0.0931
  866loPI   C6A12504  17.325  13.325   7.991  0.5322  0.0986  0.0783
  866loPI   C1B12505  17.229  13.029   6.148  0.1116 -0.0886  0.2027
  866loPI   C2B12506  17.029  13.072   6.534  0.1575  0.0000 -0.1781
  866loPI   C3B12507  17.037  12.944   6.916  0.0221 -0.2804 -0.2659
  866loPI   C4B12508  17.299  12.900   7.339 -0.2376  0.0967  0.0920
  867loPI    C112509   9.295   4.730   5.246  0.3427 -0.0870  0.2147
  867loPI    C212510   9.623   4.639   5.035  0.1152 -0.0335 -0.1705
  867loPI    C312511   9.433   4.985   4.971 -0.1996 -0.2041 -0.1822
  867loPI   PO412512   9.317   4.760   5.462  0.1912 -0.0771 -0.0961
  867loPI   GL112513   9.430   4.734   5.957  0.0397  0.1155 -0.1780
  867loPI   GL212514   9.605   4.923   6.178  0.1575 -0.0478  0.0558
  867loPI   C1A12515   9.171   4.606   6.218  0.1212 -0.1493 -0.0104
  867loPI   C2A12516   8.923   4.708   6.448 -0.0180 -0.2854 -0.0926
  867loPI   C3A12517   9.021   4.715   6.814 -0.2612  0.0337  0.0520
  867loPI   C4A12518   9.217   4.741   7.230 -0.1750 -0.1837 -0.1527
  867loPI   C5A12519   9.335   4.771   7.652 -0.0477 -0.0032 -0.0607
  867loPI   C6A12520   9.632   4.748   7.959  0.0865 -0.1745 -0.2687
  867loPI   C1B12521   9.749   5.101   6.535 -0.0875 -0.2197  0.0661
  867loPI   C2B12522   9.843   5.259   6.882 -0.2946 -0.2581  0.3566
  867loPI   C3B12523   9.724   5.357   7.258  0.0931 -0.5398  0.0408
  867loPI   C4B12524   9.634   5.430   7.618  0.1653  0.1722 -0.0111
  868loPI    C112525   9.550   1.519   5.680 -0.2304 -0.0367  0.0509
  868loPI    C212526   9.315   1.317   5.932 -0.3105 -0.0160 -0.0067
  868loPI    C312527   9.344   1.202   5.550 -0.0075 -0.1898  0.0649
  868loPI   PO412528   9.757   1.525   5.798  0.3426 -0.1959  0.1249
  868loPI   GL112529   9.858   1.603   6.186 -0.0721  0.0570 -0.0467
  868loPI   GL212530   9.637   1.359   6.314  0.2333 -0.1146 -0.0841
  868loPI   C1A12531   9.663   1.830   6.498  0.1007  0.0593 -0.2563
  868loPI   C2A12532   9.790   1.854   6.897  0.0742  0.1297  0.0938
  868loPI   C3A12533  10.040   1.873   7.354  0.3256  0.0887 -0.2993
  868loPI   C4A12534   9.916   1.871   7.799  0.3797  0.0823  0.2406
  868loPI   C5A12535   9.558   1.892   8.045  0.1034  0.1083  0.0197
  868loPI   C6A12536   9.164   1.915   8.354  0.1180 -0.0856 -0.0820
  868loPI   C1B12537   9.634   1.369   6.763  0.3020 -0.2039 -0.1972
  868loPI   C2B12538   9.743   1.444   7.227  0.1611  0.0896  0.1780
  868loPI   C3B12539   9.637   1.486   7.576  0.0004  0.1779 -0.1123
  868loPI   C4B12540   9.701   1.368   7.997  0.1149  0.2944  0.5393
  869loPI    C112541   8.582   1.811   5.430  0.0655  0.0672  0.0878
  869loPI    C212542   8.545   1.576   5.108  0.0045  0.2812 -0.0633
  869loPI    C312543   8.845   1.840   5.130  0.1368  0.1162  0.1545
  869loPI   PO412544   8.571   1.672   5.635 -0.1654  0.1433 -0.0666
  869loPI   GL112545   8.689   1.830   6.054 -0.0466  0.0367  0.3918
  869loPI   GL212546   8.392   1.953   6.008 -0.1494  0.0553 -0.0825
  869loPI   C1A12547   8.697   1.827   6.491  0.2919 -0.1927 -0.2083
  869loPI   C2A12548   8.624   1.934   6.922 -0.0953 -0.0870  0.1304
  869loPI   C3A12549   8.942   2.058   7.280  0.1193  0.1536 -0.4168
  869loPI   C4A12550   8.882   2.465   7.608 -0.1984 -0.0653  0.1500
  869loPI   C5A12551   8.915   2.735   8.090 -0.0219 -0.0886  0.1730
  869loPI   C6A12552   9.296   2.910   8.191 -0.3407  0.3701 -0.2407
  869loPI   C1B12553   7.907   2.008   6.158 -0.1271 -0.3748  0.3842
  869loPI   C2B12554   7.493   2.021   6.325  0.0211 -0.2987 -0.0888
  869loPI   C3B12555   7.398   2.043   6.745 -0.1460 -0.4172 -0.2499
  869loPI   C4B12556   7.427   2.115   7.071 -0.1759  0.0557 -0.1093
  870loPI    C112557   3.129   7.835   5.411 -0.2054 -0.2144 -0.1628
  870loPI    C212558   3.529   7.827   5.404 -0.2085 -0.3420 -0.2265
  870loPI    C312559   3.327   7.956   5.084 -0.2175 -0.2157 -0.1706
  870loPI   PO412560   3.070   7.803   5.609  0.0009  0.0063 -0.1006
  870loPI   GL112561   3.174   7.883   6.055 -0.1886 -0.0691 -0.1584
  870loPI   GL212562   3.470   7.780   6.002 -0.2382  0.2031 -0.2445
  870loPI   C1A12563   2.938   7.920   6.358 -0.0961 -0.0362  0.2067
  870loPI   C2A12564   2.932   7.821   6.735 -0.1900 -0.0009 -0.1180
  870loPI   C3A12565   3.099   7.535   7.188 -0.3666 -0.3921  0.2272
  870loPI   C4A12566   3.086   7.401   7.699  0.3399  0.0490  0.1191
  870loPI   C5A12567   2.799   7.596   7.987  0.0131  0.1639 -0.0687
  870loPI   C6A12568   2.382   7.715   8.018  0.0501  0.0410 -0.3770
  870loPI   C1B12569   3.487   7.740   6.526  0.0734 -0.1353 -0.3013
  870loPI   C2B12570   3.520   7.631   7.002 -0.0861 -0.0562 -0.0014
  870loPI   C3B12571   3.490   7.257   7.112 -0.2252 -0.3098 -0.0037
  870loPI   C4B12572   3.599   6.893   7.398 -0.0007 -0.0059 -0.3022
  871loPI    C112573   9.278  17.014   5.494 -0.1457 -0.1059 -0.3031
  871loPI    C212574   9.382  17.383   5.608 -0.1341 -0.2396  0.1395
  871loPI    C312575   9.238  17.320   5.240 -0.0488  0.1881  0.0274
  871loPI   PO412576   9.131  16.982   5.715 -0.0973 -0.2296  0.1770
  871loPI   GL112577   8.943  16.994   6.151  0.0192 -0.1593  0.0077
  871loPI   GL212578   9.266  16.899   6.293  0.1817 -0.0949  0.2554
  871loPI   C1A12579   8.836  16.921   6.557  0.0506  0.1974 -0.0629
  871loPI   C2A12580   8.537  16.723   6.958 -0.1081 -0.1394 -0.1471
  871loPI   C3A12581   8.507  16.702   7.386 -0.3238 -0.0508 -0.1709
  871loPI   C4A12582   8.547  16.720   7.840 -0.0537  0.0009 -0.2912
  871loPI   C5A12583   8.997  16.508   7.993  0.3007 -0.1502 -0.1364
  871loPI   C6A12584   9.325  16.530   8.358  0.0911  0.3709 -0.0888
  871loPI   C1B12585   9.242  16.958   6.839  0.0394  0.1184  0.3735
  871loPI   C2B12586   9.489  17.078   7.205 -0.1402 -0.1407  0.2610
  871loPI   C3B12587   9.689  17.322   7.465 -0.2976 -0.0963  0.0124
  871loPI   C4B12588   9.650  17.472   7.942  0.1118  0.0365  0.0864
  872loPI    C112589   2.277   8.311   5.228 -0.2516 -0.0514  0.0359
  872loPI    C212590   2.099   7.960   5.157 -0.2137 -0.0579 -0.0270
  872loPI    C312591   2.006   8.281   4.936 -0.0601 -0.0900 -0.1398
  872loPI   PO412592   2.344   8.299   5.422  0.0191 -0.0117  0.0518
  872loPI   GL112593   2.202   8.165   5.779  0.1110 -0.1613 -0.1501
  872loPI   GL212594   1.927   8.232   6.018 -0.0936  0.1876  0.0978
  872loPI   C1A12595   2.455   8.105   6.156 -0.2573 -0.0874 -0.4221
  872loPI   C2A12596   2.465   7.987   6.641  0.2506 -0.1690  0.0764
  872loPI   C3A12597   2.282   7.938   7.076  0.1794  0.0701  0.1992
  872loPI   C4A12598   2.252   7.913   7.510 -0.0828 -0.3901 -0.2025
  872loPI   C5A12599   2.245   8.170   7.914 -0.2037  0.0304 -0.2317
  872loPI   C6A12600   2.362   8.522   8.161  0.1258  0.1054  0.1296
  872loPI   C1B12601   1.723   8.354   6.530 -0.0370 -0.4468  0.0338
  872loPI   C2B12602   1.945   8.417   6.923 -0.1604 -0.1678 -0.2265
  872loPI   C3B12603   2.000   8.351   7.337 -0.1327 -0.0815 -0.1571
  872loPI   C4B12604   1.774   8.103   7.655  0.1227 -0.0618 -0.1237
  873loPI    C112605  13.846  16.735   5.940  0.0164 -0.1804  0.0447
  873loPI    C212606  13.553  16.540   5.750 -0.1806 -0.0062  0.1646
  873loPI    C312607  13.591  16.936   5.706  0.1049 -0.0419  0.0656
  873loPI   PO412608  14.005  16.438   5.979 -0.0377 -0.6324  0.0966
  873loPI   GL112609  14.132  16.126   6.385 -0.0855  0.0603 -0.0052
  873loPI   GL212610  13.937  16.365   6.445 -0.0864 -0.4913 -0.2237
  873loPI   C1A12611  14.192  16.020   6.898 -0.0357  0.0302 -0.0768
  873loPI   C2A12612  14.169  16.073   7.278  0.0353  0.1238 -0.1924
  873loPI   C3A12613  14.102  15.994   7.665  0.2085 -0.1601  0.1135
  873loPI   C4A12614  13.854  15.899   8.085  0.0694 -0.3945 -0.0228
  873loPI   C5A12615  13.555  15.996   8.474 -0.2049 -0.1080  0.0779
  873loPI   C6A12616  13.415  15.712   8.782  0.1356 -0.1813  0.2954
  873loPI   C1B12617  13.783  16.312   6.857 -0.1049 -0.0988 -0.0007
  873loPI   C2B12618  13.660  16.426   7.214 -0.0148 -0.1863  0.3055
  873loPI   C3B12619  13.664  16.332   7.598  0.1123 -0.0532 -0.0122
  873loPI   C4B12620  13.660  16.337   8.007 -0.3893 -0.2536 -0.4490
  874loPI    C112621  15.208  14.215   5.553 -0.0926 -0.0835 -0.0343
  874loPI    C212622  14.812  14.235   5.606 -0.1052 -0.1857 -0.0876
  874loPI    C312623  14.996  14.502   5.373 -0.1251 -0.0643  0.0341
  874loPI   PO412624  15.384  14.231   5.782 -0.1206  0.0553 -0.0529
  874loPI   GL112625  15.687  14.331   6.189 -0.0203  0.0998 -0.2547
  874loPI   GL212626  15.408  14.343   6.294  0.0135 -0.2779  0.1078
  874loPI   C1A12627  15.809  14.525   6.531 -0.2637 -0.3333 -0.2533
  874loPI   C2A12628  15.835  14.312   6.849 -0.1484  0.0637 -0.1547
  874loPI   C3A12629  15.999  14.407   7.242  0.3325  0.1596 -0.1098
  874loPI   C4A12630  15.837  14.603   7.652 -0.3433  0.2947  0.2852
  874loPI   C5A12631  15.572  14.637   8.001  0.1417 -0.3806 -0.0765
  874loPI   C6A12632  15.605  14.859   8.344 -0.3523 -0.4452  0.1187
  874loPI   C1B12633  15.263  14.291   6.759 -0.2263 -0.1542 -0.2839
  874loPI   C2B12634  15.062  14.193   7.186 -0.0464 -0.0901 -0.0949
  874loPI   C3B12635  14.941  14.357   7.605  0.1834 -0.3797 -0.0835
  874loPI   C4B12636  15.129  14.451   7.965 -0.2517 -0.0962  0.2780
  875loPI    C112637  13.254   9.768   5.763 -0.0252  0.0227  0.1106
  875loPI    C212638  13.612   9.934   5.695 -0.0696  0.0197 -0.1420
  875loPI    C312639  13.280  10.110   5.557 -0.1527 -0.0620 -0.0489
  875loPI   PO412640  13.256   9.669   6.015 -0.0204  0.0057  0.2410
  875loPI   GL112641  13.126   9.442   6.428  0.0725 -0.0343  0.0361
  875loPI   GL212642  12.953   9.630   6.388 -0.0757 -0.4211 -0.3296
  875loPI   C1A12643  13.062   9.282   6.785  0.1687  0.1704  0.0385
  875loPI   C2A12644  13.137   9.343   7.224  0.0110 -0.2376 -0.3627
  875loPI   C3A12645  13.097   9.360   7.644  0.0202 -0.2780 -0.1357
  875loPI   C4A12646  12.801   9.398   7.941  0.5210  0.0343 -0.0574
  875loPI   C5A12647  12.556   9.508   8.321 -0.1048  0.0641 -0.1343
  875loPI   C6A12648  12.550  10.063   8.384 -0.3020  0.0954  0.5752
  875loPI   C1B12649  13.032   9.776   6.740 -0.1827  0.1955  0.0995
  875loPI   C2B12650  12.897   9.795   7.088  0.0204  0.1341 -0.2775
  875loPI   C3B12651  12.844  10.217   7.491 -0.2316 -0.0695  0.0155
  875loPI   C4B12652  12.711  10.649   7.404  0.2038 -0.1150 -0.0693
  876loPI    C112653  16.016  13.645   5.334 -0.1022  0.0197  0.0239
  876loPI    C212654  15.747  13.430   5.537 -0.1186  0.1691  0.1628
  876loPI    C312655  15.670  13.542   5.161 -0.1542  0.0220  0.1255
  876loPI   PO412656  16.209  13.631   5.571  0.0745  0.0981 -0.0560
  876loPI   GL112657  16.413  13.320   5.758  0.0324  0.1021 -0.0960
  876loPI   GL212658  16.564  13.084   5.832  0.1146  0.3380  0.0882
  876loPI   C1A12659  16.647  13.381   6.235 -0.0572 -0.3037 -0.0229
  876loPI   C2A12660  16.598  13.290   6.597 -0.0131  0.1938 -0.2625
  876loPI   C3A12661  16.529  13.096   6.951 -0.1002  0.0790  0.1894
  876loPI   C4A12662  16.543  13.267   7.374 -0.2265  0.0980  0.0252
  876loPI   C5A12663  16.457  13.322   7.764 -0.0258  0.2439 -0.0733
  876loPI   C6A12664  16.070  13.671   7.898  0.0678 -0.1271 -0.2458
  876loPI   C1B12665  16.744  12.797   6.132  0.0929  0.3410 -0.2300
  876loPI   C2B12666  17.101  12.539   6.311 -0.3395 -0.2285 -0.0089
  876loPI   C3B12667  17.216  12.159   6.418 -0.1443  0.4480  0.0452
  876loPI   C4B12668  17.579  11.909   6.331 -0.4655  0.0488 -0.0699
  877loPI    C112669  13.527   8.355   5.655  0.0606 -0.2997 -0.0916
  877loPI    C212670  13.230   8.498   5.428  0.0243 -0.0863  0.0873
  877loPI    C312671  13.605   8.499   5.290  0.0042  0.0535  0.0322
  877loPI   PO412672  13.595   8.439   5.945  0.2135 -0.2964  0.2273
  877loPI   GL112673  13.999   8.427   6.119  0.0154 -0.1954 -0.2089
  877loPI   GL212674  14.250   8.600   6.263  0.1242 -0.0455 -0.1213
  877loPI   C1A12675  13.811   8.413   6.550 -0.0974  0.0608  0.1854
  877loPI   C2A12676  13.707   8.327   7.064  0.1361 -0.0582  0.2377
  877loPI   C3A12677  13.703   8.100   7.464 -0.3831  0.1198 -0.0281
  877loPI   C4A12678  13.711   8.052   7.905  0.0743 -0.2151  0.1061
  877loPI   C5A12679  13.298   8.059   8.234  0.2718 -0.1711 -0.1504
  877loPI   C6A12680  12.990   7.671   8.134 -0.0515 -0.2172  0.1283
  877loPI   C1B12681  14.220   8.786   6.589  0.1622 -0.0199  0.2148
  877loPI   C2B12682  14.036   8.712   6.988  0.0996  0.1709  0.1684
  877loPI   C3B12683  13.884   8.744   7.380  0.3145  0.1902  0.1850
  877loPI   C4B12684  13.710   8.549   7.741 -0.1121  0.0875 -0.0418
  878loPI    C112685  15.186   9.174   5.451 -0.0041  0.1021 -0.0365
  878loPI    C212686  14.836   9.367   5.467 -0.1218 -0.1077 -0.0438
  878loPI    C312687  15.037   9.346   5.122 -0.0993  0.0156 -0.0388
  878loPI   PO412688  15.240   9.180   5.721  0.1958  0.0523  0.1389
  878loPI   GL112689  15.491   9.201   6.055 -0.1447  0.1345  0.1886
  878loPI   GL212690  15.557   9.458   6.083 -0.1733 -0.1361 -0.0420
  878loPI   C1A12691  15.357   8.988   6.408 -0.7364 -0.1399 -0.1267
  878loPI   C2A12692  15.394   8.878   6.846  0.1106  0.0844 -0.0609
  878loPI   C3A12693  15.282   8.655   7.196  0.1096  0.0859 -0.4981
  878loPI   C4A12694  14.911   8.689   7.602 -0.1242 -0.0347  0.3085
  878loPI   C5A12695  14.806   8.823   7.957 -0.1652  0.0158 -0.2846
  878loPI   C6A12696  14.456   8.799   8.279 -0.1103  0.0830  0.0856
  878loPI   C1B12697  15.453   9.518   6.575 -0.3218 -0.0037 -0.4183
  878loPI   C2B12698  15.482   9.379   6.973  0.0039  0.0883  0.2679
  878loPI   C3B12699  15.409   9.107   7.300 -0.3203 -0.2011  0.2799
  878loPI   C4B12700  15.257   9.140   7.713  0.2348 -0.3334  0.1436
  879loPI    C112701   7.633   5.395   5.761 -0.2181  0.0988 -0.0103
  879loPI    C212702   7.916   5.150   5.621 -0.2469  0.1282 -0.1204
  879loPI    C312703   7.759   5.432   5.384 -0.0866  0.3712  0.0578
  879loPI   PO412704   7.419   5.299   5.841 -0.3220 -0.1033  0.0554
  879loPI   GL112705   7.455   5.228   6.269  0.0920  0.0834  0.0279
  879loPI   GL212706   7.578   5.032   6.391 -0.0301 -0.1413 -0.1738
  879loPI   C1A12707   7.311   5.423   6.609 -0.1757  0.2120  0.2657
  879loPI   C2A12708   7.289   5.593   6.880  0.0260 -0.2184 -0.0562
  879loPI   C3A12709   7.382   5.596   7.300  0.0808  0.0780 -0.3924
  879loPI   C4A12710   7.619   5.649   7.603 -0.1876  0.1705  0.2196
  879loPI   C5A12711   7.711   6.002   7.857  0.1542 -0.1493  0.1039
  879loPI   C6A12712   7.525   6.379   7.754  0.2601  0.5032  0.0083
  879loPI   C1B12713   7.670   5.048   6.855  0.0004  0.1157  0.1484
  879loPI   C2B12714   7.763   5.249   7.277  0.0169 -0.1074 -0.0521
  879loPI   C3B12715   8.037   5.145   7.672  0.3159 -0.3470 -0.1608
  879loPI   C4B12716   8.167   5.084   8.103  0.2508 -0.0025  0.0381
  880loPI    C112717   6.357  16.931   5.119 -0.0474 -0.0453 -0.0999
  880loPI    C212718   6.668  16.878   4.873  0.1888 -0.2056  0.2254
  880loPI    C312719   6.493  17.237   4.899  0.1436 -0.1923 -0.1893
  880loPI   PO412720   6.339  16.771   5.398  0.0918  0.1518  0.1204
  880loPI   GL112721   6.052  16.579   5.782 -0.2270  0.0006  0.1050
  880loPI   GL212722   6.012  16.253   5.817  0.2610 -0.1669 -0.1367
  880loPI   C1A12723   5.947  16.642   6.132 -0.1598 -0.1497  0.3335
  880loPI   C2A12724   5.776  16.833   6.490 -0.1035  0.1081  0.1275
  880loPI   C3A12725   5.494  16.886   6.784  0.0442 -0.4589 -0.0323
  880loPI   C4A12726   5.590  16.919   7.218  0.4166 -0.4347  0.0199
  880loPI   C5A12727   5.837  16.733   7.422 -0.1826  0.1579 -0.1538
  880loPI   C6A12728   6.055  16.931   7.704 -0.2947  0.1174 -0.0571
  880loPI   C1B12729   5.810  16.104   6.104 -0.2571 -0.3949 -0.1248
  880loPI   C2B12730   5.607  16.005   6.487  0.1908 -0.0077  0.1303
  880loPI   C3B12731   5.680  15.977   6.902 -0.2477 -0.3327 -0.0809
  880loPI   C4B12732   5.892  15.633   7.059 -0.0481  0.1315 -0.2816
  881loPI    C112733   9.536   3.906   5.439  0.0150  0.1363 -0.0640
  881loPI    C212734   9.534   4.068   5.074 -0.2004  0.0308 -0.1114
  881loPI    C312735   9.252   3.803   5.176 -0.0032 -0.1188  0.0521
  881loPI   PO412736   9.764   3.875   5.509 -0.3271 -0.3752  0.0753
  881loPI   GL112737   9.900   3.980   6.012 -0.3155 -0.0523 -0.0352
  881loPI   GL212738   9.614   4.121   5.946  0.0330 -0.2069  0.1026
  881loPI   C1A12739  10.053   4.155   6.378  0.0511 -0.0121  0.0010
  881loPI   C2A12740  10.151   4.230   6.767 -0.3427 -0.0259 -0.0322
  881loPI   C3A12741   9.957   4.403   6.990  0.0573 -0.2381 -0.2294
  881loPI   C4A12742   9.906   4.464   7.470  0.2857  0.3701  0.0529
  881loPI   C5A12743  10.223   4.532   7.925  0.0194 -0.0331 -0.1857
  881loPI   C6A12744  10.614   4.832   7.932  0.0476  0.0192 -0.1167
  881loPI   C1B12745   9.613   4.377   6.308  0.0778  0.1846  0.0406
  881loPI   C2B12746   9.507   4.609   6.679 -0.1478  0.0609  0.3411
  881loPI   C3B12747   9.593   4.794   6.976 -0.2981  0.0327  0.1281
  881loPI   C4B12748   9.735   4.884   7.302 -0.0455  0.1321 -0.1408
  882loPI    C112749   4.112   3.240   5.090  0.1084 -0.3193  0.0092
  882loPI    C212750   4.453   3.349   5.268  0.0575 -0.3279  0.1128
  882loPI    C312751   4.438   3.313   4.870  0.0539  0.1276  0.0659
  882loPI   PO412752   3.971   3.341   5.281  0.1956 -0.0316 -0.0173
  882loPI   GL112753   4.107   3.504   5.599 -0.0432 -0.1042  0.0243
  882loPI   GL212754   4.221   3.409   5.802  0.4261 -0.1684  0.0720
  882loPI   C1A12755   3.815   3.788   5.921  0.0333  0.0532  0.0882
  882loPI   C2A12756   3.770   3.896   6.328  0.3380  0.0839  0.2248
  882loPI   C3A12757   3.849   4.087   6.716 -0.3527  0.0092  0.3387
  882loPI   C4A12758   3.799   4.134   7.062  0.0340 -0.0243 -0.0059
  882loPI   C5A12759   3.938   4.146   7.492  0.1805 -0.1190 -0.1811
  882loPI   C6A12760   4.104   4.322   7.888 -0.1889 -0.1663 -0.0916
  882loPI   C1B12761   4.342   3.073   6.188 -0.1009 -0.3329 -0.2396
  882loPI   C2B12762   4.473   2.602   6.337  0.0016 -0.0761 -0.2171
  882loPI   C3B12763   4.361   2.445   6.751  0.3716 -0.0481 -0.0193
  882loPI   C4B12764   4.120   2.515   7.156 -0.0553 -0.2775  0.0577
  883loPI    C112765   8.770  15.958   5.788 -0.0580  0.1895 -0.0904
  883loPI    C212766   8.679  15.572   5.839 -0.1320  0.2077 -0.0840
  883loPI    C312767   8.665  15.734   5.473 -0.1374  0.2136 -0.0811
  883loPI   PO412768   8.992  15.974   5.981 -0.1061 -0.0859 -0.2208
  883loPI   GL112769   8.966  16.054   6.458 -0.0856 -0.1147  0.1881
  883loPI   GL212770   9.169  15.754   6.565  0.0007  0.0164  0.0652
  883loPI   C1A12771   8.686  16.214   6.735  0.0550 -0.1104 -0.1104
  883loPI   C2A12772   8.536  16.283   7.131 -0.5302 -0.0111 -0.2160
  883loPI   C3A12773   8.471  16.299   7.639  0.0232 -0.1082  0.0309
  883loPI   C4A12774   8.555  16.307   8.110 -0.3932 -0.0229 -0.1106
  883loPI   C5A12775   8.623  16.498   8.404 -0.1982 -0.1419  0.1550
  883loPI   C6A12776   8.833  16.584   8.713 -0.0004  0.0604 -0.2234
  883loPI   C1B12777   9.416  15.749   7.044  0.1343 -0.0525  0.2597
  883loPI   C2B12778   9.415  15.735   7.498  0.0902 -0.0675 -0.2268
  883loPI   C3B12779   9.112  15.678   7.795 -0.0534 -0.0411 -0.0047
  883loPI   C4B12780   8.803  15.863   7.891 -0.2127  0.1159  0.4441
  884loPI    C112781  13.640  15.620   5.898  0.2020  0.0053 -0.2892
  884loPI    C212782  13.621  15.541   5.506 -0.2353  0.1769 -0.3081
  884loPI    C312783  13.328  15.749   5.683 -0.1432 -0.0702  0.1509
  884loPI   PO412784  13.669  15.386   6.005  0.3124  0.0170 -0.3565
  884loPI   GL112785  13.478  15.142   6.274  0.3922 -0.2602 -0.1054
  884loPI   GL212786  13.577  14.882   6.075  0.0514  0.1014 -0.1435
  884loPI   C1A12787  13.467  15.005   6.681 -0.1243  0.1816 -0.0640
  884loPI   C2A12788  13.514  14.777   7.025 -0.2030 -0.1724 -0.2000
  884loPI   C3A12789  13.700  14.621   7.418 -0.1045 -0.0164  0.0942
  884loPI   C4A12790  13.777  14.481   7.852  0.0731  0.0023  0.1977
  884loPI   C5A12791  14.067  14.283   8.109 -0.0268 -0.2177  0.6199
  884loPI   C6A12792  14.397  14.538   8.441  0.1826 -0.1975 -0.0822
  884loPI   C1B12793  13.885  14.853   6.368  0.1227  0.0970 -0.0322
  884loPI   C2B12794  14.176  14.945   6.620  0.1859 -0.1399  0.4910
  884loPI   C3B12795  14.475  14.893   6.919  0.1428 -0.0789 -0.0183
  884loPI   C4B12796  14.373  15.137   7.315  0.0721  0.1791  0.0840
  885loPI    C112797   5.603   2.671   5.116 -0.0789 -0.0672 -0.0616
  885loPI    C212798   5.288   2.854   5.281 -0.1170 -0.2315  0.0511
  885loPI    C312799   5.280   2.751   4.894 -0.0595  0.0827 -0.0365
  885loPI   PO412800   5.770   2.693   5.405 -0.0530  0.1262 -0.0481
  885loPI   GL112801   5.496   2.981   5.758  0.1879  0.0139 -0.0118
  885loPI   GL212802   5.196   2.886   5.758 -0.1423  0.2016  0.1220
  885loPI   C1A12803   5.519   3.125   6.175  0.0883 -0.0332 -0.1121
  885loPI   C2A12804   5.591   3.409   6.563 -0.1230 -0.3436 -0.3712
  885loPI   C3A12805   5.690   3.358   7.063  0.0358 -0.0445 -0.0358
  885loPI   C4A12806   5.520   3.107   7.348  0.1157  0.2413 -0.2306
  885loPI   C5A12807   5.219   2.908   7.653  0.0149 -0.2505 -0.2583
  885loPI   C6A12808   4.902   2.668   7.806  0.2219 -0.1725 -0.1027
  885loPI   C1B12809   4.989   3.089   6.111  0.1689  0.1031 -0.0192
  885loPI   C2B12810   5.051   3.022   6.595  0.0054 -0.2280  0.0536
  885loPI   C3B12811   5.323   3.144   6.821 -0.3686 -0.1450 -0.0441
  885loPI   C4B12812   5.205   2.805   7.126 -0.0098  0.0115  0.1358
  886loPI    C112813  10.014   9.048   5.368 -0.1448  0.2012  0.0879
  886loPI    C212814   9.784   8.743   5.249 -0.2943  0.2290  0.2999
  886loPI    C312815   9.918   9.008   4.982  0.0803 -0.1814  0.0663
  886loPI   PO412816  10.219   8.976   5.513 -0.4049  0.0784  0.1074
  886loPI   GL112817  10.508   8.944   5.825 -0.0929  0.3803 -0.3600
  886loPI   GL212818  10.180   8.777   5.982  0.1859  0.1813  0.4314
  886loPI   C1A12819  10.420   8.994   6.322 -0.0545 -0.1192 -0.1269
  886loPI   C2A12820  10.351   8.789   6.716 -0.1891  0.3129 -0.1018
  886loPI   C3A12821  10.170   8.908   7.176 -0.0945  0.1461 -0.0081
  886loPI   C4A12822  10.215   9.261   7.525  0.0998 -0.1863 -0.1052
  886loPI   C5A12823  10.130   9.582   7.869 -0.4325  0.2729 -0.0420
  886loPI   C6A12824  10.205   9.908   7.838 -0.0140 -0.2345 -0.0892
  886loPI   C1B12825  10.024   8.656   6.369  0.3024 -0.2279 -0.1532
  886loPI   C2B12826   9.762   8.667   6.752 -0.2782 -0.2796  0.3123
  886loPI   C3B12827   9.720   8.846   7.092  0.4387 -0.0286  0.0332
  886loPI   C4B12828   9.483   9.075   7.249 -0.2566 -0.0415 -0.1712
  887loPI    C112829  17.341  13.842   4.851 -0.0265 -0.0118  0.0087
  887loPI    C212830  17.079  14.065   4.647  0.0376 -0.0196 -0.0828
  887loPI    C312831  17.073  13.667   4.611  0.0421 -0.0216 -0.0612
  887loPI   PO412832  17.293  13.892   5.124 -0.3333 -0.1172 -0.1919
  887loPI   GL112833  17.320  13.783   5.490 -0.3528 -0.1675 -0.1623
  887loPI   GL212834  17.590  13.694   5.698  0.0074 -0.3587 -0.1030
  887loPI   C1A12835  17.106  14.000   5.734  0.1293  0.0018 -0.0193
  887loPI   C2A12836  16.908  13.842   6.112 -0.0267 -0.0602  0.1837
  887loPI   C3A12837  16.701  13.818   6.606  0.3251 -0.2446  0.3799
  887loPI   C4A12838  16.561  13.698   7.035  0.2330  0.0188  0.3714
  887loPI   C5A12839  16.699  13.729   7.459 -0.1361 -0.1793  0.1968
  887loPI   C6A12840  16.547  13.826   7.856  0.0748  0.0397 -0.1137
  887loPI   C1B12841  17.620  13.953   5.999 -0.3050 -0.0842 -0.3920
  887loPI   C2B12842  17.631  13.856   6.351 -0.0954  0.1358 -0.1403
  887loPI   C3B12843  17.769  13.779   6.807  0.2967  0.2024  0.2655
  887loPI   C4B12844  17.545  13.524   7.059 -0.2831  0.4998 -0.2851
  888loPI    C112845   7.083   0.385   5.200  0.0535 -0.1101  0.1196
  888loPI    C212846   7.435   0.561   5.271  0.0139 -0.0542  0.1782
  888loPI    C312847   7.421   0.171   5.183  0.1133 -0.0024 -0.0752
  888loPI   PO412848   6.908   0.359   5.404 -0.2582 -0.1776  0.0787
  888loPI   GL112849   6.927   0.392   5.811 -0.2576  0.0383 -0.1048
  888loPI   GL212850   6.730   0.410   6.089  0.1251 -0.0082  0.4694
  888loPI   C1A12851   7.089   0.129   6.256 -0.0960 -0.1599  0.5288
  888loPI   C2A12852   7.053  -0.140   6.707  0.0346  0.0114  0.0312
  888loPI   C3A12853   6.906  -0.357   7.045  0.0916  0.1911  0.3533
  888loPI   C4A12854   7.091  -0.547   7.432  0.0937  0.2341  0.0585
  888loPI   C5A12855   7.100  -0.408   7.879  0.5219  0.0151 -0.1103
  888loPI   C6A12856   6.992  -0.167   8.263 -0.2987  0.0801 -0.0054
  888loPI   C1B12857   6.623   0.168   6.458  0.0299  0.1759 -0.0771
  888loPI   C2B12858   6.636   0.049   6.834  0.2226  0.0879 -0.0923
  888loPI   C3B12859   6.445  -0.059   7.096  0.2367  0.0126  0.1901
  888loPI   C4B12860   6.318  -0.044   7.523 -0.0896  0.3466  0.1704
  889loPI    C112861   8.500   0.188   5.529  0.0183  0.0887  0.1844
  889loPI    C212862   8.655   0.453   5.273  0.3175 -0.2461  0.0112
  889loPI    C312863   8.299   0.287   5.197  0.3303 -0.2215 -0.1057
  889loPI   PO412864   8.715   0.106   5.743  0.1634  0.2379 -0.1334
  889loPI   GL112865   8.754  -0.099   6.093 -0.3515 -0.0513 -0.2475
  889loPI   GL212866   8.931  -0.085   6.139 -0.2610 -0.1641  0.0689
  889loPI   C1A12867   8.343  -0.194   6.238  0.0540  0.1397 -0.2011
  889loPI   C2A12868   8.055   0.100   6.447 -0.0249 -0.0556 -0.0453
  889loPI   C3A12869   7.979   0.209   6.894 -0.1800  0.0318 -0.1934
  889loPI   C4A12870   7.852   0.154   7.328 -0.2830 -0.1852  0.1604
  889loPI   C5A12871   7.820   0.057   7.828 -0.1877 -0.1294  0.2951
  889loPI   C6A12872   7.547   0.245   8.234 -0.2710  0.3557  0.3273
  889loPI   C1B12873   8.702  -0.279   6.594  0.1246 -0.0956  0.2493
  889loPI   C2B12874   8.507  -0.359   6.954 -0.1519  0.0670  0.0268
  889loPI   C3B12875   8.493  -0.382   7.497  0.2251  0.1154 -0.3248
  889loPI   C4B12876   8.333  -0.289   7.949  0.0406 -0.1794  0.1125
  890loPI    C112877  16.078   8.190   5.362 -0.1509 -0.0953  0.0627
  890loPI    C212878  16.356   8.059   5.106  0.0195  0.0961  0.1469
  890loPI    C312879  15.968   8.014   5.021  0.0752  0.0214 -0.0727
  890loPI   PO412880  16.160   8.121   5.578 -0.2557  0.1114 -0.1661
  890loPI   GL112881  16.458   7.892   5.823 -0.1158 -0.1983 -0.0444
  890loPI   GL212882  16.762   7.712   5.966 -0.2683 -0.2141 -0.0767
  890loPI   C1A12883  16.274   7.940   6.331 -0.0712 -0.0442  0.0006
  890loPI   C2A12884  16.314   7.810   6.720 -0.0650  0.0909  0.1942
  890loPI   C3A12885  16.314   7.677   7.179 -0.0412 -0.0170  0.3256
  890loPI   C4A12886  16.305   7.707   7.588 -0.0481  0.2133 -0.1976
  890loPI   C5A12887  16.381   7.908   7.971  0.2073  0.0291  0.3339
  890loPI   C6A12888  16.227   8.281   8.164 -0.0765 -0.0412 -0.0543
  890loPI   C1B12889  16.627   7.498   6.293  0.1054  0.1910 -0.3941
  890loPI   C2B12890  16.694   7.315   6.628 -0.0662  0.1430 -0.1215
  890loPI   C3B12891  16.685   7.453   6.953  0.4483 -0.0523 -0.1531
  890loPI   C4B12892  16.733   7.340   7.288 -0.0352 -0.4094 -0.1241
  891loPI    C112893   9.924   7.335   5.108  0.0184 -0.1699 -0.2079
  891loPI    C212894  10.170   7.612   5.258 -0.1591 -0.2444  0.2352
  891loPI    C312895  10.021   7.656   4.890  0.1180  0.0515  0.1538
  891loPI   PO412896   9.903   7.172   5.356 -0.2133 -0.4027  0.2440
  891loPI   GL112897   9.931   7.477   5.764  0.0569  0.0152 -0.0510
  891loPI   GL212898  10.218   7.334   5.678 -0.3524  0.2066  0.0538
  891loPI   C1A12899   9.867   7.405   6.065  0.0331 -0.1567 -0.1527
  891loPI   C2A12900   9.659   7.649   6.271  0.1562  0.1865  0.0477
  891loPI   C3A12901   9.501   7.740   6.750 -0.1990  0.4571  0.0170
  891loPI   C4A12902   9.517   7.765   7.162  0.0844  0.1186  0.4966
  891loPI   C5A12903   9.314   7.620   7.529 -0.4838 -0.1865 -0.0855
  891loPI   C6A12904   8.995   7.418   7.746  0.2072 -0.3951  0.1279
  891loPI   C1B12905  10.325   7.301   6.037 -0.1374  0.0951 -0.3346
  891loPI   C2B12906  10.592   6.930   6.173 -0.3204 -0.1625  0.0919
  891loPI   C3B12907  10.794   6.676   6.413 -0.2509  0.1702 -0.1171
  891loPI   C4B12908  11.028   6.321   6.581  0.0420 -0.1796  0.0382
  892loPI    C112909   1.663   7.435   5.314 -0.2367  0.0389 -0.0420
  892loPI    C212910   1.534   7.370   4.941  0.0347  0.2078 -0.1676
  892loPI    C312911   1.849   7.608   5.006  0.1340 -0.0042  0.1520
  892loPI   PO412912   1.782   7.254   5.528 -0.1801  0.1080  0.0996
  892loPI   GL112913   1.806   6.939   5.800  0.0915 -0.3214  0.0937
  892loPI   GL212914   2.034   6.749   5.854 -0.0561  0.0769  0.1995
  892loPI   C1A12915   1.722   7.032   6.114 -0.0814  0.2702 -0.1352
  892loPI   C2A12916   1.608   7.023   6.430  0.2978  0.1214  0.3673
  892loPI   C3A12917   1.548   6.879   6.817 -0.1391  0.3153 -0.1114
  892loPI   C4A12918   1.369   6.871   7.188  0.1783  0.0543 -0.0173
  892loPI   C5A12919   1.116   7.162   7.448  0.1351  0.0147 -0.1341
  892loPI   C6A12920   0.911   7.531   7.630 -0.1795  0.2006 -0.0328
  892loPI   C1B12921   1.974   6.599   6.268 -0.0690 -0.3148  0.0101
  892loPI   C2B12922   1.953   6.485   6.683 -0.1172  0.2459 -0.0160
  892loPI   C3B12923   1.771   6.471   7.111  0.1270  0.2946  0.2249
  892loPI   C4B12924   1.652   6.543   7.530  0.3103  0.1689 -0.0720
  893loPI    C112925   7.372   4.512   5.459 -0.0770 -0.1508 -0.0677
  893loPI    C212926   7.766   4.573   5.480 -0.1139  0.0909 -0.0526
  893loPI    C312927   7.620   4.291   5.237  0.0619  0.0660 -0.1308
  893loPI   PO412928   7.336   4.459   5.634 -0.2630 -0.2706 -0.3515
  893loPI   GL112929   7.079   4.624   5.954  0.0781 -0.3278 -0.3367
  893loPI   GL212930   7.085   4.846   6.146 -0.4237  0.1799  0.0815
  893loPI   C1A12931   6.907   4.375   6.337 -0.1524  0.0846 -0.1481
  893loPI   C2A12932   6.902   4.287   6.738 -0.5851  0.1419 -0.4052
  893loPI   C3A12933   6.967   4.178   7.235 -0.1386  0.1290  0.1847
  893loPI   C4A12934   7.271   3.967   7.516  0.2110 -0.1414  0.1492
  893loPI   C5A12935   7.614   3.782   7.800 -0.0456  0.0958  0.2278
  893loPI   C6A12936   7.476   3.534   8.144 -0.4680 -0.1196 -0.1251
  893loPI   C1B12937   7.056   4.973   6.545 -0.0307  0.1527 -0.0487
  893loPI   C2B12938   6.922   4.803   6.816  0.3021  0.2277 -0.1328
  893loPI   C3B12939   6.841   4.707   7.191  0.0269  0.0759 -0.0801
  893loPI   C4B12940   6.929   4.479   7.642  0.4313 -0.0176 -0.2505
  894loPI    C112941   5.904   7.813   4.997 -0.1951 -0.3275  0.2465
  894loPI    C212942   6.098   7.469   4.934  0.0745 -0.1309 -0.0278
  894loPI    C312943   5.810   7.586   4.682  0.0760 -0.0915 -0.0112
  894loPI   PO412944   5.813   7.794   5.299  0.2609  0.0847 -0.4523
  894loPI   GL112945   5.927   7.669   5.687  0.1792 -0.2379 -0.1332
  894loPI   GL212946   6.065   7.518   5.894 -0.1141  0.1064 -0.1103
  894loPI   C1A12947   5.885   8.032   6.092  0.0554 -0.0563  0.0144
  894loPI   C2A12948   5.885   8.057   6.546  0.1074 -0.2292 -0.1865
  894loPI   C3A12949   5.689   7.970   6.888 -0.3895 -0.0269  0.0213
  894loPI   C4A12950   5.714   8.175   7.307 -0.0693  0.0128  0.1766
  894loPI   C5A12951   5.705   8.039   7.744 -0.4746 -0.0069  0.3507
  894loPI   C6A12952   5.841   7.729   8.086 -0.0433  0.2225 -0.1931
  894loPI   C1B12953   6.015   7.563   6.251 -0.1805 -0.1091  0.1195
  894loPI   C2B12954   6.111   7.562   6.646 -0.1941 -0.0570 -0.0240
  894loPI   C3B12955   6.032   7.439   7.118 -0.0446  0.1212  0.0666
  894loPI   C4B12956   5.852   7.648   7.476  0.4083  0.0603 -0.4477
  895loPI    C112957   8.091  11.069   5.373 -0.1478 -0.2346 -0.1618
  895loPI    C212958   7.908  10.859   5.087 -0.0637 -0.4021 -0.0939
  895loPI    C312959   8.244  10.719   5.254  0.0726 -0.1453 -0.1475
  895loPI   PO412960   7.954  11.115   5.569 -0.4221 -0.0506 -0.0007
  895loPI   GL112961   7.868  11.069   5.866 -0.3609  0.0021 -0.2395
  895loPI   GL212962   7.864  11.373   6.001 -0.0436 -0.0418 -0.1203
  895loPI   C1A12963   8.103  10.873   6.323 -0.0275 -0.2365  0.1165
  895loPI   C2A12964   8.237  10.951   6.723 -0.0103  0.0220  0.1057
  895loPI   C3A12965   8.111  10.899   7.081 -0.1270 -0.2824 -0.3467
  895loPI   C4A12966   7.930  11.001   7.511 -0.1065  0.2214 -0.1432
  895loPI   C5A12967   8.064  11.340   7.818  0.1852 -0.1874 -0.1541
  895loPI   C6A12968   8.445  11.586   7.837 -0.0936 -0.0712 -0.0312
  895loPI   C1B12969   7.851  11.325   6.404  0.0070  0.1073  0.1361
  895loPI   C2B12970   7.868  11.347   6.894  0.2049  0.0932  0.4385
  895loPI   C3B12971   7.908  11.596   7.175  0.0553  0.0527 -0.2235
  895loPI   C4B12972   8.104  11.880   7.562 -0.1124  0.2800 -0.1855
  896loPI    C112973  13.403  14.184   5.563  0.1301  0.3252 -0.0290
  896loPI    C212974  13.206  13.956   5.300  0.1275 -0.0845  0.3160
  896loPI    C312975  13.387  14.291   5.179 -0.1710 -0.0782 -0.1368
  896loPI   PO412976  13.207  14.228   5.762  0.6254 -0.2187 -0.0097
  896loPI   GL112977  13.188  14.292   6.270 -0.0416  0.2240 -0.0115
  896loPI   GL212978  13.404  14.027   6.477 -0.0335  0.2134  0.0765
  896loPI   C1A12979  13.565  14.478   6.531  0.0454 -0.1980  0.3978
  896loPI   C2A12980  13.627  14.307   6.976  0.1240 -0.1326 -0.1146
  896loPI   C3A12981  13.285  14.412   7.307  0.1498  0.2752 -0.4520
  896loPI   C4A12982  13.338  14.419   7.704 -0.1244  0.0501 -0.4415
  896loPI   C5A12983  13.455  14.246   8.080 -0.0346 -0.0792 -0.2711
  896loPI   C6A12984  13.663  14.043   8.262  0.0202  0.0396  0.0899
  896loPI   C1B12985  13.874  13.936   6.611  0.4210 -0.1386  0.1702
  896loPI   C2B12986  13.903  13.917   7.043  0.2100 -0.2262 -0.1072
  896loPI   C3B12987  14.014  14.195   7.304 -0.1658 -0.0861  0.2592
  896loPI   C4B12988  14.341  14.119   7.609  0.0176 -0.1394 -0.1730
  897loPI    C112989  15.031  11.292   5.416  0.0595 -0.0694  0.3296
  897loPI    C212990  14.829  11.029   5.193 -0.1618  0.1360  0.2839
  897loPI    C312991  14.887  11.401   5.059 -0.0986  0.1943  0.4711
  897loPI   PO412992  14.914  11.173   5.673 -0.0071  0.4889  0.1373
  897loPI   GL112993  14.887  11.242   6.056  0.1175  0.1172  0.0206
  897loPI   GL212994  15.258  11.293   6.072 -0.3309  0.2021  0.0617
  897loPI   C1A12995  14.876  11.396   6.454 -0.1222  0.3572  0.1227
  897loPI   C2A12996  14.932  11.436   6.885  0.1970  0.0349  0.1803
  897loPI   C3A12997  15.073  11.296   7.203 -0.2750  0.2209  0.2405
  897loPI   C4A12998  15.239  11.201   7.503 -0.1296  0.2908  0.1974
  897loPI   C5A12999  15.388  10.928   7.881  0.0221  0.0144  0.0468
  897loPI   C6A13000  15.838  10.611   7.946 -0.0592 -0.1399  0.1657
  897loPI   C1B13001  15.364  11.270   6.477 -0.1330  0.1862  0.4405
  897loPI   C2B13002  15.644  11.389   6.776 -0.1319 -0.0287 -0.3100
  897loPI   C3B13003  15.800  11.364   7.238 -0.2046  0.0930 -0.0796
  897loPI   C4B13004  15.620  11.545   7.605  0.1888  0.1080 -0.1691
  898loPI    C113005  12.184  11.039   5.216  0.2395 -0.0689  0.0793
  898loPI    C213006  12.447  10.738   5.198  0.1959 -0.0925 -0.2051
  898loPI    C313007  12.455  11.027   4.923  0.0380  0.0020 -0.1123
  898loPI   PO413008  12.173  11.045   5.445  0.1250  0.0705  0.0902
  898loPI   GL113009  12.216  10.937   5.999 -0.2230  0.1578  0.2013
  898loPI   GL213010  12.178  11.220   6.132  0.3264 -0.2535 -0.2308
  898loPI   C1A13011  11.983  10.726   6.346  0.1830  0.0585  0.2604
  898loPI   C2A13012  11.875  10.705   6.759  0.0428 -0.1838 -0.0938
  898loPI   C3A13013  12.020  10.774   7.169  0.0878  0.3580 -0.4803
  898loPI   C4A13014  12.233  10.871   7.503 -0.1628  0.1470  0.1314
  898loPI   C5A13015  11.890  10.703   7.902 -0.1356 -0.1970  0.1993
  898loPI   C6A13016  11.820  10.861   8.197  0.0001  0.0095 -0.0177
  898loPI   C1B13017  12.009  11.235   6.491  0.0725 -0.0182  0.0043
  898loPI   C2B13018  11.878  11.258   6.985 -0.2287  0.1939  0.0960
  898loPI   C3B13019  11.815  11.205   7.343 -0.2384  0.0298 -0.1233
  898loPI   C4B13020  11.586  10.982   7.599  0.1239  0.2117 -0.0313
  899loPI    C113021  14.795   3.912   5.313  0.0880  0.1523  0.1719
  899loPI    C213022  14.894   3.718   4.978 -0.5548  0.0237  0.0420
  899loPI    C313023  15.137   3.999   5.125  0.0308 -0.3430 -0.1839
  899loPI   PO413024  14.620   3.714   5.447  0.2842 -0.1427  0.0646
  899loPI   GL113025  14.549   3.638   5.833 -0.0878 -0.2875 -0.0695
  899loPI   GL213026  14.237   3.519   5.831  0.1106  0.0686  0.1270
  899loPI   C1A13027  14.591   3.603   6.294 -0.0099  0.0223  0.0796
  899loPI   C2A13028  14.585   3.466   6.696 -0.3076  0.1234 -0.1098
  899loPI   C3A13029  14.823   3.348   7.133  0.3718  0.2031  0.1096
  899loPI   C4A13030  14.671   3.365   7.630  0.0717 -0.0236  0.0154
  899loPI   C5A13031  14.624   2.916   7.768  0.2847  0.0991 -0.1070
  899loPI   C6A13032  14.920   2.710   8.032  0.2350 -0.4267  0.2394
  899loPI   C1B13033  14.073   3.851   6.016  0.1657  0.1106  0.2401
  899loPI   C2B13034  13.829   4.204   6.296 -0.1269 -0.1241 -0.3839
  899loPI   C3B13035  13.542   4.418   6.559 -0.4256  0.2079 -0.0983
  899loPI   C4B13036  13.524   4.426   7.003  0.4873 -0.0899 -0.0262
  900loPI    C113037  10.284  14.512   5.711 -0.1169 -0.1298 -0.1430
  900loPI    C213038  10.477  14.669   5.398  0.2145 -0.0728  0.0836
  900loPI    C313039  10.564  14.298   5.521 -0.0313 -0.1567  0.0114
  900loPI   PO413040  10.053  14.672   5.722  0.1249  0.1649 -0.1236
  900loPI   GL113041   9.970  14.946   6.051  0.2418  0.2447 -0.2644
  900loPI   GL213042   9.647  14.849   6.225  0.0188 -0.0285  0.1865
  900loPI   C1A13043  10.094  14.782   6.462 -0.0658  0.2789 -0.0405
  900loPI   C2A13044  10.209  14.584   6.891  0.1898  0.0327  0.1534
  900loPI   C3A13045  10.088  14.494   7.337 -0.1246  0.0454  0.0825
  900loPI   C4A13046   9.994  14.381   7.754 -0.0859 -0.1291 -0.0967
  900loPI   C5A13047   9.857  14.533   8.166  0.1174  0.0283 -0.5147
  900loPI   C6A13048   9.907  14.362   8.609  0.0621  0.2780 -0.1741
  900loPI   C1B13049   9.640  14.854   6.665 -0.1600 -0.3422 -0.0268
  900loPI   C2B13050   9.684  14.727   7.168  0.2648  0.0157  0.1864
  900loPI   C3B13051   9.739  14.781   7.548  0.0181  0.2638 -0.2927
  900loPI   C4B13052   9.472  14.769   7.878  0.0405  0.0633  0.3554
  901loPI    C113053  10.550   3.907   5.114 -0.1532  0.0890 -0.0917
  901loPI    C213054  10.811   4.159   4.945 -0.0665  0.0446 -0.0250
  901loPI    C313055  10.418   4.224   4.908 -0.0462  0.1158 -0.1200
  901loPI   PO413056  10.677   3.875   5.407 -0.0835 -0.3282 -0.0043
  901loPI   GL113057  10.495   3.845   5.887 -0.0088 -0.0098 -0.0519
  901loPI   GL213058  10.650   4.106   5.829  0.3266  0.0873 -0.1816
  901loPI   C1A13059  10.559   4.054   6.339  0.2543  0.0867  0.3476
  901loPI   C2A13060  10.679   4.096   6.718  0.2298  0.0097 -0.1740
  901loPI   C3A13061  10.522   3.883   6.987 -0.0063 -0.0492  0.3022
  901loPI   C4A13062  10.568   3.780   7.337 -0.3033  0.2135 -0.0434
  901loPI   C5A13063  10.327   3.630   7.785  0.1945 -0.0388 -0.0782
  901loPI   C6A13064  10.027   3.454   8.056  0.0392 -0.0346  0.1882
  901loPI   C1B13065  10.340   4.383   6.053  0.0715 -0.4103 -0.1699
  901loPI   C2B13066  10.536   4.542   6.535 -0.3067  0.1631 -0.0171
  901loPI   C3B13067  10.572   4.502   6.946 -0.0795  0.0401  0.1659
  901loPI   C4B13068  10.417   4.329   7.187 -0.4659  0.0357 -0.1336
  902loPI    C113069   6.401  15.696   5.116  0.3945 -0.2305 -0.2471
  902loPI    C213070   6.129  15.980   5.043  0.1129 -0.3887  0.1472
  902loPI    C313071   6.211  15.705   4.764  0.1265 -0.1350 -0.1032
  902loPI   PO413072   6.537  15.820   5.216  0.0039 -0.1089  0.0143
  902loPI   GL113073   6.319  16.022   5.538  0.0109 -0.0603  0.3099
  902loPI   GL213074   6.087  15.822   5.513 -0.2314  0.0581 -0.0920
  902loPI   C1A13075   6.488  16.200   5.970 -0.1577 -0.1644  0.1372
  902loPI   C2A13076   6.239  16.276   6.347  0.1348 -0.2184  0.2632
  902loPI   C3A13077   5.955  16.391   6.623  0.0830 -0.2536  0.1292
  902loPI   C4A13078   5.821  16.419   7.032 -0.1130 -0.2991  0.0001
  902loPI   C5A13079   5.758  16.221   7.374  0.1046 -0.3921 -0.0566
  902loPI   C6A13080   5.426  16.099   7.715 -0.0624  0.0718 -0.0642
  902loPI   C1B13081   6.165  15.788   6.011 -0.0990  0.0722 -0.0820
  902loPI   C2B13082   6.022  15.692   6.510  0.2050 -0.0048 -0.0844
  902loPI   C3B13083   6.244  15.939   6.800 -0.2128 -0.0755  0.2054
  902loPI   C4B13084   6.154  16.076   7.193  0.0129 -0.2699  0.0418
  903loPI    C113085   3.207   8.392   5.369 -0.0262 -0.1467 -0.3555
  903loPI    C213086   3.514   8.523   5.149  0.1406  0.1186  0.0249
  903loPI    C313087   3.225   8.776   5.260  0.0259 -0.0269  0.0612
  903loPI   PO413088   3.353   8.247   5.617  0.1436  0.0489 -0.0195
  903loPI   GL113089   3.302   8.408   6.054 -0.0742 -0.0567  0.0260
  903loPI   GL213090   2.957   8.395   6.138  0.1223  0.0068  0.2166
  903loPI   C1A13091   3.342   8.226   6.419  0.2068  0.0334  0.0053
  903loPI   C2A13092   3.516   8.167   6.825  0.0240 -0.0897 -0.0878
  903loPI   C3A13093   3.333   8.003   7.240  0.1269  0.2128 -0.0587
  903loPI   C4A13094   3.445   7.816   7.588 -0.0199  0.2119 -0.2967
  903loPI   C5A13095   3.626   7.419   7.568 -0.0986  0.1884  0.3032
  903loPI   C6A13096   4.043   7.095   7.475 -0.3742 -0.2997 -0.0219
  903loPI   C1B13097   2.874   8.337   6.558 -0.2547  0.0970  0.0286
  903loPI   C2B13098   2.956   8.227   7.012 -0.1479 -0.0674  0.0270
  903loPI   C3B13099   2.801   7.935   7.204 -0.0434 -0.0347 -0.3369
  903loPI   C4B13100   2.612   7.601   7.392 -0.0305 -0.0977 -0.0729
  904loPI    C113101  15.376   8.669   5.301 -0.0994 -0.2310  0.0259
  904loPI    C213102  15.013   8.749   5.152  0.1053  0.2460 -0.2401
  904loPI    C313103  15.304   8.620   4.910  0.1020 -0.2027 -0.0156
  904loPI   PO413104  15.323   8.589   5.551  0.1101  0.1454  0.0930
  904loPI   GL113105  15.404   8.664   5.959 -0.0853  0.4628 -0.3668
  904loPI   GL213106  15.761   8.756   6.120 -0.0587 -0.1244 -0.0148
  904loPI   C1A13107  15.067   8.546   6.317  0.1047 -0.1941  0.2420
  904loPI   C2A13108  14.914   8.780   6.613 -0.1281 -0.1949  0.1873
  904loPI   C3A13109  14.588   8.712   6.939 -0.3655  0.3247  0.0478
  904loPI   C4A13110  14.483   8.644   7.468 -0.3398 -0.0935 -0.2045
  904loPI   C5A13111  14.210   8.821   7.720  0.1273  0.0268  0.0768
  904loPI   C6A13112  14.020   8.660   8.105 -0.0540 -0.0833 -0.0291
  904loPI   C1B13113  15.531   8.546   6.502  0.1953 -0.0802  0.0267
  904loPI   C2B13114  15.398   8.206   6.749  0.1944  0.0551 -0.0511
  904loPI   C3B13115  15.192   8.021   7.138  0.0037  0.2103  0.1536
  904loPI   C4B13116  15.032   7.861   7.532  0.1667 -0.0004  0.1778
  905loPI    C113117   5.803  15.665   5.114  0.1009  0.1779 -0.2416
  905loPI    C213118   5.492  15.511   4.915  0.0097 -0.1196  0.1209
  905loPI    C313119   5.699  15.814   4.758 -0.2685 -0.1236 -0.2667
  905loPI   PO413120   5.902  15.425   5.233  0.1008 -0.3156 -0.1382
  905loPI   GL113121   5.704  15.377   5.620 -0.0538 -0.3907  0.1322
  905loPI   GL213122   5.593  15.654   5.711 -0.1421 -0.1608 -0.0688
  905loPI   C1A13123   5.457  15.187   5.813  0.0770 -0.0318 -0.1745
  905loPI   C2A13124   5.492  15.088   6.215 -0.1974  0.0801 -0.2293
  905loPI   C3A13125   5.938  14.872   6.413 -0.3896  0.1071 -0.0346
  905loPI   C4A13126   6.110  14.964   6.716 -0.1266  0.0381  0.0773
  905loPI   C5A13127   6.070  15.109   7.093 -0.0643  0.1802  0.1100
  905loPI   C6A13128   5.787  15.304   7.467  0.0667  0.2381 -0.0312
  905loPI   C1B13129   5.710  15.562   6.160  0.0700 -0.0626  0.0118
  905loPI   C2B13130   5.783  15.285   6.575  0.1365 -0.1400  0.1415
  905loPI   C3B13131   5.619  15.033   6.855 -0.0319  0.0832  0.1637
  905loPI   C4B13132   5.779  14.662   6.998  0.0047  0.1201  0.0799
  906loPI    C113133  11.014  17.491   5.912  0.0189 -0.0346  0.1627
  906loPI    C213134  11.087  17.123   5.772  0.1694  0.0045  0.1367
  906loPI    C313135  10.747  17.311   5.675  0.1724 -0.0574  0.0057
  906loPI   PO413136  11.034  17.466   6.141 -0.4020 -0.0973 -0.2755
  906loPI   GL113137  10.864  17.608   6.520 -0.0842 -0.1584 -0.3263
  906loPI   GL213138  11.157  17.503   6.650 -0.0061  0.1050 -0.2107
  906loPI   C1A13139  10.797  17.283   6.954 -0.4206 -0.1484  0.1896
  906loPI   C2A13140  10.514  17.162   7.268 -0.2582  0.1245  0.4207
  906loPI   C3A13141  10.448  16.942   7.596  0.0176 -0.1448 -0.1914
  906loPI   C4A13142  10.342  16.968   8.087  0.1079  0.4316  0.4314
  906loPI   C5A13143  10.150  16.769   8.426 -0.0254  0.1706 -0.1094
  906loPI   C6A13144  10.218  16.794   8.874  0.1930 -0.1054 -0.1291
  906loPI   C1B13145  11.097  17.623   7.083 -0.2002 -0.1032  0.3586
  906loPI   C2B13146  11.134  17.654   7.436  0.0355 -0.0933 -0.0560
  906loPI   C3B13147  11.304  17.783   7.811  0.0661 -0.0263 -0.0423
  906loPI   C4B13148  11.504  17.762   8.286  0.3419 -0.3720 -0.0010
  907loPI    C113149  12.043  12.390   5.680  0.2217  0.1289 -0.0564
  907loPI    C213150  11.954  12.749   5.527 -0.3745  0.0305  0.0358
  907loPI    C313151  12.027  12.440   5.283  0.2740  0.2317 -0.0460
  907loPI   PO413152  12.084  12.468   5.960  0.1805  0.0373 -0.2021
  907loPI   GL113153  11.807  12.542   6.312 -0.1739  0.2022  0.0572
  907loPI   GL213154  11.534  12.765   6.328 -0.1272 -0.1646 -0.1913
  907loPI   C1A13155  11.935  12.607   6.707  0.1075 -0.1296  0.2309
  907loPI   C2A13156  11.754  12.760   7.048 -0.1557 -0.3376  0.0682
  907loPI   C3A13157  11.673  13.171   7.345  0.0156  0.0002 -0.1477
  907loPI   C4A13158  11.723  13.060   7.848 -0.5072 -0.1903 -0.1274
  907loPI   C5A13159  11.664  12.824   8.177 -0.0503 -0.0169  0.3869
  907loPI   C6A13160  11.392  12.586   8.465  0.2731 -0.0086  0.1059
  907loPI   C1B13161  11.438  12.504   6.738  0.1147 -0.1676 -0.0765
  907loPI   C2B13162  11.240  12.450   7.118 -0.0020  0.0243  0.0689
  907loPI   C3B13163  11.155  12.443   7.563 -0.2459 -0.0916 -0.0775
  907loPI   C4B13164  11.192  12.376   7.931 -0.4595 -0.2073  0.1206
  908loPI    C113165  10.726   9.281   5.001  0.0051  0.0681  0.0513
  908loPI    C213166  10.331   9.316   5.048 -0.0321 -0.0918 -0.1330
  908loPI    C313167  10.482   9.005   4.847  0.1921 -0.0710  0.0006
  908loPI   PO413168  10.736   9.418   5.277  0.1212 -0.2674 -0.0919
  908loPI   GL113169  10.783   9.587   5.782 -0.3439 -0.0220  0.2320
  908loPI   GL213170  11.125   9.808   5.821 -0.0316  0.4437  0.2145
  908loPI   C1A13171  10.442   9.415   6.124  0.0549  0.0832  0.2548
  908loPI   C2A13172  10.411   9.316   6.668 -0.0345 -0.0346  0.1717
  908loPI   C3A13173  10.494   9.471   7.074  0.0712 -0.0929  0.2295
  908loPI   C4A13174  10.637   9.591   7.502 -0.1591  0.3123 -0.0703
  908loPI   C5A13175  10.678   9.419   7.950  0.1597  0.0255  0.2326
  908loPI   C6A13176  10.590   9.049   7.990 -0.1664  0.0885 -0.0104
  908loPI   C1B13177  10.984   9.731   6.226  0.0047 -0.3229 -0.2040
  908loPI   C2B13178  11.336   9.880   6.529 -0.2266 -0.0421  0.2762
  908loPI   C3B13179  11.351   9.889   6.981 -0.4967  0.0871  0.0679
  908loPI   C4B13180  11.306   9.780   7.454 -0.2545  0.0103 -0.3708
  909loPI    C113181  16.802   0.439   5.410 -0.3045 -0.0808 -0.0451
  909loPI    C213182  16.970   0.245   5.104  0.1058 -0.0698  0.1649
  909loPI    C313183  16.793   0.598   5.044  0.0358 -0.1450 -0.0848
  909loPI   PO413184  16.699   0.232   5.587 -0.0592  0.6318  0.0519
  909loPI   GL113185  16.782   0.095   6.021  0.1866 -0.2154  0.0092
  909loPI   GL213186  16.950   0.328   6.055  0.1701  0.0728  0.0019
  909loPI   C1A13187  16.715   0.028   6.487  0.0933  0.2376  0.1501
  909loPI   C2A13188  16.700   0.228   6.870 -0.1986 -0.2623 -0.0605
  909loPI   C3A13189  16.894   0.208   7.185  0.1398  0.1932 -0.0124
  909loPI   C4A13190  16.798   0.168   7.558  0.0000  0.0374 -0.1301
  909loPI   C5A13191  16.995   0.279   7.846 -0.0913  0.0324  0.1907
  909loPI   C6A13192  17.266   0.203   8.252 -0.3470 -0.1873  0.1079
  909loPI   C1B13193  17.036   0.414   6.426 -0.0169  0.0840  0.1877
  909loPI   C2B13194  17.133   0.279   6.694  0.1564  0.1961 -0.3720
  909loPI   C3B13195  17.282  -0.020   7.053  0.2232 -0.1159  0.1319
  909loPI   C4B13196  17.165  -0.130   7.494 -0.1120  0.1188 -0.2114
  910loPI    C113197  15.856  16.111   5.474  0.0304 -0.1642  0.0397
  910loPI    C213198  16.007  16.244   5.128 -0.0494 -0.3937 -0.0859
  910loPI    C313199  15.854  15.875   5.151 -0.3254 -0.2708  0.1145
  910loPI   PO413200  15.945  15.997   5.716  0.1636 -0.2678 -0.3593
  910loPI   GL113201  15.890  15.846   6.103 -0.0892 -0.1411  0.0501
  910loPI   GL213202  16.164  15.651   6.293  0.0430 -0.1784  0.0758
  910loPI   C1A13203  15.962  16.063   6.523  0.2037  0.2191  0.0360
  910loPI   C2A13204  16.027  16.210   6.983 -0.0412  0.0233  0.4429
  910loPI   C3A13205  16.220  16.281   7.392 -0.0988 -0.1960  0.0118
  910loPI   C4A13206  16.291  16.325   7.928 -0.0681 -0.1055 -0.3166
  910loPI   C5A13207  16.113  16.709   8.174  0.1054 -0.6165  0.0061
  910loPI   C6A13208  15.950  16.972   8.462 -0.1104 -0.2771  0.1604
  910loPI   C1B13209  16.231  15.678   6.731 -0.2174 -0.1082  0.0494
  910loPI   C2B13210  16.213  15.787   7.211 -0.0688  0.3980  0.0407
  910loPI   C3B13211  16.290  15.840   7.630  0.2103 -0.2471  0.0556
  910loPI   C4B13212  16.025  15.880   8.039  0.0360 -0.1612 -0.0118
  911loPI    C113213  17.433   3.856   5.251 -0.0065  0.1812  0.1785
  911loPI    C213214  17.153   4.120   5.140 -0.0139  0.1330  0.0808
  911loPI    C313215  17.449   4.233   5.384 -0.1015  0.1919  0.1609
  911loPI   PO413216  17.298   3.610   5.380  0.0666  0.1030  0.1532
  911loPI   GL113217  17.168   3.358   5.717 -0.0079  0.1782  0.2183
  911loPI   GL213218  17.058   3.627   5.826 -0.1794 -0.0168 -0.1136
  911loPI   C1A13219  17.180   3.125   6.118  0.0385 -0.4662  0.2372
  911loPI   C2A13220  17.216   2.935   6.452  0.1143  0.1118 -0.1941
  911loPI   C3A13221  17.084   2.892   6.852  0.3311  0.0349 -0.1355
  911loPI   C4A13222  17.094   3.034   7.298  0.2143 -0.3086  0.2523
  911loPI   C5A13223  17.390   2.979   7.703  0.2156  0.1153  0.2205
  911loPI   C6A13224  17.695   2.696   7.861 -0.0720  0.1184 -0.0209
  911loPI   C1B13225  17.152   3.581   6.247 -0.1935  0.0205  0.3745
  911loPI   C2B13226  16.990   3.373   6.518 -0.0178  0.2240  0.0512
  911loPI   C3B13227  16.865   3.425   6.960  0.0873 -0.0013  0.2239
  911loPI   C4B13228  16.739   3.608   7.374  0.0195 -0.0205  0.1897
  912loPI    C113229   3.459   9.179   5.263 -0.0286  0.0141 -0.0682
  912loPI    C213230   3.632   9.500   5.100  0.1034  0.1259  0.2817
  912loPI    C313231   3.251   9.517   5.218  0.1025  0.1450  0.2759
  912loPI   PO413232   3.567   9.086   5.490  0.5255  0.0035 -0.4757
  912loPI   GL113233   3.842   9.096   5.872 -0.1307  0.1161  0.3621
  912loPI   GL213234   3.779   8.819   6.089  0.0032  0.0712 -0.1279
  912loPI   C1A13235   4.235   9.257   6.040 -0.1752 -0.2437 -0.0402
  912loPI   C2A13236   4.345   9.387   6.498  0.3951 -0.1607 -0.2522
  912loPI   C3A13237   4.462   9.556   6.966  0.1835 -0.0010  0.2492
  912loPI   C4A13238   4.572   9.676   7.458 -0.0009  0.0378 -0.3923
  912loPI   C5A13239   4.629  10.089   7.727  0.0839 -0.1549 -0.0929
  912loPI   C6A13240   4.992  10.321   7.910 -0.4617 -0.0138  0.1123
  912loPI   C1B13241   3.984   9.024   6.454 -0.0460  0.0892 -0.1579
  912loPI   C2B13242   4.171   8.955   6.802 -0.1581  0.0533 -0.3702
  912loPI   C3B13243   4.360   9.025   7.140 -0.0272  0.2250 -0.0400
  912loPI   C4B13244   4.504   9.019   7.530 -0.0044  0.0761 -0.4068
  913loPI    C113245   3.083   6.244   4.945  0.0661  0.2122 -0.1133
  913loPI    C213246   3.450   6.209   5.100  0.0275  0.1679 -0.0313
  913loPI    C313247   3.380   6.096   4.723  0.0765  0.0851 -0.0158
  913loPI   PO413248   2.956   6.404   5.129 -0.1193 -0.1596 -0.0030
  913loPI   GL113249   3.090   6.498   5.550  0.1813 -0.1045  0.1940
  913loPI   GL213250   3.408   6.326   5.574 -0.2796  0.2139 -0.3557
  913loPI   C1A13251   2.945   6.486   5.947 -0.2990 -0.1809 -0.2487
  913loPI   C2A13252   2.925   6.539   6.387 -0.1987 -0.0014  0.1772
  913loPI   C3A13253   2.973   6.617   6.814 -0.1276 -0.2680 -0.1575
  913loPI   C4A13254   2.831   6.440   7.217  0.0178 -0.0447 -0.5306
  913loPI   C5A13255   2.521   6.153   7.404 -0.1681 -0.0005 -0.2597
  913loPI   C6A13256   2.559   6.048   7.803 -0.1937  0.0909  0.2958
  913loPI   C1B13257   3.395   6.168   5.894 -0.4154 -0.1556  0.1008
  913loPI   C2B13258   3.322   6.274   6.347  0.2121 -0.0961 -0.0608
  913loPI   C3B13259   3.294   6.257   6.769 -0.1949  0.0643 -0.1947
  913loPI   C4B13260   3.369   6.503   7.172  0.4141 -0.0828  0.3305
  914loPI    C113261  14.731   0.914   5.247  0.3878 -0.3048 -0.2106
  914loPI    C213262  14.768   1.227   5.001  0.1030 -0.1850 -0.1051
  914loPI    C313263  14.569   0.901   4.882  0.0342 -0.1584 -0.0638
  914loPI   PO413264  14.972   0.912   5.460 -0.3252 -0.0656 -0.2993
  914loPI   GL113265  15.020   0.696   5.934  0.1011  0.0718 -0.2015
  914loPI   GL213266  15.282   0.857   6.043  0.0656 -0.0555  0.0133
  914loPI   C1A13267  14.826   0.891   6.386 -0.2892  0.0963  0.2760
  914loPI   C2A13268  14.826   0.960   6.820  0.3060 -0.0114  0.0354
  914loPI   C3A13269  14.986   0.962   7.241 -0.2782  0.0455  0.2584
  914loPI   C4A13270  15.096   0.937   7.670 -0.1082  0.0808  0.3117
  914loPI   C5A13271  15.254   0.679   8.080 -0.3151 -0.2643  0.0329
  914loPI   C6A13272  14.986   0.375   8.356 -0.1066  0.0090 -0.0127
  914loPI   C1B13273  15.089   1.287   6.303 -0.2399 -0.2607 -0.0419
  914loPI   C2B13274  15.170   1.402   6.760  0.0112 -0.3783  0.0058
  914loPI   C3B13275  15.029   1.496   7.113  0.2025  0.0881 -0.1184
  914loPI   C4B13276  14.964   1.409   7.532  0.0918 -0.0156 -0.1122
  915loPI    C113277   3.239   7.025   4.799 -0.1235  0.1028  0.0964
  915loPI    C213278   3.337   6.637   4.777 -0.0188  0.1371 -0.0620
  915loPI    C313279   3.196   6.826   4.454 -0.0186  0.2447  0.0005
  915loPI   PO413280   3.053   7.093   5.018 -0.0307  0.4296  0.2441
  915loPI   GL113281   2.811   6.909   5.327 -0.0628  0.1875 -0.0605
  915loPI   GL213282   2.551   6.723   5.283 -0.2009 -0.0204  0.0068
  915loPI   C1A13283   2.865   7.000   5.691 -0.0001 -0.2835  0.0573
  915loPI   C2A13284   2.771   7.138   6.165  0.2130  0.0694  0.0381
  915loPI   C3A13285   2.702   6.983   6.604 -0.1581 -0.1187  0.1204
  915loPI   C4A13286   2.510   7.002   7.010 -0.3859 -0.0449  0.1040
  915loPI   C5A13287   2.695   7.090   7.392  0.2600 -0.1530 -0.3666
  915loPI   C6A13288   2.694   7.118   7.829 -0.0968 -0.0342 -0.1727
  915loPI   C1B13289   2.508   6.623   5.705 -0.1833 -0.2502 -0.2487
  915loPI   C2B13290   2.544   6.725   6.098 -0.0454 -0.2205  0.0344
  915loPI   C3B13291   2.404   6.629   6.481 -0.2419 -0.0352 -0.1265
  915loPI   C4B13292   2.407   6.565   6.897  0.0599  0.0791 -0.1484
  916loPI    C113293   6.757   3.945   5.046  0.0279  0.0511 -0.1743
  916loPI    C213294   6.486   3.652   5.015 -0.1363  0.1635  0.1493
  916loPI    C313295   6.681   3.780   4.690 -0.4214  0.0347 -0.0769
  916loPI   PO413296   6.608   4.103   5.319  0.0517 -0.0867 -0.3566
  916loPI   GL113297   6.396   4.084   5.745  0.0823 -0.2907 -0.1517
  916loPI   GL213298   6.788   4.194   5.879  0.0691 -0.0482  0.0092
  916loPI   C1A13299   6.371   4.259   6.126 -0.3398  0.2155  0.0233
  916loPI   C2A13300   6.375   4.417   6.554  0.0869  0.0429  0.1437
  916loPI   C3A13301   6.462   4.517   6.953  0.1092  0.0789  0.2261
  916loPI   C4A13302   6.533   4.322   7.316  0.0559  0.0127 -0.0513
  916loPI   C5A13303   6.297   4.153   7.642  0.2402  0.0311 -0.0709
  916loPI   C6A13304   6.468   3.776   7.791 -0.0163 -0.3660 -0.1534
  916loPI   C1B13305   7.144   4.001   6.078  0.0319 -0.3504 -0.0849
  916loPI   C2B13306   7.358   3.958   6.490  0.0979  0.2582  0.0646
  916loPI   C3B13307   7.430   4.017   6.996  0.1652  0.0346 -0.0711
  916loPI   C4B13308   7.692   3.852   7.318 -0.1752 -0.1097 -0.0456
  917loPI    C113309   3.548   9.627   5.636 -0.0038 -0.2981  0.1624
  917loPI    C213310   3.684   9.990   5.733 -0.1985 -0.2442  0.2388
  917loPI    C313311   3.489   9.935   5.388 -0.0531 -0.3050  0.1654
  917loPI   PO413312   3.560   9.474   5.831 -0.0523 -0.0064  0.2118
  917loPI   GL113313   3.879   9.622   6.092 -0.1615 -0.0355  0.1268
  917loPI   GL213314   3.791   9.397   6.297  0.7041  0.2341 -0.1311
  917loPI   C1A13315   4.128   9.831   6.465  0.3023 -0.0691 -0.1706
  917loPI   C2A13316   4.149   9.899   6.754 -0.0480  0.0308  0.0522
  917loPI   C3A13317   4.081   9.815   7.223 -0.2096 -0.2804  0.1216
  917loPI   C4A13318   4.094  10.052   7.571 -0.2734 -0.2318  0.1754
  917loPI   C5A13319   3.951  10.203   7.993  0.0558  0.1027 -0.0007
  917loPI   C6A13320   3.722  10.442   8.137 -0.5122 -0.1840 -0.0323
  917loPI   C1B13321   3.898   9.375   6.806 -0.0589  0.0278  0.1679
  917loPI   C2B13322   4.048   9.357   7.140  0.1192 -0.1793  0.0171
  917loPI   C3B13323   4.122   9.463   7.567 -0.1856 -0.1475  0.0510
  917loPI   C4B13324   4.343   9.688   7.924 -0.1482  0.1717  0.0110
  918loPI    C113325   7.796  13.781   5.598 -0.0865 -0.0016 -0.1698
  918loPI    C213326   7.901  13.933   5.243 -0.0653 -0.3340 -0.3105
  918loPI    C313327   8.129  13.654   5.416  0.0475 -0.0118  0.0781
  918loPI   PO413328   7.585  13.900   5.682  0.0318 -0.2207 -0.2570
  918loPI   GL113329   7.333  13.905   5.993 -0.1519  0.0338 -0.0443
  918loPI   GL213330   7.395  13.685   6.148  0.2013  0.2443  0.1803
  918loPI   C1A13331   7.106  14.110   6.349 -0.0554  0.0086  0.0815
  918loPI   C2A13332   6.996  14.081   6.732  0.2578 -0.2799 -0.3491
  918loPI   C3A13333   6.804  13.993   7.097  0.2448  0.0051  0.0567
  918loPI   C4A13334   6.711  14.112   7.614  0.1807 -0.0701 -0.1230
  918loPI   C5A13335   6.629  14.532   7.866  0.4036  0.1683 -0.6441
  918loPI   C6A13336   6.537  14.889   8.005 -0.2005  0.0866 -0.2888
  918loPI   C1B13337   7.330  13.672   6.518 -0.1827 -0.5150  0.0142
  918loPI   C2B13338   7.319  13.604   6.950  0.0609 -0.0943 -0.0831
  918loPI   C3B13339   7.102  13.708   7.393  0.2820  0.0520  0.1292
  918loPI   C4B13340   6.829  13.656   7.777 -0.0995 -0.0331 -0.2102
  919loPI    C113341  13.026  16.365   5.775  0.0568 -0.0301  0.1604
  919loPI    C213342  13.278  16.225   5.498  0.1161  0.0085  0.1948
  919loPI    C313343  12.892  16.278   5.408  0.1980  0.3371  0.0162
  919loPI   PO413344  13.169  16.183   5.990  0.4403  0.0689 -0.0469
  919loPI   GL113345  13.309  16.234   6.434 -0.2231  0.0200  0.1193
  919loPI   GL213346  13.459  16.587   6.224  0.2733  0.0220 -0.2110
  919loPI   C1A13347  13.259  16.215   6.890 -0.0425  0.0255  0.0865
  919loPI   C2A13348  13.218  16.219   7.405  0.0326  0.0513 -0.1343
  919loPI   C3A13349  13.220  16.247   7.772 -0.1505 -0.0750  0.0325
  919loPI   C4A13350  13.053  16.213   8.278  0.1756  0.0017  0.2120
  919loPI   C5A13351  12.704  16.132   8.510  0.1195 -0.2793  0.1848
  919loPI   C6A13352  12.412  15.956   8.696  0.1882  0.0758 -0.1010
  919loPI   C1B13353  13.563  16.771   6.692 -0.2417  0.0509 -0.0177
  919loPI   C2B13354  13.565  16.948   7.137  0.0762 -0.2534  0.0391
  919loPI   C3B13355  13.738  16.843   7.582 -0.0988  0.3133  0.1558
  919loPI   C4B13356  13.703  16.945   8.067  0.2132  0.0107  0.1312
  920loPI    C113357  12.557   0.800   5.699  0.1102 -0.1540  0.0385
  920loPI    C213358  12.478   0.950   6.061  0.0490  0.0851 -0.0721
  920loPI    C313359  12.182   0.800   5.838  0.0892 -0.0774 -0.0177
  920loPI   PO413360  12.786   0.649   5.763  0.1948  0.3334 -0.0486
  920loPI   GL113361  12.633   0.319   6.002  0.1640  0.1119  0.0386
  920loPI   GL213362  12.437   0.483   6.172 -0.0527  0.0714 -0.4800
  920loPI   C1A13363  12.896   0.260   6.296  0.0684  0.0941  0.2904
  920loPI   C2A13364  12.933   0.449   6.608  0.2607 -0.4598  0.1632
  920loPI   C3A13365  12.758   0.689   7.005  0.2009 -0.0345 -0.0813
  920loPI   C4A13366  12.611   0.775   7.412 -0.2900  0.0477  0.1684
  920loPI   C5A13367  12.388   0.609   7.835  0.0068 -0.1059  0.3501
  920loPI   C6A13368  12.025   0.461   8.048  0.1469 -0.0857 -0.3150
  920loPI   C1B13369  12.422   0.735   6.569  0.0095 -0.0839  0.0971
  920loPI   C2B13370  12.453   1.079   6.868  0.1348  0.4400 -0.2597
  920loPI   C3B13371  12.619   1.548   6.981 -0.1316  0.0222  0.0325
  920loPI   C4B13372  12.886   1.745   7.286 -0.1628  0.0429 -0.0562
  921loPI    C113373   5.634  16.128   5.499  0.0297 -0.2412  0.0947
  921loPI    C213374   5.638  16.158   5.100 -0.1800  0.1792  0.1182
  921loPI    C313375   5.388  15.901   5.278  0.1138 -0.2167 -0.0250
  921loPI   PO413376   5.553  16.444   5.600  0.0215  0.1492 -0.1886
  921loPI   GL113377   5.467  16.698   5.930  0.3734 -0.0131 -0.4720
  921loPI   GL213378   5.402  17.021   6.102  0.0564  0.3705  0.3706
  921loPI   C1A13379   5.436  16.442   6.296 -0.2444  0.0318 -0.3754
  921loPI   C2A13380   5.405  16.408   6.711 -0.0853 -0.0468 -0.2273
  921loPI   C3A13381   5.293  16.498   7.101 -0.1322  0.0918  0.0518
  921loPI   C4A13382   5.136  16.462   7.481  0.2183  0.0748  0.2938
  921loPI   C5A13383   4.875  16.371   7.774 -0.0979 -0.1728  0.1071
  921loPI   C6A13384   4.513  16.200   7.884  0.1529 -0.1599 -0.0468
  921loPI   C1B13385   5.261  17.301   6.532 -0.1270 -0.2575 -0.2581
  921loPI   C2B13386   5.279  17.334   6.953 -0.0636 -0.1506  0.1148
  921loPI   C3B13387   5.133  17.673   7.167 -0.1176  0.1316 -0.1548
  921loPI   C4B13388   5.140  18.072   7.336 -0.0497 -0.0696 -0.1323
  922loPI    C113389  16.453  10.203   5.164 -0.0939  0.0971 -0.0131
  922loPI    C213390  16.645  10.213   4.812 -0.1125  0.1911 -0.0209
  922loPI    C313391  16.260  10.106   4.827 -0.0334 -0.0971  0.0071
  922loPI   PO413392  16.638  10.249   5.359 -0.0433 -0.3127 -0.0169
  922loPI   GL113393  16.481  10.319   5.709 -0.0497 -0.1656 -0.2274
  922loPI   GL213394  16.813  10.434   5.942  0.3249 -0.3202  0.0998
  922loPI   C1A13395  16.162  10.389   5.961 -0.1210 -0.0599 -0.0416
  922loPI   C2A13396  16.103  10.209   6.367  0.1292 -0.3972 -0.0074
  922loPI   C3A13397  16.173  10.069   6.840 -0.0755  0.2452  0.3598
  922loPI   C4A13398  16.135   9.927   7.301  0.0804  0.3251 -0.0162
  922loPI   C5A13399  16.152  10.087   7.665 -0.0946  0.1836  0.0732
  922loPI   C6A13400  16.392  10.084   8.099  0.0843  0.3225  0.0026
  922loPI   C1B13401  16.577  10.306   6.211 -0.4301  0.3337  0.3826
  922loPI   C2B13402  16.622  10.194   6.611 -0.0539  0.1148 -0.0006
  922loPI   C3B13403  16.541  10.261   7.093 -0.1569 -0.1638 -0.0243
  922loPI   C4B13404  16.585  10.262   7.456 -0.0072 -0.2569  0.0287
  923loPI    C113405   4.117  17.341   5.056  0.0602  0.1614 -0.0078
  923loPI    C213406   3.765  17.290   5.239  0.1674  0.1282  0.1927
  923loPI    C313407   3.814  17.589   4.978 -0.0731  0.0024 -0.0003
  923loPI   PO413408   4.312  17.303   5.339  0.1657 -0.0377 -0.0191
  923loPI   GL113409   4.407  17.258   5.848 -0.1529  0.0672  0.1930
  923loPI   GL213410   4.496  17.171   6.160  0.0254  0.1077  0.1635
  923loPI   C1A13411   4.033  17.433   6.152  0.0244  0.1116 -0.1822
  923loPI   C2A13412   3.811  17.519   6.452 -0.0250  0.3655 -0.0934
  923loPI   C3A13413   3.489  17.444   6.788  0.1696  0.2951 -0.3651
  923loPI   C4A13414   3.439  17.184   7.166 -0.1786  0.2524 -0.0411
  923loPI   C5A13415   3.502  16.877   7.557 -0.0537 -0.1115 -0.0351
  923loPI   C6A13416   3.216  16.665   7.872 -0.0718 -0.0070 -0.1876
  923loPI   C1B13417   4.736  17.214   6.600  0.1236 -0.1453  0.0754
  923loPI   C2B13418   4.771  17.380   6.959  0.1986 -0.1088 -0.1409
  923loPI   C3B13419   4.776  17.456   7.508 -0.2358  0.3042 -0.3648
  923loPI   C4B13420   4.697  17.626   7.915  0.1590  0.0011  0.0124
  924loPI    C113421  16.467  16.845   5.311 -0.2298 -0.0732  0.2474
  924loPI    C213422  16.473  16.467   5.180 -0.1644  0.0770 -0.2029
  924loPI    C313423  16.192  16.720   5.049 -0.2552  0.1684  0.1557
  924loPI   PO413424  16.483  16.911   5.493  0.2596 -0.0124 -0.4006
  924loPI   GL113425  16.667  17.049   5.921 -0.3236 -0.2259 -0.1100
  924loPI   GL213426  16.662  17.353   6.103 -0.0746  0.3345 -0.2404
  924loPI   C1A13427  16.496  17.000   6.424  0.1267 -0.2118 -0.4052
  924loPI   C2A13428  16.276  17.311   6.683  0.0493 -0.0551  0.0401
  924loPI   C3A13429  16.245  17.305   7.109  0.1545 -0.1728 -0.0126
  924loPI   C4A13430  16.281  17.525   7.549  0.1662 -0.1203 -0.0093
  924loPI   C5A13431  16.423  17.600   7.865  0.0807  0.0800  0.2722
  924loPI   C6A13432  16.755  17.558   8.046  0.0802 -0.0873 -0.1865
  924loPI   C1B13433  16.664  17.489   6.501  0.0035  0.2114  0.1861
  924loPI   C2B13434  16.742  17.549   6.914 -0.3003 -0.2599  0.1766
  924loPI   C3B13435  16.788  17.563   7.302  0.1080  0.0508 -0.0870
  924loPI   C4B13436  16.990  17.329   7.585  0.0374  0.0258 -0.2845
  925loPI    C113437  11.087  14.006   5.561 -0.0573 -0.1388  0.2288
  925loPI    C213438  10.924  14.036   5.197 -0.0924 -0.1287  0.2452
  925loPI    C313439  11.293  13.888   5.240  0.1767  0.4782  0.1367
  925loPI   PO413440  10.871  13.930   5.785 -0.0974  0.1511  0.0366
  925loPI   GL113441  10.873  13.819   6.234  0.0447 -0.0780  0.1264
  925loPI   GL213442  10.829  13.458   6.273  0.1786  0.3570 -0.4137
  925loPI   C1A13443  10.962  13.917   6.638  0.4650 -0.0595 -0.1347
  925loPI   C2A13444  10.938  13.930   7.083  0.1693  0.0252 -0.0590
  925loPI   C3A13445  10.805  13.898   7.537  0.4952 -0.0961 -0.1606
  925loPI   C4A13446  10.944  13.755   7.893  0.0369 -0.1156  0.2203
  925loPI   C5A13447  11.168  13.966   8.288  0.0743 -0.0877  0.1663
  925loPI   C6A13448  11.352  14.201   8.633 -0.0649 -0.2248 -0.4073
  925loPI   C1B13449  10.920  13.437   6.720 -0.1617  0.1089  0.1701
  925loPI   C2B13450  10.850  13.433   7.083  0.3179  0.2206 -0.3790
  925loPI   C3B13451  10.872  13.238   7.484  0.3402 -0.0977 -0.0828
  925loPI   C4B13452  10.751  13.266   8.014  0.2724 -0.1411 -0.1455
  926loPI    C113453   0.877  16.422   5.490 -0.2138 -0.0270  0.2589
  926loPI    C213454   0.830  16.116   5.742 -0.1777 -0.0443  0.2446
  926loPI    C313455   1.026  16.063   5.397 -0.1251  0.0077  0.2663
  926loPI   PO413456   1.056  16.719   5.627 -0.1105 -0.1187  0.4008
  926loPI   GL113457   1.188  16.641   6.100  0.2742 -0.0441  0.1361
  926loPI   GL213458   1.029  16.329   6.145  0.0504  0.0408 -0.2703
  926loPI   C1A13459   1.102  16.748   6.456  0.1935  0.1253 -0.2204
  926loPI   C2A13460   1.211  17.088   6.795 -0.0628 -0.4027  0.2199
  926loPI   C3A13461   1.642  17.330   6.766 -0.1556  0.0365  0.1464
  926loPI   C4A13462   1.838  17.813   6.888  0.1597  0.2319 -0.0276
  926loPI   C5A13463   1.710  18.173   7.023 -0.1783 -0.0488 -0.1900
  926loPI   C6A13464   1.601  18.525   7.180  0.1470  0.5583 -0.1423
  926loPI   C1B13465   0.875  16.156   6.528  0.1079  0.0622 -0.1654
  926loPI   C2B13466   0.703  15.903   6.873 -0.3701  0.1135 -0.1575
  926loPI   C3B13467   0.680  15.856   7.267  0.1656 -0.0076 -0.3243
  926loPI   C4B13468   0.603  15.529   7.561  0.2846 -0.1141  0.0619
  927loPI    C113469  15.043  17.848   5.669  0.0606 -0.2307 -0.1650
  927loPI    C213470  15.256  17.973   5.355 -0.0882 -0.0423 -0.1930
  927loPI    C313471  14.975  18.210   5.512  0.0169 -0.1160  0.1122
  927loPI   PO413472  15.202  17.621   5.777 -0.0331 -0.0694  0.2112
  927loPI   GL113473  15.452  17.420   6.057 -0.0943 -0.0346  0.0232
  927loPI   GL213474  15.321  17.293   6.259  0.2954  0.2896  0.3977
  927loPI   C1A13475  15.774  17.478   6.351 -0.0054 -0.0657 -0.2185
  927loPI   C2A13476  15.862  17.566   6.748  0.2527 -0.0707 -0.1622
  927loPI   C3A13477  15.815  17.636   7.222 -0.0129  0.1691  0.1275
  927loPI   C4A13478  15.577  17.848   7.458 -0.0068 -0.0911 -0.0775
  927loPI   C5A13479  15.473  17.954   7.813  0.1982  0.1435  0.3445
  927loPI   C6A13480  15.505  17.982   8.289 -0.1456  0.0961 -0.0367
  927loPI   C1B13481  15.345  17.382   6.674  0.0787  0.1262  0.1677
  927loPI   C2B13482  15.458  17.393   7.062  0.3574 -0.1795 -0.0297
  927loPI   C3B13483  15.447  17.359   7.506  0.1391 -0.2242  0.0458
  927loPI   C4B13484  15.307  17.492   7.949 -0.0506  0.4056 -0.2201
  928loPI    C113485   1.249   8.660   5.311 -0.1914  0.0820 -0.0665
  928loPI    C213486   1.180   8.439   4.985  0.0044 -0.1034  0.0154
  928loPI    C313487   1.555   8.531   5.088 -0.0723  0.2247  0.0126
  928loPI   PO413488   0.961   8.667   5.369  0.0639  0.2382  0.1355
  928loPI   GL113489   0.861   8.971   5.813 -0.1361  0.0058  0.0060
  928loPI   GL213490   0.831   8.756   6.055 -0.0560  0.2666  0.1128
  928loPI   C1A13491   1.326   8.669   5.906  0.1531  0.1132 -0.1485
  928loPI   C2A13492   1.673   8.671   6.066 -0.0887  0.2186  0.0475
  928loPI   C3A13493   2.147   8.589   6.199 -0.0654 -0.0574 -0.2146
  928loPI   C4A13494   2.369   8.475   6.595  0.0081 -0.0277  0.2460
  928loPI   C5A13495   2.486   8.373   7.075 -0.0671  0.1670 -0.0237
  928loPI   C6A13496   2.516   8.369   7.521  0.0443  0.0633 -0.0792
  928loPI   C1B13497   0.941   8.802   6.514  0.2778 -0.0570 -0.0599
  928loPI   C2B13498   0.783   8.824   6.864  0.3452  0.1175  0.3539
  928loPI   C3B13499   0.764   8.853   7.329  0.1554 -0.2263  0.1121
  928loPI   C4B13500   1.041   8.787   7.761  0.0782  0.2290  0.1202
  929loPI    C113501  11.287   3.383   5.159 -0.2281 -0.1877  0.0844
  929loPI    C213502  11.683   3.433   5.173 -0.2506 -0.0234  0.1590
  929loPI    C313503  11.502   3.371   4.822 -0.1555 -0.1305  0.1284
  929loPI   PO413504  11.230   3.590   5.405  0.0044  0.0956  0.2924
  929loPI   GL113505  11.297   3.746   5.756 -0.1912 -0.1939 -0.0976
  929loPI   GL213506  11.049   3.837   5.924  0.1553 -0.0586 -0.0242
  929loPI   C1A13507  11.623   3.939   5.912  0.2174  0.0815 -0.2113
  929loPI   C2A13508  11.985   4.152   6.163 -0.1505  0.2161  0.0517
  929loPI   C3A13509  12.410   4.073   6.470  0.1609 -0.0367  0.0450
  929loPI   C4A13510  12.547   4.229   6.883  0.0053 -0.2596  0.5975
  929loPI   C5A13511  12.568   4.267   7.278 -0.1737  0.1148 -0.1068
  929loPI   C6A13512  12.352   4.390   7.542  0.0143  0.1095 -0.2200
  929loPI   C1B13513  10.918   3.754   6.223 -0.0408 -0.3598 -0.0794
  929loPI   C2B13514  10.970   3.727   6.634 -0.1821  0.0342  0.1574
  929loPI   C3B13515  11.068   3.833   7.080  0.0107 -0.0697  0.0484
  929loPI   C4B13516  11.382   4.025   7.350  0.0362  0.0396 -0.2893
  930loPI    C113517  14.938  10.094   5.478  0.3003 -0.1637  0.2611
  930loPI    C213518  15.261  10.037   5.249  0.1496 -0.0967  0.0277
  930loPI    C313519  14.946   9.793   5.214 -0.0075  0.1194 -0.0820
  930loPI   PO413520  15.032  10.267   5.633 -0.2430 -0.0817  0.3849
  930loPI   GL113521  14.891  10.153   6.023 -0.0621 -0.4929  0.2094
  930loPI   GL213522  14.712  10.317   6.260  0.0165  0.0197  0.0914
  930loPI   C1A13523  15.148  10.209   6.459  0.0857 -0.2185 -0.0267
  930loPI   C2A13524  15.241  10.285   6.792  0.2700 -0.0459  0.2854
  930loPI   C3A13525  15.208  10.183   7.093 -0.4966 -0.0048 -0.1228
  930loPI   C4A13526  15.157  10.034   7.506 -0.0963 -0.1249  0.2739
  930loPI   C5A13527  15.086  10.121   7.887  0.0059  0.0352  0.1736
  930loPI   C6A13528  15.351  10.028   8.225 -0.1215 -0.0686  0.0858
  930loPI   C1B13529  14.804  10.539   6.642  0.0864 -0.2167 -0.2303
  930loPI   C2B13530  14.696  10.596   7.044 -0.1016 -0.3122  0.1745
  930loPI   C3B13531  14.703  10.392   7.514 -0.2207  0.0289  0.0285
  930loPI   C4B13532  14.589  10.143   7.897 -0.3533  0.1080  0.0698
  931loPI    C113533   0.075   5.826   5.146  0.1354 -0.0231 -0.0214
  931loPI    C213534   0.359   5.627   4.946  0.0981 -0.0263 -0.0715
  931loPI    C313535   0.432   5.996   5.085  0.0474  0.0685 -0.2930
  931loPI   PO413536  -0.026   5.737   5.311 -0.3798  0.1282 -0.0081
  931loPI   GL113537  -0.149   5.893   5.721  0.0146  0.2654  0.0748
  931loPI   GL213538   0.117   5.662   5.796 -0.0153 -0.0271 -0.0320
  931loPI   C1A13539  -0.074   6.117   5.995  0.1704  0.3409 -0.2747
  931loPI   C2A13540  -0.176   6.041   6.386 -0.0130 -0.0924 -0.3427
  931loPI   C3A13541  -0.363   6.022   6.630 -0.1790 -0.1076 -0.2078
  931loPI   C4A13542  -0.379   5.715   6.979  0.3246  0.1356 -0.2103
  931loPI   C5A13543  -0.094   5.671   7.260 -0.4350  0.1544 -0.0856
  931loPI   C6A13544   0.243   5.652   7.593 -0.3612 -0.0764  0.4142
  931loPI   C1B13545  -0.234   5.606   6.171 -0.0053  0.1840 -0.0156
  931loPI   C2B13546  -0.577   5.601   6.543 -0.0783 -0.0790  0.2765
  931loPI   C3B13547  -0.714   5.279   6.860 -0.0274 -0.0049  0.3886
  931loPI   C4B13548  -0.808   5.120   7.286  0.0313 -0.2708 -0.1711
  932loPI    C113549  12.639   6.153   4.832  0.1189  0.0376 -0.0661
  932loPI    C213550  12.479   6.475   4.656 -0.0451  0.0846  0.1650
  932loPI    C313551  12.579   6.156   4.436 -0.3934  0.0808  0.0046
  932loPI   PO413552  12.571   6.288   5.097 -0.1946  0.0916  0.0664
  932loPI   GL113553  12.639   6.033   5.461 -0.0102  0.1739 -0.1678
  932loPI   GL213554  12.535   6.289   5.620 -0.0448 -0.1523  0.3096
  932loPI   C1A13555  12.577   5.864   5.872  0.1925 -0.0077 -0.0604
  932loPI   C2A13556  12.534   5.596   6.178 -0.3046 -0.4516  0.0545
  932loPI   C3A13557  12.768   5.402   6.505 -0.0394 -0.0843 -0.2311
  932loPI   C4A13558  13.024   5.224   6.836  0.3338  0.2237  0.0046
  932loPI   C5A13559  12.839   5.100   7.329 -0.0099  0.3929 -0.0070
  932loPI   C6A13560  12.538   4.843   7.431 -0.4001 -0.0864 -0.0366
  932loPI   C1B13561  12.777   6.356   6.011 -0.1677 -0.0470 -0.0402
  932loPI   C2B13562  13.052   6.527   6.309  0.4002 -0.0803 -0.1245
  932loPI   C3B13563  13.219   6.555   6.729 -0.2480  0.0417  0.2509
  932loPI   C4B13564  13.310   6.374   7.058  0.0369 -0.0581 -0.5240
  933loPI    C113565   4.312   1.233   5.529 -0.2142  0.0381  0.0318
  933loPI    C213566   4.139   1.469   5.255 -0.3742 -0.1109  0.0031
  933loPI    C313567   4.294   1.117   5.147  0.0097  0.0499  0.0169
  933loPI   PO413568   4.505   1.358   5.702 -0.1432  0.0033 -0.0654
  933loPI   GL113569   4.819   1.607   6.033 -0.0207  0.0533 -0.0562
  933loPI   GL213570   4.621   1.543   6.205  0.0688 -0.0756  0.1153
  933loPI   C1A13571   5.114   1.628   6.349  0.1274 -0.3456  0.4471
  933loPI   C2A13572   5.463   1.487   6.621  0.3036  0.2737  0.0065
  933loPI   C3A13573   5.502   1.716   7.047 -0.1122  0.2232 -0.0882
  933loPI   C4A13574   5.458   1.952   7.450  0.2551 -0.0166  0.1407
  933loPI   C5A13575   5.542   1.919   7.968  0.1357  0.2030  0.1190
  933loPI   C6A13576   5.296   1.860   8.390  0.1184  0.0346 -0.1258
  933loPI   C1B13577   4.571   1.299   6.559 -0.0054 -0.0021  0.4154
  933loPI   C2B13578   4.594   1.046   6.870  0.0355  0.1374  0.4130
  933loPI   C3B13579   4.586   1.132   7.323  0.0640 -0.1482  0.0934
  933loPI   C4B13580   4.798   1.359   7.662  0.0658 -0.1399 -0.2222
  934loPI    C113581   9.129  14.893   5.848 -0.0646 -0.1514  0.0191
  934loPI    C213582   9.088  14.553   5.642  0.0953  0.0123 -0.2897
  934loPI    C313583   8.965  14.899   5.483 -0.1698  0.0885  0.0681
  934loPI   PO413584   9.044  14.874   6.141 -0.0027  0.1292  0.1189
  934loPI   GL113585   9.197  15.110   6.513 -0.1605 -0.1759  0.0811
  934loPI   GL213586   8.836  15.246   6.597  0.0180  0.2780  0.1735
  934loPI   C1A13587   9.456  15.341   6.746  0.1184 -0.2189 -0.2746
  934loPI   C2A13588   9.497  15.280   7.189  0.1558 -0.1691  0.0150
  934loPI   C3A13589   9.388  15.272   7.633  0.2854  0.1131  0.1227
  934loPI   C4A13590   9.295  15.286   8.021 -0.0398  0.1959  0.2155
  934loPI   C5A13591   9.371  15.562   8.426 -0.2420  0.2870 -0.0996
  934loPI   C6A13592   9.151  15.640   8.774  0.2039  0.0928  0.1785
  934loPI   C1B13593   9.012  15.317   6.937 -0.1360  0.0245 -0.1014
  934loPI   C2B13594   8.999  15.462   7.299 -0.2390 -0.1149 -0.0159
  934loPI   C3B13595   8.727  15.314   7.641 -0.0975 -0.6009 -0.2344
  934loPI   C4B13596   8.389  15.492   7.853  0.0787  0.0221  0.1250
  935loPI    C113597   2.837   8.145   5.120  0.0894  0.0525 -0.1162
  935loPI    C213598   2.942   8.065   4.743 -0.0843  0.0155 -0.1575
  935loPI    C313599   3.068   8.401   4.918  0.1458 -0.0533 -0.1871
  935loPI   PO413600   2.630   7.892   5.239 -0.0095 -0.1778  0.2234
  935loPI   GL113601   2.599   7.829   5.681  0.0156  0.1785  0.1120
  935loPI   GL213602   2.330   7.692   5.674  0.2517 -0.0117  0.5414
  935loPI   C1A13603   2.608   7.614   6.056 -0.1732 -0.1271 -0.2071
  935loPI   C2A13604   2.589   7.600   6.362 -0.0140 -0.1181  0.4069
  935loPI   C3A13605   2.442   7.453   6.782  0.1738 -0.1107  0.2355
  935loPI   C4A13606   2.240   7.453   7.111  0.0544  0.0607 -0.0976
  935loPI   C5A13607   2.116   7.429   7.502 -0.2550 -0.1864  0.0140
  935loPI   C6A13608   1.884   7.603   7.804  0.0991  0.0599  0.0389
  935loPI   C1B13609   2.087   7.754   6.122 -0.1205 -0.0639 -0.3174
  935loPI   C2B13610   2.023   7.801   6.631  0.1449 -0.0563 -0.0194
  935loPI   C3B13611   1.820   7.786   6.914 -0.0058  0.1060  0.2853
  935loPI   C4B13612   1.834   7.774   7.287 -0.2162 -0.0261  0.1608
  936loPI    C113613  13.179  15.258   5.830  0.2135  0.1350  0.0883
  936loPI    C213614  13.336  15.061   5.518 -0.0699 -0.1467  0.1179
  936loPI    C313615  13.054  15.339   5.458 -0.2587 -0.3325  0.1328
  936loPI   PO413616  12.998  15.140   6.099 -0.2823 -0.0898 -0.3638
  936loPI   GL113617  12.813  15.011   6.526 -0.0384  0.2765 -0.1306
  936loPI   GL213618  13.104  14.789   6.444  0.1931 -0.2816  0.0082
  936loPI   C1A13619  13.028  14.966   6.979  0.0508  0.1347 -0.0752
  936loPI   C2A13620  13.157  14.845   7.493 -0.2278  0.0230 -0.2135
  936loPI   C3A13621  13.526  14.895   7.743  0.0196  0.1285 -0.1032
  936loPI   C4A13622  13.862  14.950   8.031  0.1969 -0.1168  0.0516
  936loPI   C5A13623  14.224  14.787   8.081 -0.1941  0.1010 -0.2991
  936loPI   C6A13624  14.516  14.449   7.906 -0.0524 -0.1733 -0.0515
  936loPI   C1B13625  13.125  14.453   6.799  0.1108  0.0076 -0.1544
  936loPI   C2B13626  12.827  14.502   7.180 -0.0018 -0.0108 -0.0939
  936loPI   C3B13627  12.761  14.496   7.612 -0.0253  0.0854 -0.2233
  936loPI   C4B13628  12.495  14.533   7.979 -0.3771  0.0552  0.0296
  937loPI    C113629  16.427  18.253   5.416 -0.1001  0.1204  0.0935
  937loPI    C213630  16.110  18.338   5.187 -0.0984 -0.2776 -0.0664
  937loPI    C313631  16.465  18.505   5.108 -0.1776 -0.1382 -0.1324
  937loPI   PO413632  16.370  18.296   5.702  0.1132 -0.0691 -0.0397
  937loPI   GL113633  16.294  18.604   6.034  0.1479  0.0360  0.0669
  937loPI   GL213634  16.280  18.348   6.212 -0.2042 -0.1202  0.0469
  937loPI   C1A13635  16.448  18.838   6.351 -0.1627  0.0248  0.1162
  937loPI   C2A13636  16.339  18.962   6.798  0.0448 -0.0498  0.2135
  937loPI   C3A13637  16.420  18.896   7.215 -0.1808  0.2556  0.0024
  937loPI   C4A13638  16.816  19.096   7.502  0.0399  0.2184  0.1406
  937loPI   C5A13639  17.088  19.346   7.586 -0.0361  0.0302  0.3118
  937loPI   C6A13640  17.574  19.324   7.736 -0.1493 -0.2226 -0.0541
  937loPI   C1B13641  16.345  18.251   6.646  0.2239  0.0826 -0.2623
  937loPI   C2B13642  16.341  18.344   7.060  0.2751 -0.0097 -0.4273
  937loPI   C3B13643  16.319  18.428   7.570  0.1532 -0.0380 -0.1609
  937loPI   C4B13644  16.467  18.801   7.856  0.1166 -0.2410  0.1049
  938loPI    C113645   3.549   1.207   5.462 -0.1119  0.1994 -0.0158
  938loPI    C213646   3.363   1.269   5.810  0.0843  0.2321  0.0849
  938loPI    C313647   3.159   1.294   5.467 -0.1893 -0.1408  0.2129
  938loPI   PO413648   3.804   1.269   5.546 -0.1058 -0.0548  0.2654
  938loPI   GL113649   4.016   1.328   5.939 -0.1494  0.2279  0.0266
  938loPI   GL213650   4.197   1.099   6.053  0.0406 -0.0378  0.0889
  938loPI   C1A13651   3.635   1.268   6.204 -0.4725  0.0272  0.3257
  938loPI   C2A13652   3.344   1.210   6.481 -0.0761  0.4085 -0.1268
  938loPI   C3A13653   3.143   1.381   6.845  0.1376 -0.0414 -0.0838
  938loPI   C4A13654   3.196   1.414   7.323 -0.2091 -0.1686  0.1702
  938loPI   C5A13655   3.411   1.463   7.697 -0.1193 -0.4498  0.1158
  938loPI   C6A13656   3.439   1.320   8.161 -0.1544  0.2719  0.1009
  938loPI   C1B13657   4.103   1.132   6.484  0.2792 -0.0903  0.0972
  938loPI   C2B13658   4.140   1.272   6.926  0.0874  0.0783  0.0127
  938loPI   C3B13659   4.048   1.288   7.283 -0.0376  0.3504 -0.4187
  938loPI   C4B13660   4.217   1.217   7.649  0.2487 -0.1075 -0.0998
  939loPI    C113661   9.936   6.571   5.349  0.0864 -0.0835  0.0298
  939loPI    C213662   9.814   6.356   5.034 -0.0841  0.0917 -0.0256
  939loPI    C313663  10.156   6.563   5.015  0.0116 -0.0647 -0.0201
  939loPI   PO413664   9.785   6.422   5.547 -0.1497  0.0283  0.0711
  939loPI   GL113665   9.830   6.454   5.930  0.1428  0.1892 -0.0894
  939loPI   GL213666   9.459   6.483   6.006  0.2458 -0.0132  0.1060
  939loPI   C1A13667   9.881   6.339   6.454 -0.0861  0.1420  0.1315
  939loPI   C2A13668   9.955   6.281   6.868  0.0706 -0.2197 -0.0960
  939loPI   C3A13669   9.829   6.335   7.326 -0.1960 -0.0936 -0.0282
  939loPI   C4A13670   9.856   6.632   7.680  0.0868  0.0576  0.0909
  939loPI   C5A13671   9.890   6.999   7.944 -0.0549 -0.1206  0.2478
  939loPI   C6A13672   9.990   7.374   8.112  0.1012  0.1285 -0.0430
  939loPI   C1B13673   9.405   6.557   6.435 -0.1287 -0.2958  0.0761
  939loPI   C2B13674   9.434   6.691   6.772  0.2833 -0.2620 -0.0184
  939loPI   C3B13675   9.626   6.706   7.007  0.0334 -0.3927  0.0456
  939loPI   C4B13676   9.469   6.817   7.353  0.0199 -0.2333  0.1466
  940loPI    C113677  17.726   0.181   5.284 -0.2854  0.0429  0.3028
  940loPI    C213678  17.447  -0.096   5.358 -0.1917 -0.1747 -0.1233
  940loPI    C313679  17.744  -0.176   5.103 -0.0087  0.2263 -0.0433
  940loPI   PO413680  17.804   0.227   5.501 -0.0091 -0.5001 -0.2235
  940loPI   GL113681  17.677   0.191   5.900 -0.0515  0.1328  0.0288
  940loPI   GL213682  17.425   0.319   6.021  0.0350  0.0329 -0.0897
  940loPI   C1A13683  17.898   0.011   6.269 -0.0453 -0.1366 -0.0204
  940loPI   C2A13684  17.885  -0.290   6.638  0.1102  0.0167 -0.2501
  940loPI   C3A13685  17.744  -0.226   7.030  0.4603 -0.0820  0.2504
  940loPI   C4A13686  17.695  -0.198   7.422 -0.2575 -0.0022  0.2650
  940loPI   C5A13687  17.507  -0.557   7.689  0.2455 -0.3045  0.1442
  940loPI   C6A13688  17.049  -0.568   7.663 -0.0691  0.0520 -0.1023
  940loPI   C1B13689  17.472   0.248   6.399 -0.0803 -0.0986  0.0770
  940loPI   C2B13690  17.610   0.158   6.699 -0.1148  0.0170  0.2137
  940loPI   C3B13691  17.657   0.298   7.033  0.0116  0.1166  0.2542
  940loPI   C4B13692  17.769   0.493   7.443 -0.1228  0.2150 -0.0502
  941loPI    C113693  14.104  15.786   5.849  0.0704 -0.1731 -0.0789
  941loPI    C213694  13.833  15.993   5.639  0.1131 -0.0482 -0.0122
  941loPI    C313695  14.223  16.052   5.574  0.1265 -0.0056  0.1051
  941loPI   PO413696  14.168  15.759   6.058 -0.1185 -0.2923 -0.1747
  941loPI   GL113697  14.391  15.618   6.355 -0.0978  0.0492  0.3180
  941loPI   GL213698  14.175  15.533   6.697 -0.2408  0.1034  0.0632
  941loPI   C1A13699  14.601  15.801   6.731 -0.0402  0.1979  0.0651
  941loPI   C2A13700  14.589  15.833   7.140 -0.0512  0.0047 -0.2314
  941loPI   C3A13701  14.541  15.694   7.502  0.0533  0.0571 -0.1283
  941loPI   C4A13702  14.705  15.566   7.877  0.0190 -0.0107  0.0574
  941loPI   C5A13703  14.777  15.329   8.219 -0.1541  0.0733 -0.0779
  941loPI   C6A13704  14.890  15.419   8.600  0.4200 -0.1234  0.0599
  941loPI   C1B13705  14.217  15.540   7.058 -0.1189  0.0715  0.0401
  941loPI   C2B13706  14.017  15.541   7.476  0.0281 -0.1131  0.0772
  941loPI   C3B13707  13.767  15.406   7.891 -0.0052  0.0380  0.0041
  941loPI   C4B13708  13.399  15.229   8.135  0.1944  0.1270  0.1257
  942loPI    C113709   3.979   0.099   5.476 -0.0227  0.2079  0.2653
  942loPI    C213710   3.733  -0.128   5.694  0.0765 -0.2920 -0.1258
  942loPI    C313711   4.127  -0.198   5.699  0.1418  0.0630 -0.0312
  942loPI   PO413712   3.887   0.326   5.586  0.0023 -0.3945  0.1735
  942loPI   GL113713   3.693   0.355   6.064 -0.1386 -0.1408  0.0002
  942loPI   GL213714   4.028   0.077   6.099 -0.0370  0.0006  0.2194
  942loPI   C1A13715   3.628   0.746   6.342  0.2161 -0.1658  0.2132
  942loPI   C2A13716   3.694   0.983   6.726 -0.0958  0.0893 -0.1506
  942loPI   C3A13717   3.641   1.326   7.035  0.2871 -0.2645 -0.0430
  942loPI   C4A13718   3.535   1.739   7.024  0.3014  0.0027  0.3262
  942loPI   C5A13719   3.350   1.956   7.425 -0.0140  0.0990  0.0099
  942loPI   C6A13720   3.131   1.912   7.746 -0.1590  0.0734 -0.1735
  942loPI   C1B13721   4.016   0.418   6.435 -0.1524  0.1608  0.1625
  942loPI   C2B13722   4.198   0.713   6.751 -0.1569  0.2905 -0.2365
  942loPI   C3B13723   4.143   0.801   7.147 -0.0776  0.0352  0.3229
  942loPI   C4B13724   3.690   0.839   7.264 -0.0170 -0.1361 -0.0244
  943loPI    C113725   8.674   4.025   5.186 -0.3380  0.0667  0.2519
  943loPI    C213726   8.441   4.311   5.030 -0.0986 -0.0161 -0.2818
  943loPI    C313727   8.529   3.986   4.815  0.1337 -0.2055  0.0881
  943loPI   PO413728   8.584   3.842   5.397 -0.0497 -0.1419 -0.1822
  943loPI   GL113729   8.383   3.961   5.866  0.0263 -0.0027  0.1448
  943loPI   GL213730   8.631   3.569   5.827  0.1529 -0.1663 -0.0465
  943loPI   C1A13731   8.278   4.178   6.308 -0.2769 -0.1468 -0.1013
  943loPI   C2A13732   8.255   4.255   6.732  0.0722 -0.0713  0.0501
  943loPI   C3A13733   8.324   4.333   7.152  0.2815 -0.1021 -0.5201
  943loPI   C4A13734   8.384   4.509   7.578 -0.0823 -0.4207 -0.1727
  943loPI   C5A13735   8.442   4.750   7.832  0.0920  0.0535 -0.0246
  943loPI   C6A13736   8.625   5.242   7.946  0.0674 -0.0097  0.0919
  943loPI   C1B13737   8.768   3.796   6.195  0.1431  0.0575  0.0234
  943loPI   C2B13738   8.648   3.731   6.522 -0.0041  0.2962  0.0605
  943loPI   C3B13739   8.715   3.550   7.006  0.1170  0.1259 -0.0128
  943loPI   C4B13740   8.864   3.573   7.392  0.1127 -0.3566 -0.0909
  944loPI    C113741   1.823   9.607   5.156 -0.1656  0.2051  0.0124
  944loPI    C213742   1.585   9.871   4.973 -0.2852  0.0703 -0.0282
  944loPI    C313743   1.805   9.617   4.756 -0.1685  0.1375  0.0107
  944loPI   PO413744   1.654   9.520   5.401  0.1770  0.0748  0.2762
  944loPI   GL113745   1.827   9.448   5.785 -0.0324  0.1293  0.0220
  944loPI   GL213746   2.076   9.558   5.827 -0.1100 -0.5667 -0.0302
  944loPI   C1A13747   1.792   9.169   6.108  0.1139  0.1224  0.0376
  944loPI   C2A13748   1.532   8.939   6.444  0.1003 -0.1130  0.2400
  944loPI   C3A13749   1.562   8.835   6.853 -0.1908 -0.0640 -0.2036
  944loPI   C4A13750   1.722   8.761   7.265 -0.0352 -0.0857  0.1991
  944loPI   C5A13751   1.541   8.966   7.672  0.0619 -0.2371 -0.0277
  944loPI   C6A13752   1.633   9.449   7.790  0.2506  0.2400 -0.1044
  944loPI   C1B13753   2.095   9.645   6.194 -0.2771 -0.4235  0.1026
  944loPI   C2B13754   2.174   9.489   6.617  0.1461  0.2951 -0.2189
  944loPI   C3B13755   2.618   9.363   6.884 -0.0490  0.2335  0.2262
  944loPI   C4B13756   2.672   9.239   7.273 -0.1091  0.1653  0.3913
  945loPI    C113757  17.283  16.629   5.465 -0.2909 -0.3102  0.0514
  945loPI    C213758  17.215  16.861   5.146  0.0709 -0.1356  0.0962
  945loPI    C313759  17.012  16.923   5.485  0.2585  0.2092  0.1500
  945loPI   PO413760  17.514  16.538   5.493 -0.0857  0.2882  0.2980
  945loPI   GL113761  17.617  16.409   5.930  0.2143 -0.0079  0.1075
  945loPI   GL213762  17.856  16.651   6.077 -0.1261  0.1518 -0.1041
  945loPI   C1A13763  17.689  16.291   6.415  0.2293 -0.0779 -0.2221
  945loPI   C2A13764  17.742  16.325   6.812 -0.0012 -0.0481  0.1013
  945loPI   C3A13765  17.719  16.628   7.151 -0.0581 -0.0270 -0.1178
  945loPI   C4A13766  17.913  16.681   7.674 -0.1122  0.0939  0.1198
  945loPI   C5A13767  17.836  17.099   7.925 -0.1397  0.2264 -0.0611
  945loPI   C6A13768  18.007  17.490   8.222 -0.0406 -0.2584  0.3679
  945loPI   C1B13769  18.001  16.702   6.490  0.1430 -0.0497  0.0853
  945loPI   C2B13770  18.059  16.810   6.842 -0.2432  0.0829  0.0047
  945loPI   C3B13771  18.293  16.782   7.207  0.0604 -0.1076  0.2052
  945loPI   C4B13772  18.613  16.954   7.363  0.2088  0.1318 -0.3598
  946loPI    C113773   2.020   2.113   5.163 -0.0696  0.3846  0.0823
  946loPI    C213774   2.272   2.305   4.919 -0.0011  0.0375 -0.1268
  946loPI    C313775   2.091   1.970   4.797 -0.1380 -0.0199  0.2220
  946loPI   PO413776   2.128   2.131   5.483  0.0311 -0.1386  0.1425
  946loPI   GL113777   2.342   2.121   5.915  0.0890  0.1408  0.1597
  946loPI   GL213778   2.037   2.160   5.981 -0.2201  0.2077 -0.2936
  946loPI   C1A13779   2.285   2.048   6.446 -0.1337  0.0427  0.2755
  946loPI   C2A13780   2.319   2.077   6.897 -0.1496  0.1454 -0.0239
  946loPI   C3A13781   2.290   1.969   7.321  0.2588  0.0745 -0.2245
  946loPI   C4A13782   2.164   1.736   7.691  0.0411 -0.0818 -0.4952
  946loPI   C5A13783   1.987   1.414   8.015 -0.3983  0.0773 -0.0891
  946loPI   C6A13784   2.225   1.260   8.408 -0.2374 -0.3317 -0.0398
  946loPI   C1B13785   1.855   2.033   6.277 -0.0630  0.1323 -0.0519
  946loPI   C2B13786   1.635   1.898   6.633  0.0421 -0.3673 -0.1746
  946loPI   C3B13787   1.853   1.805   7.056 -0.0356 -0.0895  0.0105
  946loPI   C4B13788   2.035   1.459   7.313  0.5416  0.1198  0.0092
  947loPI    C113789   7.674   0.963   5.575  0.0116  0.0458 -0.0251
  947loPI    C213790   8.042   1.102   5.649  0.0065 -0.0924  0.2739
  947loPI    C313791   7.742   1.357   5.575  0.2021  0.0146 -0.1845
  947loPI   PO413792   7.696   0.711   5.778 -0.0267  0.0075 -0.2874
  947loPI   GL113793   7.780   0.350   6.110  0.1609 -0.3710 -0.2494
  947loPI   GL213794   7.632   0.082   6.128  0.0402 -0.1524 -0.2210
  947loPI   C1A13795   7.694   0.533   6.584 -0.0261 -0.1469  0.2302
  947loPI   C2A13796   7.537   0.547   6.953  0.1708 -0.1562  0.0803
  947loPI   C3A13797   7.435   0.748   7.237 -0.1470 -0.3634  0.3478
  947loPI   C4A13798   7.263   1.020   7.546 -0.0790 -0.3132 -0.3060
  947loPI   C5A13799   7.154   0.987   7.944  0.2764  0.0928  0.0770
  947loPI   C6A13800   6.928   0.721   8.258  0.1131  0.2445  0.3964
  947loPI   C1B13801   7.560   0.047   6.599 -0.3481 -0.1192 -0.1463
  947loPI   C2B13802   7.513   0.025   6.927 -0.2210 -0.0446 -0.3265
  947loPI   C3B13803   7.334   0.273   7.345 -0.1045 -0.0289 -0.1197
  947loPI   C4B13804   7.473   0.533   7.769 -0.2379  0.0808 -0.2182
  948loPI    C113805   4.846  15.863   5.254  0.0792  0.0918 -0.0128
  948loPI    C213806   4.541  16.018   5.461  0.1029  0.1412 -0.0145
  948loPI    C313807   4.640  16.172   5.105  0.2168  0.2141  0.0479
  948loPI   PO413808   4.743  15.539   5.398  0.1343  0.0351 -0.1209
  948loPI   GL113809   4.726  15.395   5.730  0.0317 -0.0596  0.1365
  948loPI   GL213810   5.011  15.370   5.842  0.1134  0.0131  0.0432
  948loPI   C1A13811   4.716  15.604   6.209 -0.1536  0.1651 -0.1395
  948loPI   C2A13812   4.851  15.571   6.629 -0.0334 -0.1977  0.0349
  948loPI   C3A13813   4.865  15.573   6.963 -0.2216 -0.0558  0.0424
  948loPI   C4A13814   4.989  15.469   7.364  0.2047 -0.0871 -0.1622
  948loPI   C5A13815   5.222  15.496   7.715 -0.2943 -0.0463 -0.2101
  948loPI   C6A13816   5.275  15.185   8.076 -0.0592  0.0504  0.0484
  948loPI   C1B13817   5.202  15.560   6.184  0.1276  0.0494  0.1757
  948loPI   C2B13818   5.384  15.582   6.628  0.2346  0.1527  0.1003
  948loPI   C3B13819   5.410  15.561   7.101  0.0075  0.0802 -0.2050
  948loPI   C4B13820   5.585  15.784   7.396 -0.2749  0.1552  0.0023
  949loPI    C113821   6.433  10.139   5.802 -0.0918  0.0025 -0.1489
  949loPI    C213822   6.364   9.890   5.496 -0.2733 -0.0678 -0.0526
  949loPI    C313823   6.688   9.840   5.725 -0.2414 -0.1366 -0.1121
  949loPI   PO413824   6.210  10.210   5.847  0.4200  0.3048  0.4365
  949loPI   GL113825   5.984  10.261   6.322  0.0170 -0.2384  0.1294
  949loPI   GL213826   6.084  10.675   6.141 -0.0195  0.1855 -0.4030
  949loPI   C1A13827   5.928  10.041   6.701  0.0433 -0.0613  0.2706
  949loPI   C2A13828   6.020   9.817   7.029  0.0502 -0.2123  0.1440
  949loPI   C3A13829   6.312   9.689   7.275 -0.2415 -0.0453 -0.1141
  949loPI   C4A13830   6.601   9.324   7.490 -0.1032  0.1030  0.0159
  949loPI   C5A13831   6.609   9.152   7.844  0.2358 -0.0664  0.0914
  949loPI   C6A13832   6.543   9.387   8.248  0.0537  0.1967 -0.1929
  949loPI   C1B13833   6.069  10.819   6.515  0.2031 -0.2626  0.1766
  949loPI   C2B13834   6.156  10.960   6.938  0.0894  0.0585 -0.0075
  949loPI   C3B13835   6.018  11.024   7.318  0.1772 -0.0118  0.0439
  949loPI   C4B13836   5.823  11.207   7.624 -0.2729  0.1136  0.2516
  950loPI    C113837   6.671  10.508   5.613  0.1512 -0.0080 -0.0844
  950loPI    C213838   6.401  10.355   5.362  0.0741  0.0802 -0.0557
  950loPI    C313839   6.770  10.203   5.375 -0.0078 -0.1172 -0.0124
  950loPI   PO413840   6.488  10.647   5.815 -0.3226 -0.0462  0.1581
  950loPI   GL113841   6.556  10.446   6.237 -0.1207 -0.0714 -0.5304
  950loPI   GL213842   6.856  10.170   6.263 -0.2598 -0.0494 -0.0221
  950loPI   C1A13843   6.437  10.344   6.563 -0.2554  0.1509 -0.2480
  950loPI   C2A13844   6.235  10.453   6.800  0.1658 -0.1925 -0.0201
  950loPI   C3A13845   6.111  10.272   7.184  0.0294 -0.0458 -0.0298
  950loPI   C4A13846   6.169  10.160   7.583  0.2304 -0.0540  0.3257
  950loPI   C5A13847   6.412   9.794   7.871 -0.4990  0.0639  0.2987
  950loPI   C6A13848   6.846   9.600   7.907  0.1504  0.1588  0.4071
  950loPI   C1B13849   6.911  10.185   6.698 -0.3653 -0.0097  0.0223
  950loPI   C2B13850   7.093  10.163   7.112  0.0136  0.1330  0.0368
  950loPI   C3B13851   7.287  10.273   7.508 -0.2101  0.2016 -0.0690
  950loPI   C4B13852   7.502  10.068   7.856 -0.2171 -0.3449 -0.1699
  951loPI    C113853  15.364   2.686   5.404  0.2731  0.0549 -0.1231
  951loPI    C213854  15.177   2.990   5.223  0.1284  0.0685  0.0460
  951loPI    C313855  15.097   2.906   5.606  0.1178 -0.2247 -0.0182
  951loPI   PO413856  15.602   2.731   5.435 -0.0596 -0.1627 -0.3009
  951loPI   GL113857  15.792   2.978   5.680 -0.1044 -0.3074 -0.0625
  951loPI   GL213858  15.769   3.268   5.746 -0.0924  0.0177  0.2205
  951loPI   C1A13859  15.416   2.971   6.039 -0.0562  0.2126 -0.5941
  951loPI   C2A13860  15.428   3.176   6.462 -0.3643  0.0399  0.1104
  951loPI   C3A13861  15.631   3.360   6.792  0.1490  0.0146 -0.2821
  951loPI   C4A13862  15.890   3.404   7.133 -0.1922 -0.0398 -0.3800
  951loPI   C5A13863  16.017   3.188   7.550 -0.0407  0.1126 -0.0439
  951loPI   C6A13864  16.197   3.071   7.924  0.2571 -0.0546 -0.2324
  951loPI   C1B13865  15.834   3.241   6.143 -0.0261  0.0697 -0.3869
  951loPI   C2B13866  16.089   3.295   6.503  0.0336  0.2281  0.1779
  951loPI   C3B13867  16.288   3.545   6.888  0.1235 -0.1959 -0.0264
  951loPI   C4B13868  16.212   3.654   7.380  0.4182 -0.0205 -0.2026
  952loPI    C113869   1.595  10.877   5.718  0.2007  0.2276  0.0574
  952loPI    C213870   1.348  11.191   5.736  0.2021  0.2283  0.0655
  952loPI    C313871   1.272  10.891   5.483  0.2106  0.2436  0.0446
  952loPI   PO413872   1.841  10.963   5.683  0.1897  0.0341 -0.2035
  952loPI   GL113873   2.074  10.819   6.011  0.1489  0.1590 -0.0298
  952loPI   GL213874   2.372  10.754   6.019  0.0037 -0.1181  0.0639
  952loPI   C1A13875   1.984  10.901   6.377  0.1119  0.0552 -0.0509
  952loPI   C2A13876   1.996  10.865   6.792  0.2746  0.1550  0.1507
  952loPI   C3A13877   1.791  10.690   7.134  0.2724 -0.3437  0.1118
  952loPI   C4A13878   1.506  10.400   7.420  0.0144  0.1546  0.1517
  952loPI   C5A13879   1.321  10.191   7.745  0.0823 -0.0154 -0.0158
  952loPI   C6A13880   0.857  10.067   7.849 -0.1089  0.0993 -0.0621
  952loPI   C1B13881   2.450  10.857   6.443 -0.1100 -0.3505  0.0775
  952loPI   C2B13882   2.456  10.683   6.814 -0.1776 -0.2240 -0.0768
  952loPI   C3B13883   2.275  10.657   7.327 -0.4698 -0.0203  0.2448
  952loPI   C4B13884   2.201  10.627   7.799  0.1020 -0.0257  0.3013
  953loPI    C113885   3.449  17.849   5.275  0.2037  0.1599 -0.0789
  953loPI    C213886   3.285  17.688   4.947  0.0802  0.0415  0.0393
  953loPI    C313887   3.533  18.000   4.914 -0.0067  0.0914 -0.1586
  953loPI   PO413888   3.289  17.859   5.500  0.0297  0.2309 -0.0622
  953loPI   GL113889   3.430  17.612   5.807 -0.0222  0.2257 -0.1097
  953loPI   GL213890   3.135  17.667   5.969 -0.0673  0.0294 -0.1183
  953loPI   C1A13891   3.751  17.816   6.009  0.5104 -0.0921  0.1041
  953loPI   C2A13892   4.027  18.055   6.315 -0.1589  0.1561 -0.0583
  953loPI   C3A13893   4.210  18.070   6.649  0.1067  0.2844  0.0086
  953loPI   C4A13894   4.232  18.114   7.115 -0.1079  0.2405  0.0598
  953loPI   C5A13895   4.333  18.293   7.432  0.2347  0.1068 -0.1970
  953loPI   C6A13896   4.293  18.573   7.734  0.2193 -0.0828  0.1281
  953loPI   C1B13897   3.280  17.770   6.307 -0.3036 -0.2451  0.0706
  953loPI   C2B13898   3.578  17.921   6.521 -0.0826 -0.2620 -0.0939
  953loPI   C3B13899   3.938  17.733   6.874 -0.0574  0.1567  0.1797
  953loPI   C4B13900   4.306  17.550   7.168 -0.0627 -0.0408  0.0137
  954loPI    C113901   9.514   8.278   5.208 -0.2312  0.0289 -0.0928
  954loPI    C213902   9.873   8.307   5.033 -0.0365  0.0185  0.2933
  954loPI    C313903   9.659   7.971   4.996 -0.1317  0.1225 -0.1612
  954loPI   PO413904   9.576   8.345   5.510 -0.1222 -0.1256 -0.2323
  954loPI   GL113905   9.548   8.347   5.822 -0.1574  0.2785 -0.1055
  954loPI   GL213906   9.445   8.124   6.080 -0.0891 -0.0877  0.1099
  954loPI   C1A13907   9.537   8.616   6.270 -0.2481 -0.1880 -0.4941
  954loPI   C2A13908   9.280   8.591   6.597  0.2897  0.3942  0.0160
  954loPI   C3A13909   9.093   8.905   6.951 -0.0433 -0.0574  0.0716
  954loPI   C4A13910   8.987   8.855   7.340  0.0143  0.0133  0.0875
  954loPI   C5A13911   8.795   9.108   7.642  0.3769 -0.0194 -0.0893
  954loPI   C6A13912   8.695   9.389   7.690  0.1375  0.0949 -0.0064
  954loPI   C1B13913   9.213   7.935   6.394  0.0962  0.1549  0.1153
  954loPI   C2B13914   9.194   8.093   6.838 -0.2752  0.1037  0.2406
  954loPI   C3B13915   9.379   8.457   7.112 -0.1089  0.2235 -0.1083
  954loPI   C4B13916   9.402   8.585   7.599 -0.0579  0.1674 -0.0091
  955loPI    C113917   8.860  11.968   5.141 -0.3653  0.1381  0.0369
  955loPI    C213918   8.685  11.926   4.783 -0.1973 -0.0254 -0.0272
  955loPI    C313919   9.041  12.107   4.812 -0.2922  0.1464  0.0804
  955loPI   PO413920   8.637  11.841   5.380 -0.0031 -0.1182  0.2937
  955loPI   GL113921   8.552  11.791   5.746  0.1455  0.1621  0.0206
  955loPI   GL213922   8.557  12.054   5.894  0.3268 -0.0666 -0.0321
  955loPI   C1A13923   8.234  11.646   6.097  0.0765 -0.0544 -0.0632
  955loPI   C2A13924   8.385  11.405   6.477  0.0725 -0.0338  0.1867
  955loPI   C3A13925   8.350  11.341   6.982 -0.0674 -0.0222 -0.1734
  955loPI   C4A13926   8.397  11.262   7.389 -0.0176 -0.0054  0.3899
  955loPI   C5A13927   8.528  10.846   7.544  0.0315  0.2447 -0.1731
  955loPI   C6A13928   8.530  11.060   7.990  0.1785 -0.4131  0.0088
  955loPI   C1B13929   8.590  11.886   6.363 -0.2944 -0.0407 -0.2894
  955loPI   C2B13930   8.542  11.774   6.810  0.2355  0.1107 -0.2732
  955loPI   C3B13931   8.554  11.749   7.199 -0.0928 -0.4025 -0.1232
  955loPI   C4B13932   8.684  11.920   7.590  0.0128  0.2098  0.4721
  956loPI    C113933  12.427   6.766   5.128  0.0652  0.1927  0.1190
  956loPI    C213934  12.148   6.598   5.361  0.2741 -0.1902  0.1001
  956loPI    C313935  12.064   6.685   4.980  0.1294 -0.1503  0.1407
  956loPI   PO413936  12.516   6.959   5.263 -0.1554  0.0551  0.0906
  956loPI   GL113937  12.476   6.812   5.625  0.0999  0.0612 -0.2109
  956loPI   GL213938  12.724   6.801   5.850 -0.1493  0.0694 -0.1022
  956loPI   C1A13939  12.162   6.650   5.903  0.0795  0.3592  0.2396
  956loPI   C2A13940  11.961   6.581   6.255 -0.0232  0.3014 -0.1056
  956loPI   C3A13941  12.018   6.276   6.680 -0.0489 -0.0641  0.0373
  956loPI   C4A13942  12.215   6.151   7.047 -0.0357 -0.6133 -0.1883
  956loPI   C5A13943  12.252   6.085   7.547 -0.1365  0.3224 -0.0344
  956loPI   C6A13944  12.311   5.892   7.934  0.0269 -0.2829  0.1390
  956loPI   C1B13945  12.567   6.747   6.192 -0.0943  0.0704  0.1998
  956loPI   C2B13946  12.720   6.527   6.658  0.0891 -0.0160 -0.0927
  956loPI   C3B13947  12.764   6.255   7.035  0.2307 -0.2764 -0.1266
  956loPI   C4B13948  13.037   6.038   7.378  0.1180 -0.1221  0.0213
  957loPI    C113949   9.495   1.989   5.582  0.1948 -0.2417  0.0164
  957loPI    C213950   9.488   2.039   5.186 -0.0237 -0.0711  0.0402
  957loPI    C313951   9.778   1.822   5.354  0.3143  0.2047 -0.1724
  957loPI   PO413952   9.405   2.189   5.742  0.2532 -0.4042 -0.2398
  957loPI   GL113953   9.079   2.172   6.078 -0.3383 -0.2183 -0.1919
  957loPI   GL213954   8.860   2.373   6.250 -0.0380 -0.2651 -0.3481
  957loPI   C1A13955   9.288   2.237   6.441  0.1897 -0.0941  0.1042
  957loPI   C2A13956   9.453   2.189   6.847  0.1575  0.2924 -0.1165
  957loPI   C3A13957   9.510   2.011   7.302 -0.2268  0.3731  0.1596
  957loPI   C4A13958   9.455   2.127   7.634  0.1861  0.0504 -0.1935
  957loPI   C5A13959   9.053   2.039   7.818  0.1454 -0.0870  0.1413
  957loPI   C6A13960   8.655   2.113   7.793 -0.1451 -0.0889  0.0866
  957loPI   C1B13961   8.896   2.303   6.689 -0.1544  0.0432 -0.5883
  957loPI   C2B13962   8.769   2.534   7.053  0.1240 -0.0098 -0.3276
  957loPI   C3B13963   8.537   2.766   7.331  0.1326 -0.0968  0.1519
  957loPI   C4B13964   8.610   2.975   7.721  0.0553 -0.3709 -0.1453
  958loPI    C113965  14.327  16.792   5.854 -0.0080 -0.1780  0.1476
  958loPI    C213966  14.099  16.887   5.539  0.0983 -0.0004  0.1235
  958loPI    C313967  14.319  16.553   5.533  0.2865  0.1243 -0.0918
  958loPI   PO413968  14.481  17.083   5.959 -0.0937 -0.1075  0.1315
  958loPI   GL113969  14.701  17.378   6.258  0.0644  0.1568 -0.1549
  958loPI   GL213970  14.300  17.441   6.179  0.1337  0.1313  0.1417
  958loPI   C1A13971  14.868  17.251   6.656  0.0226  0.1494  0.1368
  958loPI   C2A13972  14.968  17.303   7.040 -0.0123 -0.0487  0.0134
  958loPI   C3A13973  14.969  17.194   7.431 -0.2083 -0.1445  0.1104
  958loPI   C4A13974  14.942  16.987   7.778  0.1749 -0.2944 -0.2296
  958loPI   C5A13975  15.238  16.876   7.999 -0.0368  0.2721 -0.3682
  958loPI   C6A13976  15.540  16.737   8.327 -0.3199 -0.1445 -0.0296
  958loPI   C1B13977  14.334  17.424   6.595 -0.0146  0.2106 -0.1908
  958loPI   C2B13978  14.431  17.291   6.943 -0.4444 -0.0711  0.0097
  958loPI   C3B13979  14.375  17.216   7.273  0.1645  0.0566 -0.0067
  958loPI   C4B13980  14.157  17.104   7.556 -0.0778  0.0063  0.2643
  959loPI    C113981   6.442   1.557   5.239  0.3553 -0.3065 -0.3250
  959loPI    C213982   6.667   1.875   5.146 -0.1102  0.1008 -0.1020
  959loPI    C313983   6.395   1.739   4.886  0.0353 -0.0717 -0.1660
  959loPI   PO413984   6.346   1.612   5.464  0.0866 -0.2195  0.0139
  959loPI   GL113985   6.286   1.839   5.822  0.0791 -0.2806 -0.0444
  959loPI   GL213986   6.009   1.808   5.890  0.0726  0.2409 -0.0614
  959loPI   C1A13987   6.440   2.123   6.106 -0.2362 -0.2714  0.3445
  959loPI   C2A13988   6.352   2.232   6.479  0.1451  0.1009 -0.1327
  959loPI   C3A13989   6.376   2.111   6.900 -0.2244 -0.3059 -0.0314
  959loPI   C4A13990   6.326   1.871   7.348  0.3394 -0.0995  0.1082
  959loPI   C5A13991   5.935   1.891   7.635  0.3546 -0.0201 -0.2240
  959loPI   C6A13992   5.828   2.286   7.772  0.2790  0.1850 -0.0503
  959loPI   C1B13993   6.018   1.785   6.311 -0.0800  0.1423 -0.1593
  959loPI   C2B13994   5.890   1.912   6.768  0.0617  0.1394  0.3533
  959loPI   C3B13995   5.825   2.077   7.156  0.3978 -0.0820 -0.0439
  959loPI   C4B13996   6.134   2.319   7.392 -0.2033 -0.0428  0.1028
  960loPI    C113997  18.178  13.751   4.933 -0.0606  0.0864 -0.0311
  960loPI    C213998  18.273  14.113   5.075 -0.2484  0.0339  0.2350
  960loPI    C313999  17.894  13.985   5.091 -0.1622 -0.2242  0.2580
  960loPI   PO414000  18.361  13.586   5.089 -0.1345 -0.1020  0.0929
  960loPI   GL114001  18.684  13.464   5.437 -0.1612 -0.2173  0.1210
  960loPI   GL214002  18.986  13.619   5.554 -0.1329  0.0687  0.2096
  960loPI   C1A14003  18.561  13.442   5.829  0.2755 -0.1184 -0.0053
  960loPI   C2A14004  18.644  13.537   6.274 -0.3019  0.0604 -0.0979
  960loPI   C3A14005  18.783  13.736   6.574 -0.2652 -0.3049  0.0265
  960loPI   C4A14006  19.031  13.659   6.988 -0.4365  0.0679 -0.1273
  960loPI   C5A14007  19.212  13.638   7.428 -0.4256 -0.0549 -0.0485
  960loPI   C6A14008  19.550  13.630   7.591  0.1031 -0.0548 -0.0646
  960loPI   C1B14009  19.094  13.616   5.882  0.1148  0.3763  0.3483
  960loPI   C2B14010  19.173  13.453   6.331  0.2659 -0.2577  0.1480
  960loPI   C3B14011  19.205  13.225   6.700 -0.1646 -0.2015 -0.2435
  960loPI   C4B14012  19.423  12.795   6.831  0.0795  0.2532  0.0250
  961loPI    C114013   6.199   8.676   5.044 -0.0334  0.1031  0.0773
  961loPI    C214014   6.021   9.014   4.925 -0.0143  0.0212 -0.1894
  961loPI    C314015   5.948   8.671   4.732  0.2071 -0.0681 -0.1170
  961loPI   PO414016   6.179   8.678   5.327 -0.1964  0.1777  0.0997
  961loPI   GL114017   6.134   8.841   5.807  0.0705 -0.0052  0.1481
  961loPI   GL214018   6.405   8.951   5.755 -0.1060  0.0497  0.1241
  961loPI   C1A14019   6.112   8.966   6.228  0.2577  0.1367  0.0298
  961loPI   C2A14020   5.962   8.795   6.544  0.4057  0.1051 -0.2205
  961loPI   C3A14021   5.889   8.585   6.874  0.0939  0.0705 -0.3157
  961loPI   C4A14022   6.046   8.706   7.365  0.0455 -0.2292 -0.1896
  961loPI   C5A14023   6.135   8.414   7.550  0.0745  0.1477 -0.0272
  961loPI   C6A14024   6.211   8.018   7.822 -0.2641  0.0501 -0.2208
  961loPI   C1B14025   6.606   8.820   6.138 -0.1032 -0.1076 -0.0049
  961loPI   C2B14026   6.927   8.749   6.511  0.1212  0.0080 -0.0522
  961loPI   C3B14027   6.918   8.785   6.894  0.1097  0.1900  0.3262
  961loPI   C4B14028   6.948   9.107   7.170 -0.1648  0.1366  0.1125
  962loPI    C114029   5.759   9.472   5.196  0.1060  0.0670  0.1654
  962loPI    C214030   6.037   9.565   4.923 -0.0473 -0.2425 -0.1024
  962loPI    C314031   5.650   9.561   4.821 -0.1508  0.1252  0.2517
  962loPI   PO414032   5.821   9.638   5.391  0.1264  0.0669  0.1271
  962loPI   GL114033   5.805   9.565   5.838 -0.2470  0.1002 -0.1274
  962loPI   GL214034   5.859   9.820   5.848 -0.2367  0.0407  0.2661
  962loPI   C1A14035   5.622   9.287   6.127  0.0337 -0.0127 -0.2615
  962loPI   C2A14036   5.560   9.093   6.478  0.3218  0.2046  0.1188
  962loPI   C3A14037   5.582   8.959   6.916 -0.3816 -0.1573 -0.1346
  962loPI   C4A14038   5.520   8.736   7.287 -0.1690 -0.0394  0.0075
  962loPI   C5A14039   5.374   8.374   7.555  0.1100  0.0127 -0.0308
  962loPI   C6A14040   5.308   7.875   7.339 -0.3206 -0.0131 -0.1146
  962loPI   C1B14041   5.782   9.748   6.342  0.3005  0.1152  0.2487
  962loPI   C2B14042   5.621   9.578   6.721  0.2042  0.2442  0.0851
  962loPI   C3B14043   5.706   9.418   7.112 -0.2428  0.0735 -0.1370
  962loPI   C4B14044   5.499   9.509   7.669 -0.1423  0.0965  0.0862
  963loPI    C114045  11.279  11.128   5.503 -0.1754 -0.0715  0.0404
  963loPI    C214046  11.326  11.380   5.195 -0.0683 -0.3805 -0.2015
  963loPI    C314047  11.034  11.107   5.188 -0.3102 -0.1406  0.1490
  963loPI   PO414048  11.292  11.275   5.743 -0.3444  0.0711 -0.0712
  963loPI   GL114049  11.295  11.149   6.062 -0.1701  0.0784  0.0006
  963loPI   GL214050  11.109  11.266   6.251 -0.2198  0.1405 -0.3005
  963loPI   C1A14051  11.532  11.063   6.377  0.1801  0.1753 -0.2330
  963loPI   C2A14052  11.438  10.911   6.804  0.1101 -0.1088  0.0815
  963loPI   C3A14053  11.268  10.807   7.236  0.0321  0.1143 -0.0935
  963loPI   C4A14054  11.059  10.672   7.545 -0.1593 -0.0277 -0.0984
  963loPI   C5A14055  10.807  10.698   7.803 -0.1639 -0.0118 -0.2999
  963loPI   C6A14056  10.718  11.060   8.150 -0.1194  0.1845  0.0259
  963loPI   C1B14057  10.978  11.206   6.687  0.0069  0.0075  0.1893
  963loPI   C2B14058  10.918  11.144   7.017 -0.3044 -0.1117  0.2364
  963loPI   C3B14059  10.766  11.070   7.350  0.2215  0.1331  0.4118
  963loPI   C4B14060  10.497  11.098   7.747  0.3556 -0.0460  0.1797
  964loPI    C114061  15.717   5.535   4.985  0.1198  0.0246 -0.0096
  964loPI    C214062  15.539   5.893   4.992  0.0283 -0.0208 -0.0012
  964loPI    C314063  15.320   5.561   4.954  0.1178 -0.0726 -0.0700
  964loPI   PO414064  15.853   5.615   5.211 -0.0510  0.1236  0.2111
  964loPI   GL114065  15.825   5.389   5.649 -0.0651 -0.1385  0.0264
  964loPI   GL214066  15.744   5.690   5.835  0.2502  0.0178 -0.0135
  964loPI   C1A14067  15.903   5.161   6.032 -0.0173  0.1509  0.1219
  964loPI   C2A14068  15.836   5.071   6.392 -0.1276  0.0675 -0.2255
  964loPI   C3A14069  15.866   4.922   6.805 -0.3667  0.1388 -0.1888
  964loPI   C4A14070  15.841   4.805   7.251 -0.0570 -0.0596  0.0852
  964loPI   C5A14071  15.559   4.673   7.557 -0.2295  0.2640 -0.0874
  964loPI   C6A14072  15.483   4.726   7.948 -0.3417  0.1744  0.1958
  964loPI   C1B14073  15.498   5.367   6.228 -0.0776 -0.1864 -0.0724
  964loPI   C2B14074  15.421   5.139   6.668 -0.4503  0.1778  0.3663
  964loPI   C3B14075  15.396   4.829   7.028  0.4096  0.1939  0.0264
  964loPI   C4B14076  15.145   4.527   7.253  0.3160 -0.0043 -0.0252
  965loPI    C114077   1.938  11.395   5.470  0.1476  0.1250  0.0376
  965loPI    C214078   1.612  11.272   5.273  0.0264  0.0086  0.3052
  965loPI    C314079   1.924  11.420   5.071 -0.1087 -0.0735  0.0312
  965loPI   PO414080   1.888  11.540   5.723  0.3152  0.0771  0.2231
  965loPI   GL114081   1.925  11.334   6.053 -0.0518  0.0239  0.2136
  965loPI   GL214082   1.627  11.250   6.117  0.0825 -0.4155 -0.0819
  965loPI   C1A14083   1.995  11.643   6.456 -0.0440 -0.2248  0.1904
  965loPI   C2A14084   1.921  11.757   6.857 -0.5814  0.0738 -0.2762
  965loPI   C3A14085   1.730  12.024   7.074  0.2329  0.1453  0.1801
  965loPI   C4A14086   1.739  12.197   7.494  0.2633 -0.0203 -0.2304
  965loPI   C5A14087   1.534  12.485   7.764 -0.1254 -0.0085 -0.2101
  965loPI   C6A14088   1.105  12.697   7.875  0.1421  0.1342  0.1216
  965loPI   C1B14089   1.653  11.293   6.591  0.0501 -0.0427  0.1991
  965loPI   C2B14090   1.664  11.282   7.046  0.3005  0.1267  0.0772
  965loPI   C3B14091   1.535  11.253   7.424  0.3229  0.1122  0.1061
  965loPI   C4B14092   1.566  11.117   7.872  0.1933  0.0735  0.0166
  966loPI    C114093   2.612   5.527   5.223 -0.4167  0.0573 -0.2114
  966loPI    C214094   2.857   5.257   5.059 -0.0059  0.2308  0.0979
  966loPI    C314095   2.615   5.475   4.826 -0.0580 -0.1229 -0.1886
  966loPI   PO414096   2.801   5.618   5.402  0.5214  0.2046  0.0550
  966loPI   GL114097   2.800   5.451   5.939 -0.0790  0.2523  0.1335
  966loPI   GL214098   2.968   5.746   6.092 -0.1205  0.0835  0.0009
  966loPI   C1A14099   2.851   5.277   6.409  0.3322  0.0862 -0.3992
  966loPI   C2A14100   2.871   5.335   6.840 -0.3069 -0.1334 -0.2754
  966loPI   C3A14101   2.969   5.359   7.268  0.2792 -0.2573  0.1167
  966loPI   C4A14102   2.835   5.139   7.521 -0.0034  0.2871 -0.2057
  966loPI   C5A14103   2.456   5.017   7.737  0.2711 -0.1511  0.0897
  966loPI   C6A14104   2.438   4.655   7.861  0.1487  0.1839  0.2718
  966loPI   C1B14105   3.118   5.724   6.498 -0.1933  0.0110 -0.0670
  966loPI   C2B14106   3.142   5.760   6.862 -0.1470  0.1844 -0.0524
  966loPI   C3B14107   3.107   5.998   7.271 -0.0558  0.1204 -0.0520
  966loPI   C4B14108   3.114   6.212   7.639 -0.0063  0.0181 -0.2245
  967loPI    C114109   4.903   0.285   5.373  0.2089 -0.0860  0.1193
  967loPI    C214110   4.520   0.305   5.260  0.2175 -0.1674  0.0744
  967loPI    C314111   4.780   0.090   5.046  0.3508  0.1224 -0.0617
  967loPI   PO414112   4.938   0.222   5.587  0.1507  0.1403  0.1015
  967loPI   GL114113   5.238   0.337   5.839  0.0478 -0.0674  0.4630
  967loPI   GL214114   5.149   0.593   5.977  0.1275 -0.1382  0.1807
  967loPI   C1A14115   5.000   0.126   6.196 -0.0955  0.1179 -0.1774
  967loPI   C2A14116   5.104   0.172   6.590 -0.1500  0.3907  0.2649
  967loPI   C3A14117   5.076   0.331   7.050 -0.1219 -0.0452  0.1564
  967loPI   C4A14118   4.867   0.586   7.268 -0.0569  0.3887  0.2710
  967loPI   C5A14119   4.861   0.833   7.644 -0.0696 -0.2477 -0.1705
  967loPI   C6A14120   5.181   0.911   8.041  0.1324  0.2622  0.0080
  967loPI   C1B14121   5.113   0.633   6.363 -0.0654 -0.2673  0.0503
  967loPI   C2B14122   5.103   0.724   6.763 -0.1660  0.1365  0.2199
  967loPI   C3B14123   5.158   0.940   7.190  0.0852 -0.1729  0.0473
  967loPI   C4B14124   5.239   1.136   7.541  0.1749 -0.4354 -0.3817
  968loPI    C114125   2.724  10.606   5.602 -0.0540  0.0681  0.0148
  968loPI    C214126   2.818  10.428   5.256 -0.0565 -0.1332  0.1157
  968loPI    C314127   2.555  10.730   5.262 -0.0738 -0.1440 -0.0542
  968loPI   PO414128   2.624  10.489   5.737 -0.0603  0.1730  0.1043
  968loPI   GL114129   2.626  10.258   6.117  0.0909  0.0581 -0.0155
  968loPI   GL214130   2.890  10.114   6.080 -0.5471 -0.1499  0.0890
  968loPI   C1A14131   2.655  10.332   6.535  0.0969 -0.0091  0.2446
  968loPI   C2A14132   2.713  10.236   6.913  0.0786 -0.0775  0.0216
  968loPI   C3A14133   2.581  10.265   7.348  0.1338  0.1856 -0.0476
  968loPI   C4A14134   2.600  10.318   7.802  0.2577 -0.1980 -0.1556
  968loPI   C5A14135   2.647  10.644   8.097  0.0243 -0.0666  0.3386
  968loPI   C6A14136   2.899  10.689   8.454 -0.1228 -0.1107  0.0271
  968loPI   C1B14137   2.913   9.921   6.447 -0.2646 -0.0205  0.0795
  968loPI   C2B14138   2.935   9.766   6.773 -0.2818  0.2186 -0.0651
  968loPI   C3B14139   2.945   9.704   7.207 -0.1369  0.1404  0.0282
  968loPI   C4B14140   2.849   9.573   7.635 -0.2241  0.1568 -0.1573
  969loPI    C114141   7.595  17.755   5.307  0.1564 -0.0095 -0.0136
  969loPI    C214142   7.396  18.041   5.109 -0.0113 -0.1077  0.0107
  969loPI    C314143   7.688  17.837   4.927 -0.2261 -0.2607 -0.1682
  969loPI   PO414144   7.445  17.575   5.458  0.2219 -0.1219  0.2423
  969loPI   GL114145   7.385  17.455   5.935 -0.1386  0.2675  0.0753
  969loPI   GL214146   7.566  17.606   6.246  0.3918  0.0541 -0.0370
  969loPI   C1A14147   7.062  17.686   6.240  0.0582  0.2128 -0.1867
  969loPI   C2A14148   7.028  17.668   6.701  0.2163 -0.2327  0.3487
  969loPI   C3A14149   6.790  17.549   7.060 -0.1305 -0.3851  0.0177
  969loPI   C4A14150   6.570  17.553   7.422  0.0236  0.0528 -0.1828
  969loPI   C5A14151   6.832  17.466   7.801 -0.1554 -0.1926  0.1390
  969loPI   C6A14152   6.917  17.242   8.195 -0.1396 -0.2873  0.0228
  969loPI   C1B14153   7.481  17.493   6.511 -0.1368  0.1225  0.1478
  969loPI   C2B14154   7.522  17.515   6.868  0.3469 -0.0401  0.0409
  969loPI   C3B14155   7.359  17.437   7.188  0.1418  0.2127  0.0239
  969loPI   C4B14156   7.214  17.397   7.540 -0.3643  0.0895 -0.0426
  970loPI    C114157  12.824  17.443   5.731  0.2950  0.0788 -0.0245
  970loPI    C214158  12.500  17.577   5.538  0.3247  0.2846  0.0656
  970loPI    C314159  12.723  17.286   5.378  0.2492  0.3303 -0.1252
  970loPI   PO414160  12.858  17.598   5.915  0.2771 -0.0891 -0.0328
  970loPI   GL114161  12.887  17.698   6.295  0.0347 -0.0427  0.3152
  970loPI   GL214162  12.739  17.408   6.575  0.2017  0.1784 -0.0726
  970loPI   C1A14163  13.042  17.846   6.735 -0.4252 -0.0218  0.1217
  970loPI   C2A14164  13.200  18.108   7.075 -0.0638 -0.0007 -0.0007
  970loPI   C3A14165  13.286  18.232   7.501 -0.0517 -0.1009 -0.0754
  970loPI   C4A14166  13.386  18.164   7.859 -0.5950  0.0272 -0.0608
  970loPI   C5A14167  13.343  17.715   7.919 -0.1409 -0.0661 -0.1201
  970loPI   C6A14168  13.364  17.292   8.107  0.0955  0.0987  0.2133
  970loPI   C1B14169  12.884  17.520   7.072 -0.0888  0.1434  0.1070
  970loPI   C2B14170  13.077  17.715   7.366  0.1962 -0.0983  0.2274
  970loPI   C3B14171  13.529  17.834   7.430  0.1981  0.2417  0.0736
  970loPI   C4B14172  13.820  18.122   7.674  0.4057 -0.0173  0.0314
  971loPI    C114173  10.621  10.971   5.407  0.1901  0.1051  0.0635
  971loPI    C214174  10.229  11.031   5.351  0.1647 -0.0861  0.0272
  971loPI    C314175  10.491  11.153   5.075  0.1121 -0.1740 -0.0621
  971loPI   PO414176  10.722  11.061   5.603  0.0747 -0.2269  0.0165
  971loPI   GL114177  10.947  10.862   5.929  0.1582  0.0791  0.3707
  971loPI   GL214178  10.628  10.710   5.992 -0.0817 -0.1678  0.0127
  971loPI   C1A14179  11.062  10.815   6.396 -0.1394  0.0208 -0.2827
  971loPI   C2A14180  10.967  10.645   6.866 -0.0757 -0.1167  0.1912
  971loPI   C3A14181  11.058  10.280   7.217 -0.0979  0.4210 -0.1207
  971loPI   C4A14182  10.983  10.117   7.641  0.0284 -0.2641  0.1611
  971loPI   C5A14183  10.684   9.941   7.961 -0.3018 -0.2579 -0.1273
  971loPI   C6A14184  10.386   9.640   8.265  0.1222  0.4368  0.1533
  971loPI   C1B14185  10.483  10.505   6.380 -0.0948 -0.0479 -0.0267
  971loPI   C2B14186  10.609  10.333   6.924 -0.0879 -0.5144 -0.0688
  971loPI   C3B14187  10.628  10.517   7.350  0.0129 -0.0275  0.0688
  971loPI   C4B14188  10.502  10.340   7.692 -0.1173 -0.1087 -0.0886
  972loPI    C114189  10.332   7.058   5.161  0.1180  0.0722  0.1626
  972loPI    C214190  10.645   7.079   4.913  0.1111  0.2180  0.1654
  972loPI    C314191  10.276   7.026   4.766  0.1295  0.1083  0.1579
  972loPI   PO414192  10.382   6.865   5.366  0.2925  0.0711  0.1534
  972loPI   GL114193  10.537   6.509   5.552 -0.0248 -0.1167  0.2157
  972loPI   GL214194  10.311   6.458   5.732  0.1050  0.0096  0.1502
  972loPI   C1A14195  10.817   6.486   5.966  0.1623  0.0279 -0.0713
  972loPI   C2A14196  11.242   6.278   6.154 -0.2780  0.1913  0.0843
  972loPI   C3A14197  11.510   6.463   6.450 -0.1609  0.1105 -0.1509
  972loPI   C4A14198  11.386   6.411   6.879  0.2034 -0.1217 -0.0793
  972loPI   C5A14199  11.357   6.229   7.295 -0.0726 -0.0021  0.0432
  972loPI   C6A14200  11.376   6.467   7.625  0.0808  0.0614  0.2453
  972loPI   C1B14201  10.295   6.415   6.109 -0.1950 -0.2803  0.1879
  972loPI   C2B14202  10.407   6.489   6.514 -0.3429 -0.1772  0.0147
  972loPI   C3B14203  10.586   6.522   6.903 -0.0217  0.1224 -0.0845
  972loPI   C4B14204  10.945   6.612   7.213 -0.2239 -0.3713 -0.4270
  973loPI    C114205  13.967  12.696   5.628  0.0392  0.1283  0.1042
  973loPI    C214206  13.661  12.529   5.826  0.0535  0.0488  0.0601
  973loPI    C314207  13.591  12.776   5.519  0.0357 -0.1689 -0.1126
  973loPI   PO414208  14.097  12.713   5.860 -0.3184  0.0499 -0.2337
  973loPI   GL114209  14.033  12.729   6.286  0.0383 -0.1308 -0.1383
  973loPI   GL214210  13.983  13.001   6.376 -0.2105 -0.2647  0.0767
  973loPI   C1A14211  13.624  12.664   6.411  0.2765  0.1772  0.2049
  973loPI   C2A14212  13.395  12.508   6.741  0.1578  0.3127 -0.1381
  973loPI   C3A14213  13.375  12.603   7.167  0.0476 -0.2440  0.0894
  973loPI   C4A14214  13.241  12.549   7.456 -0.2177 -0.0698  0.3052
  973loPI   C5A14215  13.462  12.468   7.794 -0.1710  0.2785  0.2056
  973loPI   C6A14216  13.337  12.732   8.217 -0.2229  0.0476 -0.1114
  973loPI   C1B14217  13.930  12.916   6.819 -0.0229 -0.2765 -0.2570
  973loPI   C2B14218  13.826  12.781   7.156 -0.3183  0.0512  0.3718
  973loPI   C3B14219  13.702  12.844   7.568  0.0528 -0.0819  0.2403
  973loPI   C4B14220  13.571  13.069   7.889 -0.2143  0.1250  0.0061
  974loPI    C114221  16.427  12.113   5.742  0.0605 -0.0686 -0.0282
  974loPI    C214222  16.419  12.140   5.343  0.1213  0.0989 -0.0190
  974loPI    C314223  16.621  11.844   5.519  0.2138  0.1071 -0.1105
  974loPI   PO414224  16.347  12.437   5.782  0.2055 -0.0364 -0.1009
  974loPI   GL114225  16.122  12.689   6.123 -0.0102 -0.2978  0.1980
  974loPI   GL214226  15.825  12.828   6.222 -0.3479  0.1323  0.1364
  974loPI   C1A14227  16.324  12.580   6.553  0.1158  0.3329  0.0381
  974loPI   C2A14228  16.331  12.679   6.936  0.1132  0.0016  0.2242
  974loPI   C3A14229  16.407  12.475   7.372  0.1894  0.1281  0.1556
  974loPI   C4A14230  16.592  12.382   7.676  0.1249  0.1193 -0.1137
  974loPI   C5A14231  16.695  12.417   8.243 -0.0768  0.0784 -0.0983
  974loPI   C6A14232  16.694  12.652   8.596 -0.0166 -0.0365  0.0023
  974loPI   C1B14233  16.028  13.044   6.588 -0.1725 -0.1542  0.2228
  974loPI   C2B14234  15.944  13.069   7.023  0.2741 -0.0396 -0.0961
  974loPI   C3B14235  16.151  12.951   7.361  0.3325 -0.4644 -0.2984
  974loPI   C4B14236  16.306  12.836   7.656 -0.4777 -0.3523  0.0953
  975loPI    C114237  16.398   7.137   5.281  0.0382  0.0181 -0.0058
  975loPI    C214238  16.297   6.905   5.591  0.0474 -0.2257 -0.1822
  975loPI    C314239  16.013   7.095   5.382  0.0518  0.0546  0.0609
  975loPI   PO414240  16.592   7.249   5.371  0.0307  0.1564  0.1776
  975loPI   GL114241  16.674   7.211   5.788  0.2198  0.1173  0.0255
  975loPI   GL214242  16.342   7.380   5.771  0.2080  0.1477  0.0038
  975loPI   C1A14243  16.624   7.031   6.174 -0.2194 -0.1276 -0.0300
  975loPI   C2A14244  16.788   6.830   6.561 -0.0401 -0.0501 -0.1832
  975loPI   C3A14245  16.710   6.851   6.926 -0.1377 -0.2667  0.3208
  975loPI   C4A14246  16.847   6.726   7.344 -0.1204 -0.4784  0.3380
  975loPI   C5A14247  16.765   6.364   7.594  0.2035 -0.0572 -0.1988
  975loPI   C6A14248  16.741   5.917   7.763  0.3102 -0.2336 -0.0737
  975loPI   C1B14249  16.124   7.089   6.106 -0.0475  0.1666  0.0476
  975loPI   C2B14250  16.189   7.070   6.502 -0.0188  0.4824  0.2170
  975loPI   C3B14251  16.266   7.144   6.963 -0.3967 -0.3298 -0.0123
  975loPI   C4B14252  16.255   7.243   7.421 -0.1084  0.1404 -0.0693
  976loPI    C114253  10.121   0.219   5.488 -0.3163  0.0415  0.0635
  976loPI    C214254   9.912   0.541   5.378 -0.1379  0.1497  0.0378
  976loPI    C314255   9.992   0.255   5.111 -0.1229  0.1804  0.0094
  976loPI   PO414256  10.119   0.281   5.786 -0.3375 -0.1073  0.1080
  976loPI   GL114257  10.027   0.069   6.083  0.1480  0.0677 -0.0341
  976loPI   GL214258  10.222   0.015   6.329 -0.1591  0.0447  0.5757
  976loPI   C1A14259   9.762   0.212   6.479 -0.0240 -0.1382  0.2056
  976loPI   C2A14260   9.554   0.314   6.849  0.0110  0.2977  0.1655
  976loPI   C3A14261   9.443   0.196   7.170 -0.0574  0.5643  0.1900
  976loPI   C4A14262   9.419  -0.106   7.474 -0.0158 -0.0944 -0.2904
  976loPI   C5A14263   9.319  -0.146   7.941 -0.1189 -0.3703 -0.0835
  976loPI   C6A14264   9.087  -0.351   8.195  0.0283 -0.2663 -0.0236
  976loPI   C1B14265  10.215   0.142   6.718  0.1248 -0.2225 -0.0556
  976loPI   C2B14266  10.429  -0.001   7.152  0.1241 -0.0919  0.1233
  976loPI   C3B14267  10.655  -0.201   7.429 -0.0894 -0.3085 -0.0874
  976loPI   C4B14268  10.796  -0.445   7.780 -0.0715 -0.4059 -0.0120
  977loPI    C114269  14.660   7.512   5.718 -0.0952  0.2838 -0.1630
  977loPI    C214270  14.440   7.178   5.745  0.2370  0.0813  0.1259
  977loPI    C314271  14.566   7.306   5.387 -0.1947  0.1032 -0.0245
  977loPI   PO414272  14.685   7.553   5.990 -0.3538  0.2654  0.3500
  977loPI   GL114273  15.027   7.433   6.171  0.1054  0.3529  0.1779
  977loPI   GL214274  14.819   7.498   6.456 -0.1459  0.0971 -0.3194
  977loPI   C1A14275  15.261   7.183   6.428  0.3941 -0.0046  0.0039
  977loPI   C2A14276  15.426   7.111   6.850 -0.1645 -0.0683  0.2097
  977loPI   C3A14277  15.612   7.094   7.297  0.1870  0.0087  0.0502
  977loPI   C4A14278  15.913   6.890   7.576  0.0875  0.2888  0.2254
  977loPI   C5A14279  16.031   6.823   8.005  0.3215 -0.1926  0.1267
  977loPI   C6A14280  16.316   6.778   8.277  0.1393 -0.1324  0.1054
  977loPI   C1B14281  14.542   7.312   6.726  0.1390 -0.1392  0.1362
  977loPI   C2B14282  14.272   7.409   7.072 -0.1534  0.1479 -0.1024
  977loPI   C3B14283  14.292   7.346   7.480 -0.0532  0.0362  0.3794
  977loPI   C4B14284  14.489   7.277   7.844  0.0109 -0.2483  0.1606
  978loPI    C114285  17.225  17.344   5.011 -0.0941 -0.0449  0.2019
  978loPI    C214286  17.570  17.534   4.942 -0.1134 -0.0818 -0.0051
  978loPI    C314287  17.519  17.160   4.810 -0.1414 -0.1675  0.2435
  978loPI   PO414288  17.211  17.363   5.273  0.1130  0.1145  0.3275
  978loPI   GL114289  17.469  17.441   5.677 -0.0359 -0.0106 -0.0207
  978loPI   GL214290  17.101  17.296   5.816  0.0237 -0.3058  0.3377
  978loPI   C1A14291  17.446  17.400   6.195  0.1337  0.0600 -0.2400
  978loPI   C2A14292  17.504  17.204   6.570  0.2017 -0.1370 -0.1603
  978loPI   C3A14293  17.654  17.089   6.983  0.1606 -0.1607  0.0241
  978loPI   C4A14294  17.931  17.158   7.381 -0.0027  0.1100  0.0220
  978loPI   C5A14295  18.256  17.017   7.698 -0.0012 -0.0161  0.0893
  978loPI   C6A14296  18.667  16.909   7.931  0.1196  0.0161 -0.0266
  978loPI   C1B14297  17.079  17.028   6.246  0.0149 -0.2251 -0.1837
  978loPI   C2B14298  17.049  17.115   6.665  0.0847  0.1036 -0.0152
  978loPI   C3B14299  16.702  17.077   6.952 -0.0638  0.2338 -0.1465
  978loPI   C4B14300  16.576  17.076   7.401 -0.0194 -0.0796  0.2298
  979loPI    C114301   1.462  15.866   5.242  0.2372  0.0236 -0.0618
  979loPI    C214302   1.778  15.638   5.151  0.0537 -0.2535 -0.0197
  979loPI    C314303   1.470  15.663   4.897  0.1465  0.0924 -0.1047
  979loPI   PO414304   1.515  15.900   5.590 -0.0899  0.0513  0.1344
  979loPI   GL114305   1.412  15.598   5.907  0.2970  0.1369  0.0833
  979loPI   GL214306   1.253  15.950   5.989  0.1166  0.2265 -0.2414
  979loPI   C1A14307   1.389  15.545   6.368 -0.0926 -0.1233  0.0931
  979loPI   C2A14308   1.209  15.786   6.690  0.1839  0.2070 -0.0479
  979loPI   C3A14309   1.141  15.963   7.081 -0.0236  0.1673 -0.2488
  979loPI   C4A14310   1.330  16.169   7.342 -0.1227 -0.0380 -0.0248
  979loPI   C5A14311   1.830  16.191   7.410  0.1748 -0.1656 -0.2257
  979loPI   C6A14312   2.138  16.178   7.148  0.0276 -0.0861  0.2239
  979loPI   C1B14313   0.924  15.779   6.195  0.1678  0.0330 -0.2574
  979loPI   C2B14314   0.909  15.448   6.528 -0.0864 -0.0328 -0.2893
  979loPI   C3B14315   0.774  15.397   6.917 -0.0099 -0.1722 -0.1349
  979loPI   C4B14316   0.631  15.124   7.280  0.2343 -0.1047  0.1348
  980loPI    C114317   1.986   1.634   5.365  0.1790 -0.0432 -0.0248
  980loPI    C214318   2.187   1.304   5.261  0.0570 -0.0245 -0.3313
  980loPI    C314319   2.346   1.665   5.192  0.1089 -0.0151 -0.1673
  980loPI   PO414320   1.981   1.612   5.616  0.2220  0.2853 -0.2326
  980loPI   GL114321   2.247   1.570   6.039  0.2774 -0.0862 -0.1029
  980loPI   GL214322   2.530   1.718   6.181 -0.0388 -0.0876  0.1579
  980loPI   C1A14323   2.462   1.186   6.160 -0.0127  0.0642 -0.0207
  980loPI   C2A14324   2.455   1.180   6.530  0.1105  0.0573 -0.2646
  980loPI   C3A14325   2.359   1.078   6.953 -0.3177 -0.0655  0.1532
  980loPI   C4A14326   2.420   0.623   7.148 -0.1506 -0.2878 -0.1184
  980loPI   C5A14327   2.438   0.452   7.675  0.2011  0.1155  0.0294
  980loPI   C6A14328   2.270   0.352   8.150  0.0210 -0.0016  0.1748
  980loPI   C1B14329   2.622   1.649   6.549 -0.0888 -0.0705  0.1320
  980loPI   C2B14330   2.768   1.765   6.913  0.2165 -0.0684 -0.0843
  980loPI   C3B14331   2.822   1.944   7.316  0.0556 -0.3024 -0.0172
  980loPI   C4B14332   2.647   2.146   7.701  0.2574  0.2522 -0.1392
  981loPI    C114333   6.938   2.539   5.197 -0.1169  0.0550  0.1489
  981loPI    C214334   7.170   2.690   4.909  0.0113 -0.1600  0.1367
  981loPI    C314335   6.789   2.809   4.943  0.0081 -0.1006 -0.0930
  981loPI   PO414336   7.020   2.595   5.504 -0.2125 -0.0076 -0.0123
  981loPI   GL114337   7.107   2.775   5.828 -0.0680 -0.2558 -0.1046
  981loPI   GL214338   7.301   3.122   5.834  0.1499  0.0090 -0.2134
  981loPI   C1A14339   6.821   2.688   6.158 -0.1423 -0.5547 -0.1979
  981loPI   C2A14340   6.601   2.673   6.679  0.4917 -0.1971  0.0165
  981loPI   C3A14341   6.436   3.045   6.927  0.2462 -0.1630 -0.0336
  981loPI   C4A14342   6.522   3.148   7.386 -0.1826  0.3232 -0.1562
  981loPI   C5A14343   6.697   3.251   7.772 -0.0816 -0.2037 -0.2635
  981loPI   C6A14344   6.638   2.955   8.130 -0.1757 -0.0584 -0.0679
  981loPI   C1B14345   7.207   3.058   6.270 -0.1137  0.0474 -0.1240
  981loPI   C2B14346   6.955   3.073   6.601 -0.1200 -0.0285  0.0508
  981loPI   C3B14347   6.968   3.173   7.085  0.2582  0.0421  0.0574
  981loPI   C4B14348   7.138   3.195   7.523 -0.0885 -0.2520 -0.3267
  982loPI    C114349  11.671   9.239   5.504  0.1174 -0.2446  0.2611
  982loPI    C214350  11.798   8.986   5.222 -0.1494 -0.0474 -0.0431
  982loPI    C314351  11.605   9.320   5.118 -0.1033  0.1131  0.3692
  982loPI   PO414352  11.876   9.229   5.686  0.0006  0.0047 -0.0094
  982loPI   GL114353  12.046   9.002   5.931  0.0468  0.1156 -0.2473
  982loPI   GL214354  12.249   9.247   6.030 -0.1672  0.2240  0.3962
  982loPI   C1A14355  11.782   8.970   6.233 -0.1945  0.0694 -0.0425
  982loPI   C2A14356  11.668   9.143   6.540  0.0103  0.0307 -0.1170
  982loPI   C3A14357  11.630   9.097   7.001 -0.0050  0.2330  0.2042
  982loPI   C4A14358  11.596   9.165   7.432  0.0931 -0.0614  0.0209
  982loPI   C5A14359  11.499   9.147   7.873  0.1579  0.2727  0.0281
  982loPI   C6A14360  11.071   9.080   8.072 -0.2838 -0.3283 -0.0679
  982loPI   C1B14361  12.176   9.214   6.529 -0.0584 -0.3428  0.1903
  982loPI   C2B14362  12.179   9.198   6.883  0.3281 -0.2586  0.0892
  982loPI   C3B14363  12.110   9.224   7.385  0.0885 -0.0777  0.1317
  982loPI   C4B14364  12.140   8.972   7.662  0.1434  0.2017  0.0841
  983loPI    C114365   0.131   2.565   5.159  0.1640  0.0447  0.0115
  983loPI    C214366   0.053   2.415   4.797 -0.1914  0.1938  0.0222
  983loPI    C314367  -0.104   2.767   4.905 -0.1196  0.1320  0.3359
  983loPI   PO414368   0.032   2.420   5.403  0.1624  0.0711  0.2898
  983loPI   GL114369  -0.252   2.359   5.758 -0.0031  0.0942  0.2189
  983loPI   GL214370  -0.615   2.489   5.680  0.0730 -0.0905 -0.0013
  983loPI   C1A14371  -0.298   2.667   6.022 -0.2753 -0.0305  0.1026
  983loPI   C2A14372  -0.302   2.806   6.393 -0.0416  0.0979  0.0069
  983loPI   C3A14373  -0.225   2.782   6.804 -0.1468 -0.4727  0.0908
  983loPI   C4A14374  -0.059   2.803   7.245  0.1556 -0.1531 -0.0530
  983loPI   C5A14375   0.025   3.085   7.547  0.0814 -0.1678 -0.2091
  983loPI   C6A14376  -0.394   3.142   7.725 -0.3691 -0.3176 -0.0966
  983loPI   C1B14377  -0.637   2.359   6.132 -0.3127  0.0615 -0.0534
  983loPI   C2B14378  -0.372   2.320   6.498 -0.0971 -0.1541 -0.0283
  983loPI   C3B14379  -0.395   2.330   6.943  0.1455  0.0228  0.0782
  983loPI   C4B14380  -0.575   2.379   7.458  0.0220  0.0505 -0.0026
  984loPI    C114381  11.843  14.874   6.096  0.1120  0.0471  0.0589
  984loPI    C214382  12.145  14.642   5.971  0.1287  0.0765  0.0444
  984loPI    C314383  11.917  14.834   5.705  0.0498 -0.0052  0.0524
  984loPI   PO414384  12.005  15.062   6.261  0.2532  0.1125  0.0367
  984loPI   GL114385  11.925  14.997   6.621  0.0085 -0.0420  0.1306
  984loPI   GL214386  11.605  15.016   6.563  0.0885 -0.3457 -0.0503
  984loPI   C1A14387  11.971  14.779   6.979 -0.2876 -0.0086 -0.0182
  984loPI   C2A14388  12.124  14.634   7.434  0.1626 -0.1139  0.0885
  984loPI   C3A14389  12.123  14.366   7.718 -0.1203  0.0898  0.2223
  984loPI   C4A14390  12.096  14.225   8.109 -0.0240 -0.2004  0.1024
  984loPI   C5A14391  12.409  14.064   8.366 -0.1148  0.0674  0.0473
  984loPI   C6A14392  12.729  13.700   8.247  0.1542 -0.0839  0.0729
  984loPI   C1B14393  11.545  15.050   6.977  0.0487  0.0687 -0.2999
  984loPI   C2B14394  11.659  14.983   7.479 -0.1915  0.2789 -0.0726
  984loPI   C3B14395  11.656  15.137   7.903  0.0624 -0.1150  0.3855
  984loPI   C4B14396  11.318  14.944   8.096  0.0574 -0.1853  0.2278
  985loPI    C114397   8.243   2.998   5.124 -0.1477 -0.2822 -0.0301
  985loPI    C214398   7.926   2.827   4.950 -0.0939 -0.1365 -0.2769
  985loPI    C314399   8.258   2.894   4.738  0.0373 -0.1183 -0.0686
  985loPI   PO414400   8.089   3.067   5.382 -0.1937 -0.0244  0.2667
  985loPI   GL114401   7.760   2.946   5.637 -0.1123  0.1914 -0.1493
  985loPI   GL214402   7.752   3.333   5.750  0.1267  0.0895  0.1943
  985loPI   C1A14403   7.731   2.997   6.110  0.0572 -0.2092 -0.0170
  985loPI   C2A14404   7.659   3.033   6.507 -0.1238  0.0587 -0.0489
  985loPI   C3A14405   7.929   2.951   6.887  0.0933  0.1319 -0.1271
  985loPI   C4A14406   8.006   2.878   7.316 -0.1100  0.0621 -0.3740
  985loPI   C5A14407   8.011   2.863   7.730  0.0647  0.1390 -0.0442
  985loPI   C6A14408   8.110   3.156   8.058 -0.1187  0.0777  0.3417
  985loPI   C1B14409   8.021   3.584   5.965 -0.0983 -0.0412  0.2433
  985loPI   C2B14410   8.218   3.723   6.309  0.1505  0.0582 -0.1604
  985loPI   C3B14411   8.126   3.779   6.835 -0.2643 -0.2829 -0.2852
  985loPI   C4B14412   8.276   3.734   7.252 -0.2209 -0.1393  0.0033
  986loPI    C114413  17.647  10.929   5.840 -0.1388  0.0687 -0.0251
  986loPI    C214414  17.914  10.650   5.736  0.2520  0.3082  0.3035
  986loPI    C314415  17.809  10.934   5.474 -0.1189 -0.1121 -0.0195
  986loPI   PO414416  17.393  10.755   5.953  0.0036  0.0784 -0.1378
  986loPI   GL114417  17.387  10.384   6.025 -0.0414  0.1581 -0.3039
  986loPI   GL214418  17.527  10.258   6.134 -0.0481  0.1796 -0.1669
  986loPI   C1A14419  17.006  10.370   6.416 -0.2230  0.0796 -0.1440
  986loPI   C2A14420  17.060  10.319   6.896 -0.2023 -0.0620  0.2830
  986loPI   C3A14421  17.024  10.520   7.339  0.0623  0.3323 -0.1001
  986loPI   C4A14422  17.215  10.526   7.701  0.2080 -0.0698 -0.1100
  986loPI   C5A14423  17.172  10.855   8.113  0.2901  0.2057  0.1100
  986loPI   C6A14424  17.020  11.205   8.221 -0.0218  0.1231  0.1418
  986loPI   C1B14425  17.916  10.351   6.465  0.1325 -0.0164 -0.1761
  986loPI   C2B14426  18.152  10.685   6.683  0.1153 -0.0714  0.1193
  986loPI   C3B14427  18.222  10.774   7.129  0.0884 -0.1872 -0.0009
  986loPI   C4B14428  18.058  11.006   7.430 -0.0904 -0.0744  0.0278
  987loPI    C114429   4.815  12.020   5.131  0.0528  0.1033  0.2760
  987loPI    C214430   4.561  12.314   5.228 -0.0243  0.1500 -0.0547
  987loPI    C314431   4.664  12.257   4.846  0.4740  0.1386  0.0744
  987loPI   PO414432   4.978  12.054   5.425 -0.0371  0.0605  0.0797
  987loPI   GL114433   4.880  11.935   5.792 -0.0660  0.3907  0.2198
  987loPI   GL214434   4.923  11.687   6.046  0.0210  0.0142  0.0658
  987loPI   C1A14435   4.489  11.934   6.006 -0.0247  0.0967 -0.5298
  987loPI   C2A14436   4.390  11.932   6.393  0.1879  0.0908 -0.0520
  987loPI   C3A14437   4.336  12.218   6.722  0.1643 -0.1086 -0.2452
  987loPI   C4A14438   4.215  12.507   6.964  0.2859 -0.1743  0.5410
  987loPI   C5A14439   4.309  12.817   7.300  0.1182  0.1420  0.1029
  987loPI   C6A14440   4.236  13.026   7.597  0.0354 -0.2798 -0.1769
  987loPI   C1B14441   4.765  11.523   6.398  0.0487 -0.0271  0.0914
  987loPI   C2B14442   4.660  11.542   6.803 -0.0591 -0.1830 -0.3278
  987loPI   C3B14443   4.394  11.829   7.026  0.1017 -0.0821  0.3816
  987loPI   C4B14444   4.153  11.990   7.222 -0.1531  0.2503  0.1030
  988loPI    C114445   5.571  10.631   5.115  0.2545  0.1427  0.2092
  988loPI    C214446   5.210  10.795   5.058  0.2182  0.0432  0.1494
  988loPI    C314447   5.508  10.875   4.804  0.1860 -0.0244  0.0901
  988loPI   PO414448   5.533  10.742   5.453 -0.0215  0.3218  0.3592
  988loPI   GL114449   5.525  10.774   5.924  0.1432 -0.2028  0.2224
  988loPI   GL214450   5.646  10.443   5.934 -0.0638 -0.0360 -0.4839
  988loPI   C1A14451   5.608  10.958   6.265  0.1227 -0.3058 -0.3077
  988loPI   C2A14452   5.618  11.050   6.657 -0.1459 -0.1721 -0.2229
  988loPI   C3A14453   5.565  11.224   7.054 -0.1634  0.3189  0.0797
  988loPI   C4A14454   5.416  11.488   7.418  0.2214  0.0239  0.0192
  988loPI   C5A14455   5.362  11.345   7.841 -0.2411  0.0732 -0.1969
  988loPI   C6A14456   5.427  11.515   8.311  0.2409 -0.2027 -0.0771
  988loPI   C1B14457   5.527  10.385   6.312  0.2683 -0.5608  0.0703
  988loPI   C2B14458   5.671  10.489   6.705  0.3262 -0.0765 -0.1271
  988loPI   C3B14459   5.820  10.633   7.079 -0.1075  0.0182  0.0222
  988loPI   C4B14460   5.848  10.574   7.499  0.0700  0.1414 -0.3019
  989loPI    C114461  10.884  14.684   5.794  0.0032 -0.0642  0.0081
  989loPI    C214462  11.035  14.583   5.438  0.0308  0.0927 -0.0253
  989loPI    C314463  10.860  14.940   5.488 -0.0984  0.0154  0.0815
  989loPI   PO414464  10.865  14.428   5.859  0.1637  0.2448 -0.1963
  989loPI   GL114465  10.832  14.360   6.275 -0.0299 -0.2816 -0.3842
  989loPI   GL214466  10.538  14.283   6.449 -0.3919  0.1074  0.0104
  989loPI   C1A14467  11.077  14.508   6.694  0.0609  0.0318  0.1719
  989loPI   C2A14468  10.944  14.466   7.073  0.0153  0.2484  0.0866
  989loPI   C3A14469  10.914  14.642   7.464 -0.6213 -0.0665  0.0944
  989loPI   C4A14470  10.904  14.751   7.805 -0.0829 -0.2996 -0.0484
  989loPI   C5A14471  10.783  14.988   8.191  0.0920  0.1559  0.0847
  989loPI   C6A14472  10.879  15.249   8.569  0.0512 -0.3660 -0.0289
  989loPI   C1B14473  10.560  14.204   6.855 -0.0220 -0.2066  0.0121
  989loPI   C2B14474  10.531  14.218   7.232 -0.1256  0.1323  0.4743
  989loPI   C3B14475  10.354  14.099   7.595 -0.0663 -0.0272  0.1704
  989loPI   C4B14476  10.284  14.122   8.054 -0.1893 -0.0062  0.0948
  990loPI    C114477   1.084   1.768   5.489  0.0733  0.3955  0.0402
  990loPI    C214478   1.030   1.458   5.242  0.2520  0.2610  0.1677
  990loPI    C314479   1.146   1.812   5.096 -0.2546  0.3589 -0.0186
  990loPI   PO414480   0.868   1.647   5.696 -0.0175 -0.1318 -0.1096
  990loPI   GL114481   0.834   1.941   5.970 -0.1001  0.1462  0.0585
  990loPI   GL214482   0.851   2.302   6.024 -0.0309 -0.0268 -0.0742
  990loPI   C1A14483   0.439   2.027   6.053  0.4040  0.0744 -0.0792
  990loPI   C2A14484   0.415   1.902   6.513 -0.0125  0.0415 -0.0658
  990loPI   C3A14485   0.444   1.758   6.967 -0.0737 -0.3552 -0.2495
  990loPI   C4A14486   0.409   1.450   7.250  0.4111  0.0041 -0.0789
  990loPI   C5A14487   0.455   1.289   7.698 -0.1319  0.0108  0.0588
  990loPI   C6A14488   0.140   1.434   7.920  0.3765 -0.0547 -0.1628
  990loPI   C1B14489   0.710   2.256   6.490  0.1076  0.0709 -0.3140
  990loPI   C2B14490   0.761   2.236   6.963  0.0346  0.3026  0.3503
  990loPI   C3B14491   0.930   2.035   7.274 -0.1760 -0.1704  0.0612
  990loPI   C4B14492   1.226   1.916   7.509 -0.0295  0.0803 -0.1738
  991loPI    C114493   5.702   3.884   5.260 -0.0459  0.0194  0.0882
  991loPI    C214494   6.092   3.893   5.348 -0.0738  0.1664  0.2009
  991loPI    C314495   5.887   4.235   5.312 -0.1342  0.0996 -0.1254
  991loPI   PO414496   5.595   3.717   5.394  0.3464 -0.3536 -0.0436
  991loPI   GL114497   5.709   3.808   5.765  0.0376  0.1894 -0.1559
  991loPI   GL214498   5.783   3.394   5.890 -0.0785  0.0499  0.2643
  991loPI   C1A14499   5.581   3.749   6.200  0.1440 -0.2138 -0.2016
  991loPI   C2A14500   5.745   3.907   6.640  0.1548 -0.1655 -0.2208
  991loPI   C3A14501   5.579   3.848   7.069 -0.1490  0.2504  0.5048
  991loPI   C4A14502   5.550   3.640   7.439  0.0585 -0.0973  0.0032
  991loPI   C5A14503   5.281   3.471   7.708  0.0686 -0.1812  0.1162
  991loPI   C6A14504   4.896   3.171   7.864 -0.1307  0.0989 -0.1079
  991loPI   C1B14505   6.003   3.260   6.248  0.1655  0.1974  0.2266
  991loPI   C2B14506   6.033   3.497   6.694  0.0293  0.3225  0.2204
  991loPI   C3B14507   6.048   3.720   7.016  0.0187  0.3137  0.2897
  991loPI   C4B14508   6.167   3.777   7.292 -0.2049 -0.1542 -0.1489
  992loPI    C114509   4.550  13.288   4.890  0.0752  0.1348  0.0672
  992loPI    C214510   4.934  13.186   4.846  0.1509  0.3480  0.2193
  992loPI    C314511   4.820  13.564   4.786 -0.0347  0.2872  0.1833
  992loPI   PO414512   4.488  13.268   5.189 -0.0727 -0.1457  0.2042
  992loPI   GL114513   4.330  13.330   5.601  0.1793  0.0932 -0.1703
  992loPI   GL214514   4.190  13.047   5.711  0.0102 -0.1130 -0.2824
  992loPI   C1A14515   4.498  13.390   5.941 -0.1207  0.0556  0.4531
  992loPI   C2A14516   4.418  13.280   6.412 -0.2957  0.0402  0.1138
  992loPI   C3A14517   4.445  13.526   6.820  0.1229 -0.1819 -0.2829
  992loPI   C4A14518   4.327  13.678   7.294  0.2812 -0.1037 -0.2723
  992loPI   C5A14519   4.163  13.589   7.609  0.0030  0.1770 -0.2170
  992loPI   C6A14520   3.717  13.573   7.807  0.1986 -0.2735 -0.0682
  992loPI   C1B14521   4.049  13.184   6.089  0.1831 -0.2588  0.1729
  992loPI   C2B14522   3.950  13.078   6.436 -0.5158  0.1581  0.0155
  992loPI   C3B14523   4.018  13.243   6.740  0.0241 -0.0852 -0.0463
  992loPI   C4B14524   4.121  13.270   7.197 -0.3873 -0.1936 -0.0483
  993loPI    C114525  12.327  17.404   5.977  0.1048 -0.0396  0.2441
  993loPI    C214526  11.983  17.208   6.034  0.1330 -0.2294 -0.1945
  993loPI    C314527  11.981  17.570   5.864  0.1201 -0.0435  0.1906
  993loPI   PO414528  12.410  17.500   6.231 -0.0408 -0.1043  0.2232
  993loPI   GL114529  12.153  17.465   6.510  0.2365  0.0021  0.1739
  993loPI   GL214530  11.917  17.164   6.551  0.0408  0.1974 -0.1353
  993loPI   C1A14531  12.033  17.755   6.751 -0.0540 -0.0180 -0.0748
  993loPI   C2A14532  12.098  17.789   7.219  0.0747  0.0522 -0.1414
  993loPI   C3A14533  11.915  17.645   7.735 -0.0514  0.2440  0.1368
  993loPI   C4A14534  12.007  17.835   8.161  0.3951  0.0040  0.0314
  993loPI   C5A14535  12.330  17.973   8.330  0.1410 -0.2562  0.1866
  993loPI   C6A14536  12.357  18.080   8.731  0.1823 -0.0023 -0.0953
  993loPI   C1B14537  11.956  17.331   7.063  0.1031  0.0791 -0.0344
  993loPI   C2B14538  11.951  17.226   7.485  0.0184  0.2267 -0.0881
  993loPI   C3B14539  11.761  17.045   7.767  0.1470  0.0589 -0.0356
  993loPI   C4B14540  11.571  16.945   8.222 -0.0567 -0.0482  0.1103
  994loPI    C114541   2.777  17.210   5.548 -0.1334  0.1766 -0.0596
  994loPI    C214542   2.534  17.298   5.242 -0.0184  0.0039 -0.2025
  994loPI    C314543   2.912  17.187   5.172 -0.0154 -0.1174 -0.0018
  994loPI   PO414544   2.802  17.405   5.699  0.1941 -0.0290 -0.1550
  994loPI   GL114545   2.614  17.552   6.052  0.1295  0.0553  0.2555
  994loPI   GL214546   2.256  17.517   6.063 -0.0089 -0.1970 -0.3284
  994loPI   C1A14547   2.805  17.614   6.550  0.1334 -0.1464  0.1014
  994loPI   C2A14548   3.038  17.696   6.824 -0.2853  0.1881 -0.0541
  994loPI   C3A14549   3.405  17.695   7.185  0.2263  0.3467  0.5402
  994loPI   C4A14550   3.500  17.463   7.561  0.1017 -0.1177  0.0548
  994loPI   C5A14551   3.701  17.271   7.829  0.1492  0.0686 -0.1600
  994loPI   C6A14552   3.997  16.911   7.763 -0.3893 -0.1714  0.4318
  994loPI   C1B14553   2.101  17.461   6.499 -0.0665 -0.1113  0.3544
  994loPI   C2B14554   2.113  17.445   6.930 -0.0009 -0.1013  0.0307
  994loPI   C3B14555   2.012  17.562   7.301  0.1133  0.2841  0.0161
  994loPI   C4B14556   1.640  17.840   7.388  0.2061 -0.3879 -0.1951
  995loPI    C114557   9.074   9.249   5.587 -0.1228 -0.0903  0.0683
  995loPI    C214558   8.747   9.373   5.393  0.0509  0.3751  0.0600
  995loPI    C314559   9.080   9.288   5.189 -0.0461 -0.0560  0.0726
  995loPI   PO414560   9.104   9.482   5.805  0.0697  0.2597 -0.0510
  995loPI   GL114561   8.758   9.669   6.136  0.0150  0.0672  0.1726
  995loPI   GL214562   8.497   9.484   6.263  0.1097  0.2965 -0.1313
  995loPI   C1A14563   9.031   9.548   6.513  0.3788 -0.2430 -0.0208
  995loPI   C2A14564   8.757   9.323   6.742 -0.0452 -0.3479  0.1254
  995loPI   C3A14565   8.583   9.306   7.186 -0.0473  0.1039  0.0823
  995loPI   C4A14566   8.178   9.370   7.374  0.0954 -0.3466  0.1104
  995loPI   C5A14567   8.003   9.733   7.197  0.0082  0.0144 -0.1173
  995loPI   C6A14568   7.892  10.101   7.323  0.1203 -0.2542 -0.2017
  995loPI   C1B14569   8.064   9.335   6.321  0.2940 -0.2025 -0.0807
  995loPI   C2B14570   7.639   9.221   6.104 -0.0137  0.0469 -0.3671
  995loPI   C3B14571   7.347   8.862   6.149  0.2301  0.0419 -0.1299
  995loPI   C4B14572   7.397   8.477   6.210  0.3938 -0.1132  0.2783
  996loPI    C114573  17.615  15.430   5.528  0.1473  0.3106 -0.1085
  996loPI    C214574  17.291  15.641   5.628 -0.0384  0.0163 -0.0758
  996loPI    C314575  17.407  15.622   5.246 -0.0132  0.1853 -0.0773
  996loPI   PO414576  17.621  15.242   5.674 -0.0376  0.0382  0.0455
  996loPI   GL114577  17.330  15.411   6.016  0.0240 -0.0617  0.3510
  996loPI   GL214578  17.623  15.584   6.012  0.0924 -0.0644  0.4284
  996loPI   C1A14579  17.322  15.297   6.423  0.1915  0.1045  0.0609
  996loPI   C2A14580  17.283  15.161   6.801  0.0757  0.2738 -0.1693
  996loPI   C3A14581  17.334  15.087   7.285 -0.1605  0.2509  0.1163
  996loPI   C4A14582  17.380  14.873   7.649 -0.3066  0.0084 -0.0479
  996loPI   C5A14583  17.696  14.901   8.028  0.0612 -0.1688  0.3730
  996loPI   C6A14584  18.117  15.066   8.026  0.1248 -0.3103  0.1125
  996loPI   C1B14585  17.833  15.512   6.488  0.0728 -0.0308  0.2177
  996loPI   C2B14586  17.717  15.407   6.857  0.1714 -0.1970 -0.0899
  996loPI   C3B14587  17.729  15.379   7.311 -0.3321 -0.1344  0.1199
  996loPI   C4B14588  17.669  15.320   7.766 -0.4061  0.0848 -0.4270
  997loPI    C114589  13.309   6.539   5.365  0.0264  0.0229  0.3068
  997loPI    C214590  13.050   6.244   5.288 -0.0205  0.1921 -0.2182
  997loPI    C314591  12.920   6.589   5.444 -0.0612  0.1601 -0.1811
  997loPI   PO414592  13.554   6.355   5.515 -0.3730  0.0929 -0.1603
  997loPI   GL114593  13.529   6.269   5.929  0.0465  0.0171 -0.0728
  997loPI   GL214594  13.658   5.956   5.977  0.1192 -0.0513 -0.4778
  997loPI   C1A14595  13.572   6.337   6.436 -0.1604  0.4507 -0.1082
  997loPI   C2A14596  13.702   6.112   6.802 -0.1648  0.2639 -0.1304
  997loPI   C3A14597  13.727   5.993   7.198 -0.3225  0.1877 -0.2651
  997loPI   C4A14598  13.847   5.775   7.552 -0.0017 -0.2341 -0.0974
  997loPI   C5A14599  14.133   5.651   7.929 -0.2360  0.0899  0.2923
  997loPI   C6A14600  14.256   5.808   8.403 -0.0947 -0.0389 -0.2702
  997loPI   C1B14601  13.639   5.839   6.340  0.2021 -0.0714 -0.2582
  997loPI   C2B14602  13.942   5.723   6.666  0.1715  0.1253 -0.3421
  997loPI   C3B14603  13.888   5.550   7.060 -0.1876  0.1589  0.1982
  997loPI   C4B14604  13.969   5.296   7.423 -0.0052  0.0177  0.1218
  998loPI    C114605   9.686  12.232   5.446 -0.0449  0.0190  0.0559
  998loPI    C214606   9.598  12.600   5.316 -0.0243  0.0247  0.0580
  998loPI    C314607   9.923  12.412   5.178 -0.0272  0.0128  0.0674
  998loPI   PO414608   9.645  12.251   5.630 -0.0646 -0.1886  0.0880
  998loPI   GL114609   9.448  12.098   5.958  0.0956 -0.3176  0.0448
  998loPI   GL214610   9.591  11.809   6.122 -0.0414  0.0923  0.0091
  998loPI   C1A14611   9.374  12.172   6.417  0.0176  0.0668  0.2857
  998loPI   C2A14612   9.515  12.144   6.829  0.3084  0.4517  0.2015
  998loPI   C3A14613   9.556  12.171   7.256 -0.2245 -0.1709  0.1487
  998loPI   C4A14614   9.473  12.021   7.582 -0.2717 -0.1301 -0.1867
  998loPI   C5A14615   9.268  12.236   7.921 -0.2316  0.0873 -0.2481
  998loPI   C6A14616   8.974  12.613   7.924 -0.0634 -0.0773  0.0308
  998loPI   C1B14617   9.849  11.849   6.499 -0.0871  0.1044  0.0173
  998loPI   C2B14618   9.980  11.789   6.963  0.2442 -0.1384  0.0935
  998loPI   C3B14619   9.957  11.813   7.429  0.3000  0.0169  0.2891
  998loPI   C4B14620   9.953  11.826   7.876  0.1396 -0.0030  0.1662
  999loPI    C114621  14.562   3.058   5.081 -0.1104 -0.2427 -0.1074
  999loPI    C214622  14.865   3.245   4.899  0.0451 -0.1899  0.2009
  999loPI    C314623  14.634   2.993   4.693  0.0705  0.0474 -0.1253
  999loPI   PO414624  14.685   3.054   5.341  0.2417 -0.1589 -0.2131
  999loPI   GL114625  14.468   3.110   5.814 -0.1347 -0.3309  0.2593
  999loPI   GL214626  14.255   2.909   5.756  0.0688 -0.0082 -0.0970
  999loPI   C1A14627  14.250   3.165   6.217 -0.0610  0.0387  0.0096
  999loPI   C2A14628  14.106   3.491   6.509 -0.1957 -0.1897  0.1390
  999loPI   C3A14629  13.853   3.721   6.579 -0.2291 -0.0615 -0.2109
  999loPI   C4A14630  13.812   4.002   6.834  0.3038 -0.0415 -0.0152
  999loPI   C5A14631  13.829   4.095   7.248 -0.0929 -0.2874  0.0010
  999loPI   C6A14632  13.972   3.868   7.555  0.3630  0.1150 -0.1620
  999loPI   C1B14633  13.871   3.091   5.897  0.2742 -0.1797 -0.3299
  999loPI   C2B14634  13.642   3.326   6.277  0.0261  0.3533 -0.3239
  999loPI   C3B14635  13.491   3.363   6.727 -0.2670 -0.0878  0.3652
  999loPI   C4B14636  13.266   3.022   6.981 -0.2985  0.0225  0.2586
 1000loPI    C114637   9.037   2.771   5.275  0.0761 -0.0106  0.1932
 1000loPI    C214638   8.706   2.767   5.050  0.0839 -0.0980  0.1830
 1000loPI    C314639   9.050   2.903   4.897  0.0652 -0.0580  0.1763
 1000loPI   PO414640   8.972   2.933   5.555 -0.4174 -0.1557 -0.0652
 1000loPI   GL114641   8.741   3.103   5.849 -0.1244  0.0825  0.1373
 1000loPI   GL214642   8.715   2.798   6.025  0.1052 -0.1760  0.2890
 1000loPI   C1A14643   8.751   3.305   6.265  0.1621  0.2812  0.0364
 1000loPI   C2A14644   8.874   3.281   6.634  0.0791  0.2702  0.3416
 1000loPI   C3A14645   8.816   3.024   6.950 -0.1264  0.0657 -0.2475
 1000loPI   C4A14646   9.004   2.967   7.371  0.1325  0.5078 -0.3598
 1000loPI   C5A14647   9.147   3.163   7.811  0.1829  0.4885  0.2756
 1000loPI   C6A14648   9.424   3.484   7.919  0.1512  0.0918 -0.0021
 1000loPI   C1B14649   8.620   2.827   6.468  0.1120  0.5437  0.1119
 1000loPI   C2B14650   8.388   2.745   6.826 -0.0617 -0.0175  0.0139
 1000loPI   C3B14651   8.203   2.437   7.065 -0.0597  0.0612 -0.1121
 1000loPI   C4B14652   8.101   2.410   7.526  0.0293 -0.0837 -0.1836
 1001loPI    C114653   6.003   0.020   5.303 -0.1166 -0.1277 -0.2555
 1001loPI    C214654   6.252   0.031   4.989  0.2398 -0.1092  0.0211
 1001loPI    C314655   6.315  -0.230   5.286 -0.1344 -0.1743  0.0479
 1001loPI   PO414656   5.998   0.245   5.379 -0.0819 -0.2703 -0.1937
 1001loPI   GL114657   6.063   0.263   5.855  0.0512 -0.2136  0.1519
 1001loPI   GL214658   5.904  -0.125   6.015 -0.0378 -0.1773  0.1155
 1001loPI   C1A14659   6.207   0.321   6.262  0.1146  0.0085  0.2491
 1001loPI   C2A14660   6.083   0.219   6.654 -0.0952 -0.2813  0.0308
 1001loPI   C3A14661   5.929   0.151   7.093 -0.0088 -0.1263  0.1192
 1001loPI   C4A14662   5.808   0.141   7.434  0.0727  0.1426  0.2212
 1001loPI   C5A14663   5.789  -0.265   7.604  0.1371  0.1399  0.0890
 1001loPI   C6A14664   5.895  -0.694   7.859 -0.0631 -0.3361 -0.1628
 1001loPI   C1B14665   5.768  -0.019   6.359 -0.0737 -0.2062 -0.2039
 1001loPI   C2B14666   5.552  -0.061   6.620 -0.0920 -0.0741 -0.0460
 1001loPI   C3B14667   5.448  -0.011   7.151 -0.3276  0.4587 -0.0663
 1001loPI   C4B14668   5.338   0.071   7.594 -0.0144  0.2403  0.0587
 1002loPI    C114669  11.346   8.306   5.465  0.3205 -0.1412  0.0238
 1002loPI    C214670  11.041   8.520   5.319  0.1131 -0.3240  0.1832
 1002loPI    C314671  11.418   8.635   5.248  0.0062  0.0737  0.2372
 1002loPI   PO414672  11.355   8.314   5.803 -0.2817  0.0700  0.0495
 1002loPI   GL114673  11.423   8.190   6.094  0.3959 -0.1925 -0.4232
 1002loPI   GL214674  11.532   7.935   6.206  0.1798 -0.3754  0.0455
 1002loPI   C1A14675  11.079   8.144   6.437 -0.1770  0.0959  0.2033
 1002loPI   C2A14676  11.077   8.125   6.857  0.0850  0.3151  0.1682
 1002loPI   C3A14677  11.250   8.320   7.222  0.4075  0.2030  0.1241
 1002loPI   C4A14678  11.351   8.383   7.521 -0.0363  0.2352  0.3104
 1002loPI   C5A14679  11.209   8.170   7.855  0.1747  0.0467  0.0946
 1002loPI   C6A14680  11.430   8.164   8.301 -0.0776 -0.2355  0.0485
 1002loPI   C1B14681  11.480   7.784   6.600  0.2275 -0.1801 -0.2085
 1002loPI   C2B14682  11.512   7.927   7.005 -0.3950  0.1934 -0.2464
 1002loPI   C3B14683  11.491   7.818   7.374  0.0250 -0.2379 -0.1623
 1002loPI   C4B14684  11.685   8.097   7.789  0.0345 -0.0534  0.0181
 1003loPI    C114685   2.973  12.061   5.460 -0.0644  0.1250  0.0300
 1003loPI    C214686   2.586  12.084   5.363 -0.0843 -0.1964  0.0243
 1003loPI    C314687   2.859  12.015   5.079 -0.0376 -0.1182  0.0500
 1003loPI   PO414688   3.056  12.396   5.632 -0.2246 -0.1995 -0.0960
 1003loPI   GL114689   2.880  12.523   5.961 -0.1592 -0.1198  0.0629
 1003loPI   GL214690   3.114  12.762   6.010 -0.2136 -0.0958  0.1418
 1003loPI   C1A14691   2.830  12.381   6.400 -0.0692  0.0999  0.0952
 1003loPI   C2A14692   2.803  12.209   6.746  0.0045 -0.5156  0.2639
 1003loPI   C3A14693   2.692  12.168   7.247 -0.2931  0.0362 -0.2698
 1003loPI   C4A14694   2.689  11.867   7.520  0.0312  0.1339 -0.2981
 1003loPI   C5A14695   2.459  11.542   7.696 -0.1884  0.0649 -0.0364
 1003loPI   C6A14696   2.047  11.431   7.724 -0.0561  0.2889 -0.0012
 1003loPI   C1B14697   3.077  12.805   6.483  0.1814 -0.0139  0.3381
 1003loPI   C2B14698   2.997  12.694   6.872 -0.1199 -0.0487 -0.2534
 1003loPI   C3B14699   2.818  12.675   7.215  0.0007  0.1027  0.0324
 1003loPI   C4B14700   2.515  12.901   7.450 -0.2868  0.0276 -0.1112
 1004loPI    C114701   8.282  17.326   5.501  0.2735  0.0319  0.0560
 1004loPI    C214702   8.023  17.507   5.257 -0.1339  0.1306  0.5446
 1004loPI    C314703   8.380  17.673   5.327  0.0462  0.0326 -0.0736
 1004loPI   PO414704   8.188  17.204   5.825 -0.0050  0.1986 -0.0855
 1004loPI   GL114705   7.948  17.294   6.263  0.2943  0.0244  0.1627
 1004loPI   GL214706   8.311  17.326   6.285 -0.1802  0.1463 -0.1674
 1004loPI   C1A14707   7.947  17.407   6.751  0.1255  0.2313 -0.1180
 1004loPI   C2A14708   7.849  17.505   7.256 -0.2637  0.0548  0.3223
 1004loPI   C3A14709   7.634  17.718   7.593  0.0047  0.1177  0.3139
 1004loPI   C4A14710   7.685  18.002   7.872  0.0875  0.0515 -0.3709
 1004loPI   C5A14711   7.490  18.154   8.236  0.2491  0.0864  0.0180
 1004loPI   C6A14712   7.654  18.320   8.598  0.1653  0.0498 -0.0315
 1004loPI   C1B14713   8.418  17.226   6.768 -0.2200  0.2287 -0.3551
 1004loPI   C2B14714   8.742  17.168   7.071 -0.1295 -0.0296  0.0187
 1004loPI   C3B14715   8.892  17.215   7.510  0.2948 -0.0872  0.2066
 1004loPI   C4B14716   9.215  17.222   7.720 -0.2061 -0.1030 -0.1811
 1005loPI    C114717   5.728  11.735   5.269 -0.1081 -0.0046  0.0853
 1005loPI    C214718   5.404  11.681   5.040 -0.1552  0.0548  0.1374
 1005loPI    C314719   5.471  12.036   5.211 -0.1100  0.0162  0.2001
 1005loPI   PO414720   5.732  11.495   5.504  0.0808 -0.1063  0.4158
 1005loPI   GL114721   5.587  11.244   5.751 -0.1177 -0.3089  0.2443
 1005loPI   GL214722   5.296  11.300   5.905  0.0018  0.1033 -0.1409
 1005loPI   C1A14723   5.714  11.443   6.163  0.4000 -0.1347  0.0290
 1005loPI   C2A14724   5.575  11.519   6.593 -0.1763 -0.2551 -0.2047
 1005loPI   C3A14725   5.261  11.819   6.622  0.2192  0.1627 -0.2107
 1005loPI   C4A14726   4.851  12.008   6.824 -0.0840  0.2823 -0.1878
 1005loPI   C5A14727   4.684  11.975   7.345  0.0517  0.0677  0.1984
 1005loPI   C6A14728   4.368  11.697   7.567 -0.3655 -0.2334 -0.0487
 1005loPI   C1B14729   5.130  11.208   6.336 -0.2033  0.0016  0.2281
 1005loPI   C2B14730   5.126  11.350   6.732  0.0132  0.0104  0.0539
 1005loPI   C3B14731   5.078  11.163   7.112 -0.2046  0.0472  0.1124
 1005loPI   C4B14732   5.047  11.111   7.566  0.0090  0.3119 -0.2772
 1006loPI    C114733   0.102   4.243   5.318 -0.1921 -0.1626 -0.0373
 1006loPI    C214734  -0.184   4.366   5.067  0.0516 -0.1005 -0.2892
 1006loPI    C314735   0.200   4.434   4.981  0.1414 -0.1147  0.0834
 1006loPI   PO414736   0.036   4.283   5.517  0.0405  0.0185  0.0490
 1006loPI   GL114737  -0.125   4.149   5.844 -0.2580 -0.2277  0.0796
 1006loPI   GL214738  -0.509   4.325   5.901  0.2392  0.1621 -0.1359
 1006loPI   C1A14739   0.092   4.154   6.172  0.0025 -0.1069  0.3533
 1006loPI   C2A14740   0.017   4.021   6.503  0.1002 -0.1432  0.1101
 1006loPI   C3A14741   0.222   3.918   6.760  0.0945  0.0054  0.6454
 1006loPI   C4A14742   0.241   4.273   6.966  0.2350  0.0450 -0.1351
 1006loPI   C5A14743   0.039   4.471   7.282 -0.0474  0.2568  0.1343
 1006loPI   C6A14744  -0.088   4.377   7.623  0.3175 -0.1816 -0.0979
 1006loPI   C1B14745  -0.446   4.205   6.344 -0.0115 -0.0278 -0.3406
 1006loPI   C2B14746  -0.386   4.328   6.731 -0.0787  0.2214  0.0401
 1006loPI   C3B14747  -0.399   4.276   7.179  0.0113  0.0518  0.1156
 1006loPI   C4B14748  -0.550   4.160   7.598 -0.1226 -0.1046 -0.1371
 1007loPI    C114749   9.808  11.051   4.999  0.1412  0.0340 -0.4127
 1007loPI    C214750   9.605  10.822   4.741  0.0012 -0.0326 -0.2453
 1007loPI    C314751   9.606  11.220   4.698 -0.0512 -0.0413 -0.3276
 1007loPI   PO414752   9.646  11.013   5.302 -0.1328  0.0273  0.1631
 1007loPI   GL114753   9.834  11.074   5.750  0.0530  0.3103 -0.3347
 1007loPI   GL214754   9.855  11.353   5.909 -0.2769  0.2146 -0.2703
 1007loPI   C1A14755   9.645  10.913   6.074  0.1523  0.0248  0.1028
 1007loPI   C2A14756   9.646  10.488   6.275  0.3633 -0.1339 -0.0310
 1007loPI   C3A14757   9.651  10.441   6.696 -0.0827 -0.2042 -0.0148
 1007loPI   C4A14758   9.660  10.232   7.062 -0.1721  0.3530  0.0281
 1007loPI   C5A14759   9.585  10.083   7.472 -0.0953  0.0319 -0.2065
 1007loPI   C6A14760   9.424   9.673   7.812 -0.1977  0.2403  0.1966
 1007loPI   C1B14761  10.061  11.339   6.255  0.0956  0.1030 -0.1438
 1007loPI   C2B14762  10.047  11.371   6.782 -0.0101  0.0979 -0.1063
 1007loPI   C3B14763   9.808  11.379   7.202 -0.0232 -0.0914  0.1919
 1007loPI   C4B14764   9.584  11.527   7.696 -0.0749  0.0523  0.2358
 1008loPI    C114765  11.513  16.539   5.903  0.1461 -0.1509  0.2375
 1008loPI    C214766  11.340  16.194   6.005  0.1123 -0.1588  0.1541
 1008loPI    C314767  11.418  16.272   5.621 -0.0329 -0.0022  0.1553
 1008loPI   PO414768  11.391  16.757   5.963  0.2174 -0.1600  0.1537
 1008loPI   GL114769  11.096  16.924   6.233 -0.3033  0.2771 -0.1267
 1008loPI   GL214770  11.422  17.017   6.394  0.1613  0.0513 -0.4919
 1008loPI   C1A14771  10.968  16.911   6.636  0.0613 -0.0512 -0.0120
 1008loPI   C2A14772  11.116  16.890   7.049  0.0391 -0.2000 -0.3782
 1008loPI   C3A14773  11.021  17.160   7.429  0.1900  0.1505  0.0629
 1008loPI   C4A14774  10.884  17.035   7.881  0.1035 -0.1909 -0.1638
 1008loPI   C5A14775  11.068  16.984   8.338 -0.1878 -0.1559 -0.1243
 1008loPI   C6A14776  11.235  16.760   8.700 -0.0894  0.0852 -0.2866
 1008loPI   C1B14777  11.479  17.170   6.829 -0.3541  0.2054  0.1478
 1008loPI   C2B14778  11.442  17.267   7.182 -0.1619  0.1874 -0.0479
 1008loPI   C3B14779  11.504  17.356   7.583  0.1185 -0.2553  0.0082
 1008loPI   C4B14780  11.323  17.347   8.012  0.2171 -0.0804  0.1275
 1009loPI    C114781  15.123  16.431   5.908 -0.1379 -0.0112  0.1615
 1009loPI    C214782  14.979  16.062   5.852 -0.0292 -0.0417  0.0800
 1009loPI    C314783  15.247  16.213   5.596  0.0353  0.0392  0.1942
 1009loPI   PO414784  14.915  16.565   5.959  0.1617 -0.1095  0.3276
 1009loPI   GL114785  14.655  16.797   6.345  0.2240 -0.1548  0.1080
 1009loPI   GL214786  14.430  16.558   6.311 -0.0405  0.3780 -0.0448
 1009loPI   C1A14787  14.671  16.824   6.743 -0.2176  0.2881 -0.0322
 1009loPI   C2A14788  14.744  16.812   7.220 -0.2594 -0.0588 -0.0703
 1009loPI   C3A14789  14.518  16.780   7.654  0.1382  0.2902 -0.2343
 1009loPI   C4A14790  14.376  16.955   7.953 -0.2314  0.3068  0.2087
 1009loPI   C5A14791  14.124  17.226   8.144  0.1646 -0.3460 -0.2906
 1009loPI   C6A14792  14.151  17.171   8.565  0.0540 -0.1515 -0.0438
 1009loPI   C1B14793  14.479  16.343   6.671 -0.0348  0.0663 -0.1559
 1009loPI   C2B14794  14.532  16.304   7.060  0.1206 -0.0103  0.1172
 1009loPI   C3B14795  14.586  16.264   7.466  0.0395  0.0480 -0.1711
 1009loPI   C4B14796  14.913  16.056   7.636 -0.0992 -0.0743  0.5325
 1010loPI    C114797  17.993  12.922   4.798 -0.1107  0.1300 -0.0884
 1010loPI    C214798  18.217  13.253   4.778 -0.2313  0.2119 -0.0898
 1010loPI    C314799  17.818  13.281   4.787 -0.2384  0.0738  0.0775
 1010loPI   PO414800  18.139  12.754   4.993 -0.1477 -0.3092  0.0249
 1010loPI   GL114801  18.242  12.810   5.481 -0.2232 -0.1247  0.0023
 1010loPI   GL214802  17.978  12.647   5.492 -0.1065 -0.3761 -0.0881
 1010loPI   C1A14803  18.211  13.027   5.844  0.2225  0.1324  0.2136
 1010loPI   C2A14804  18.364  13.132   6.224 -0.1992 -0.1285 -0.0368
 1010loPI   C3A14805  18.349  13.279   6.536 -0.0516  0.1901  0.1237
 1010loPI   C4A14806  18.101  13.293   6.947 -0.1887  0.3578 -0.0895
 1010loPI   C5A14807  17.939  13.583   7.339  0.0269 -0.1670 -0.2673
 1010loPI   C6A14808  18.160  13.847   7.618 -0.1103 -0.0550  0.1302
 1010loPI   C1B14809  18.079  12.585   6.001  0.0553  0.1704  0.2635
 1010loPI   C2B14810  18.038  12.211   6.311 -0.0747 -0.0726  0.0000
 1010loPI   C3B14811  17.853  12.062   6.734  0.0396 -0.3435 -0.1551
 1010loPI   C4B14812  17.475  12.056   6.847 -0.2466  0.2074 -0.0176
 1011loPI    C114813   0.104   6.761   5.209 -0.3891 -0.0175 -0.1803
 1011loPI    C214814   0.151   7.137   5.336 -0.1091 -0.0963 -0.0439
 1011loPI    C314815  -0.180   6.934   5.431 -0.1414  0.0257  0.1086
 1011loPI   PO414816   0.301   6.569   5.394  0.0345 -0.1418 -0.0355
 1011loPI   GL114817   0.383   6.595   5.738  0.2015  0.0520  0.2318
 1011loPI   GL214818   0.162   6.882   5.806  0.0205  0.1974 -0.5156
 1011loPI   C1A14819   0.428   6.339   5.952  0.1115 -0.3006 -0.2823
 1011loPI   C2A14820   0.292   6.116   6.280  0.0659  0.1692 -0.2399
 1011loPI   C3A14821   0.318   6.088   6.672  0.1097 -0.0896 -0.0071
 1011loPI   C4A14822   0.308   5.920   7.021  0.1140 -0.0554  0.0159
 1011loPI   C5A14823   0.225   6.115   7.384  0.2461  0.2030 -0.0192
 1011loPI   C6A14824   0.060   6.450   7.694  0.1620  0.1857 -0.1754
 1011loPI   C1B14825  -0.249   6.931   6.000 -0.1694 -0.2124 -0.1165
 1011loPI   C2B14826  -0.363   6.981   6.335  0.0068  0.2941  0.0799
 1011loPI   C3B14827  -0.274   6.905   6.732 -0.1714 -0.3253  0.3008
 1011loPI   C4B14828  -0.053   6.676   7.094 -0.0945  0.0797  0.0421
 1012loPI    C114829  10.847   2.791   5.379 -0.0600  0.0344 -0.0022
 1012loPI    C214830  10.980   2.966   5.045 -0.0916  0.0272 -0.0185
 1012loPI    C314831  10.608   2.820   5.060 -0.0895  0.0259  0.0191
 1012loPI   PO414832  10.883   2.950   5.581 -0.1036  0.0695 -0.0429
 1012loPI   GL114833  10.906   3.198   5.792 -0.4439  0.3280  0.2284
 1012loPI   GL214834  10.792   3.481   5.716 -0.0697 -0.1694  0.0980
 1012loPI   C1A14835  11.189   3.314   6.129 -0.3280 -0.1349  0.2010
 1012loPI   C2A14836  11.399   3.674   6.331  0.0606 -0.1162 -0.0271
 1012loPI   C3A14837  11.583   4.059   6.384  0.2044 -0.1706 -0.2409
 1012loPI   C4A14838  11.508   4.476   6.535 -0.1390 -0.2405 -0.1084
 1012loPI   C5A14839  11.704   4.629   6.845 -0.0071  0.1037 -0.0114
 1012loPI   C6A14840  11.537   5.002   7.088 -0.2879  0.1393  0.1217
 1012loPI   C1B14841  10.613   3.421   6.124 -0.0841 -0.0086  0.2499
 1012loPI   C2B14842  10.625   3.458   6.573 -0.0640 -0.1477 -0.0287
 1012loPI   C3B14843  10.821   3.372   7.017 -0.2149 -0.2963  0.1461
 1012loPI   C4B14844  11.218   3.400   7.266 -0.1068  0.1351  0.0162
 1013loPI    C114845   4.737   5.304   5.080 -0.1025  0.2837 -0.0039
 1013loPI    C214846   4.410   5.446   4.898 -0.0496  0.2025 -0.1645
 1013loPI    C314847   4.771   5.501   4.733 -0.0104  0.0456 -0.1326
 1013loPI   PO414848   4.681   5.359   5.293  0.2227  0.2130 -0.4521
 1013loPI   GL114849   4.502   5.389   5.689 -0.1125 -0.2597  0.1758
 1013loPI   GL214850   4.273   5.221   5.824 -0.0896  0.2833  0.2240
 1013loPI   C1A14851   4.623   5.307   6.197 -0.0160  0.0712  0.2494
 1013loPI   C2A14852   4.683   5.202   6.552  0.0219 -0.1085  0.1452
 1013loPI   C3A14853   4.587   5.183   6.942  0.0459  0.0963 -0.1675
 1013loPI   C4A14854   4.351   5.092   7.440  0.1131 -0.1416  0.0432
 1013loPI   C5A14855   4.067   5.231   7.756  0.1718 -0.3230  0.0477
 1013loPI   C6A14856   3.724   5.525   7.818 -0.0956  0.0484 -0.3358
 1013loPI   C1B14857   4.214   5.033   6.133 -0.0715 -0.2013 -0.1474
 1013loPI   C2B14858   4.191   4.885   6.596 -0.0957 -0.4095 -0.0903
 1013loPI   C3B14859   4.159   4.892   6.962 -0.0225 -0.1237 -0.2438
 1013loPI   C4B14860   4.141   4.647   7.304 -0.2019  0.0043 -0.2912
 1014loPI    C114861   9.817   4.873   5.439  0.0933 -0.1337  0.2214
 1014loPI    C214862   9.776   5.239   5.283  0.0084 -0.1674  0.1644
 1014loPI    C314863  10.006   4.968   5.099  0.0747 -0.1415  0.2089
 1014loPI   PO414864   9.814   5.001   5.706  0.0695 -0.0700  0.0592
 1014loPI   GL114865  10.174   4.980   5.980 -0.3709  0.3105 -0.2538
 1014loPI   GL214866  10.046   5.204   6.088 -0.1838 -0.1691 -0.1120
 1014loPI   C1A14867  10.116   4.771   6.390  0.0089 -0.2460  0.1125
 1014loPI   C2A14868  10.159   4.843   6.842 -0.1589 -0.3675  0.0115
 1014loPI   C3A14869  10.304   4.893   7.171 -0.2094  0.1068 -0.1225
 1014loPI   C4A14870  10.408   4.762   7.516  0.1556 -0.0305 -0.0444
 1014loPI   C5A14871  10.705   4.357   7.673 -0.2119 -0.0766  0.0202
 1014loPI   C6A14872  10.927   3.946   7.665  0.0970  0.3319  0.2406
 1014loPI   C1B14873  10.209   5.260   6.581  0.2253 -0.0339  0.0460
 1014loPI   C2B14874  10.338   5.384   7.018  0.1265  0.3036  0.0733
 1014loPI   C3B14875  10.181   5.249   7.457  0.3702  0.0728  0.1319
 1014loPI   C4B14876  10.019   4.930   7.727 -0.0384 -0.3157 -0.1567
 1015loPI    C114877   9.113   7.590   5.378  0.0067 -0.0799 -0.0254
 1015loPI    C214878   9.487   7.490   5.278 -0.0113  0.0937 -0.2766
 1015loPI    C314879   9.416   7.835   5.467 -0.0274 -0.0196 -0.0736
 1015loPI   PO414880   8.967   7.345   5.520  0.0156 -0.2120  0.0636
 1015loPI   GL114881   8.976   7.166   5.943  0.1048 -0.2491 -0.0586
 1015loPI   GL214882   9.137   6.941   5.871 -0.6431  0.1164 -0.0172
 1015loPI   C1A14883   9.160   7.441   6.334  0.0215  0.1105 -0.0603
 1015loPI   C2A14884   8.949   7.647   6.669 -0.0234 -0.6281  0.1230
 1015loPI   C3A14885   8.997   7.726   7.151  0.2159  0.1401 -0.3153
 1015loPI   C4A14886   9.145   8.045   7.350 -0.0771 -0.1312  0.1536
 1015loPI   C5A14887   9.410   8.053   7.771 -0.1642 -0.0368  0.1852
 1015loPI   C6A14888   9.686   8.256   7.913  0.0897  0.1881  0.1756
 1015loPI   C1B14889   9.388   7.023   6.254  0.3130 -0.0781  0.1717
 1015loPI   C2B14890   9.595   7.247   6.536 -0.0261 -0.3069 -0.3185
 1015loPI   C3B14891   9.748   7.174   6.990  0.2453 -0.1447  0.0267
 1015loPI   C4B14892   9.750   7.253   7.431 -0.1340  0.0172 -0.5480
 1016loPI    C114893   6.009  12.134   5.308  0.2751  0.1022  0.2127
 1016loPI    C214894   5.864  12.368   5.018  0.1164 -0.1253  0.1055
 1016loPI    C314895   6.259  12.330   5.065  0.1428 -0.0466 -0.0477
 1016loPI   PO414896   5.892  12.151   5.543 -0.0431 -0.1127  0.2321
 1016loPI   GL114897   5.812  11.854   5.847 -0.1882  0.0348  0.1437
 1016loPI   GL214898   5.574  11.857   5.800 -0.0775 -0.1492  0.2657
 1016loPI   C1A14899   5.889  11.900   6.248  0.1715  0.2867  0.1321
 1016loPI   C2A14900   6.235  11.889   6.558  0.0311 -0.0178 -0.1950
 1016loPI   C3A14901   6.472  11.947   6.940  0.1044  0.0371 -0.0472
 1016loPI   C4A14902   6.351  11.947   7.335 -0.1149 -0.1107 -0.1236
 1016loPI   C5A14903   6.295  11.746   7.709 -0.0689  0.2056 -0.2258
 1016loPI   C6A14904   6.356  11.425   8.101 -0.3757 -0.1622 -0.0463
 1016loPI   C1B14905   5.373  11.841   6.152  0.1106  0.1711  0.1366
 1016loPI   C2B14906   4.941  12.071   6.316 -0.1732  0.1831  0.0882
 1016loPI   C3B14907   4.661  12.400   6.271  0.0607 -0.1834  0.5111
 1016loPI   C4B14908   4.478  12.392   5.897 -0.0089 -0.1924  0.1282
 1017loPI    C114909   3.050   9.794   5.597 -0.3560  0.3513  0.2096
 1017loPI    C214910   2.694   9.953   5.506 -0.3325  0.1773 -0.2114
 1017loPI    C314911   2.993   9.965   5.240 -0.1223  0.0298  0.0127
 1017loPI   PO414912   3.117   9.763   5.821  0.0701  0.0250 -0.2037
 1017loPI   GL114913   2.837   9.550   6.040  0.0045  0.3895 -0.1803
 1017loPI   GL214914   2.598   9.727   5.981 -0.0425 -0.2942 -0.3689
 1017loPI   C1A14915   2.582   9.419   6.350 -0.0002  0.2223  0.0542
 1017loPI   C2A14916   2.529   9.010   6.546  0.1773 -0.0963  0.0858
 1017loPI   C3A14917   2.735   8.838   6.885 -0.3223 -0.0267  0.1177
 1017loPI   C4A14918   2.891   8.820   7.273 -0.1712  0.3124  0.2485
 1017loPI   C5A14919   3.085   8.473   7.525  0.1359 -0.3162 -0.1218
 1017loPI   C6A14920   3.362   8.300   7.745  0.0585  0.0975 -0.0084
 1017loPI   C1B14921   2.435   9.907   6.431 -0.1124  0.0932  0.1387
 1017loPI   C2B14922   2.450   9.869   6.814 -0.0400  0.0061 -0.1053
 1017loPI   C3B14923   2.477   9.705   7.228 -0.0843 -0.0170 -0.0186
 1017loPI   C4B14924   2.489   9.894   7.646 -0.1056  0.2236  0.1591
 1018loPI    C114925   0.307  14.737   5.186 -0.0240  0.2186 -0.1284
 1018loPI    C214926   0.174  14.943   5.502  0.1081  0.1847 -0.0497
 1018loPI    C314927  -0.068  14.685   5.315  0.1071  0.0134  0.1832
 1018loPI   PO414928   0.516  14.672   5.293 -0.0534 -0.0912  0.0315
 1018loPI   GL114929   0.731  14.648   5.636  0.0855 -0.1733  0.0767
 1018loPI   GL214930   0.455  14.688   5.801 -0.2527 -0.1186 -0.0029
 1018loPI   C1A14931   0.942  14.514   6.051  0.0637 -0.0461  0.0036
 1018loPI   C2A14932   1.009  14.659   6.458  0.1073  0.1517 -0.0366
 1018loPI   C3A14933   1.000  14.851   6.886  0.1010  0.1685  0.4574
 1018loPI   C4A14934   1.217  14.914   7.227 -0.2287  0.0097 -0.1767
 1018loPI   C5A14935   1.504  15.229   7.371  0.1028  0.0031  0.0102
 1018loPI   C6A14936   1.975  15.323   7.438 -0.0625  0.2371  0.0798
 1018loPI   C1B14937   0.518  14.626   6.267 -0.0314 -0.0943 -0.3118
 1018loPI   C2B14938   0.524  14.659   6.736  0.2693  0.2927 -0.1016
 1018loPI   C3B14939   0.415  14.716   7.118 -0.2148  0.4010 -0.1424
 1018loPI   C4B14940   0.577  14.702   7.565 -0.0784 -0.3573  0.0663
 1019loPI    C114941   6.635   6.757   5.424  0.1212  0.0139  0.1107
 1019loPI    C214942   6.811   6.786   5.066 -0.1603  0.2532 -0.0125
 1019loPI    C314943   6.828   7.092   5.323  0.0079  0.0964  0.1662
 1019loPI   PO414944   6.478   6.537   5.401  0.0032 -0.1242  0.2389
 1019loPI   GL114945   6.491   6.231   5.695  0.2120  0.1238  0.2064
 1019loPI   GL214946   6.547   5.875   5.656 -0.1475  0.3089 -0.0261
 1019loPI   C1A14947   6.252   6.212   6.138  0.1789 -0.0573  0.0367
 1019loPI   C2A14948   6.286   6.215   6.543 -0.3418 -0.1372  0.0949
 1019loPI   C3A14949   6.434   6.165   6.881 -0.3808 -0.0736  0.0267
 1019loPI   C4A14950   6.369   5.983   7.303 -0.2969 -0.1627 -0.1556
 1019loPI   C5A14951   6.235   5.831   7.686 -0.2130  0.0340 -0.3640
 1019loPI   C6A14952   6.053   5.771   8.136  0.0347  0.0829  0.2135
 1019loPI   C1B14953   6.614   5.852   6.175  0.2563  0.2097  0.1533
 1019loPI   C2B14954   6.883   5.804   6.585  0.0491  0.0214 -0.0985
 1019loPI   C3B14955   6.816   5.819   7.019  0.2180  0.1798  0.1585
 1019loPI   C4B14956   6.901   5.710   7.337  0.1325 -0.2347  0.2933
 1020loPI    C114957   4.612   0.587   5.656 -0.1406 -0.2777 -0.0519
 1020loPI    C214958   4.661   0.395   6.003 -0.0235  0.1775  0.1909
 1020loPI    C314959   4.380   0.274   5.746 -0.1377 -0.1420  0.4586
 1020loPI   PO414960   4.592   0.854   5.754  0.0817  0.0998 -0.1267
 1020loPI   GL114961   4.809   1.001   6.109  0.1503  0.3982 -0.2198
 1020loPI   GL214962   5.123   1.131   6.131 -0.1578 -0.1030 -0.0313
 1020loPI   C1A14963   4.642   0.806   6.418  0.0158  0.1517  0.1788
 1020loPI   C2A14964   4.656   0.505   6.707 -0.0144 -0.3073  0.0461
 1020loPI   C3A14965   4.440   0.359   7.124  0.2238  0.0750 -0.1743
 1020loPI   C4A14966   3.958   0.433   7.444  0.2202  0.1261 -0.1353
 1020loPI   C5A14967   3.797   0.197   7.730 -0.1691 -0.0094  0.0277
 1020loPI   C6A14968   3.622  -0.154   7.930 -0.0134  0.3354 -0.3782
 1020loPI   C1B14969   5.035   1.195   6.599 -0.1117 -0.0065  0.1741
 1020loPI   C2B14970   5.025   1.405   6.892 -0.1250 -0.1042 -0.0276
 1020loPI   C3B14971   5.110   1.558   7.297 -0.3287  0.2571 -0.3561
 1020loPI   C4B14972   5.229   1.520   7.823 -0.0208  0.0212  0.1033
 1021loPI    C114973  10.561   0.023   5.761 -0.0732 -0.1282  0.0291
 1021loPI    C214974  10.467  -0.229   5.465  0.3017 -0.0788 -0.1374
 1021loPI    C314975  10.604   0.137   5.380 -0.1511  0.1545  0.1027
 1021loPI   PO414976  10.449  -0.174   5.968 -0.0446 -0.0130  0.1392
 1021loPI   GL114977  10.155  -0.482   6.173  0.1679 -0.0119  0.1225
 1021loPI   GL214978  10.504  -0.460   6.340  0.0712 -0.0537  0.2529
 1021loPI   C1A14979  10.136  -0.828   6.486  0.2005  0.0938  0.0439
 1021loPI   C2A14980  10.297  -0.808   6.947  0.0438  0.1848 -0.2289
 1021loPI   C3A14981  10.178  -0.901   7.394  0.2914 -0.0171  0.4692
 1021loPI   C4A14982  10.106  -1.053   7.865 -0.2564 -0.0771  0.1676
 1021loPI   C5A14983   9.824  -1.406   8.078  0.0802 -0.0009 -0.1155
 1021loPI   C6A14984   9.383  -1.257   8.217 -0.2613 -0.0461 -0.1197
 1021loPI   C1B14985  10.243  -0.361   6.699 -0.3744 -0.1087  0.3903
 1021loPI   C2B14986  10.227  -0.415   7.200  0.1716  0.1963 -0.0691
 1021loPI   C3B14987  10.210  -0.518   7.682  0.0035 -0.0371 -0.1844
 1021loPI   C4B14988  10.376  -0.515   8.097 -0.1451 -0.0738 -0.1606
 1022loPI    C114989  16.743   1.047   5.310 -0.0357  0.0098  0.2824
 1022loPI    C214990  16.370   1.084   5.171  0.0878 -0.1174 -0.0975
 1022loPI    C314991  16.620   1.395   5.154  0.1303 -0.1592 -0.2489
 1022loPI   PO414992  16.715   1.002   5.573  0.1330 -0.3208  0.0646
 1022loPI   GL114993  16.458   1.072   5.978  0.1186 -0.1243 -0.1025
 1022loPI   GL214994  16.770   1.106   6.011 -0.0639 -0.2321 -0.2439
 1022loPI   C1A14995  16.522   1.275   6.410  0.2713  0.0059 -0.1778
 1022loPI   C2A14996  16.441   1.159   6.916  0.0753  0.1052  0.0267
 1022loPI   C3A14997  16.356   0.933   7.205 -0.0880 -0.3869  0.2899
 1022loPI   C4A14998  16.283   0.860   7.607  0.2208 -0.0282 -0.3502
 1022loPI   C5A14999  16.136   0.767   8.072  0.0965 -0.0045 -0.0199
 1022loPI   C6A15000  15.688   0.984   8.069 -0.0543  0.1373  0.4335
 1022loPI   C1B15001  16.782   0.818   6.276 -0.1381 -0.0768 -0.1878
 1022loPI   C2B15002  16.769   0.721   6.686 -0.0431 -0.0784 -0.1942
 1022loPI   C3B15003  16.974   0.658   7.014 -0.1662  0.1915  0.0006
 1022loPI   C4B15004  17.269   0.529   7.309 -0.1029 -0.2036 -0.0246
 1023loPI    C115005  12.134  15.374   5.727  0.3306 -0.1045  0.1005
 1023loPI    C215006  12.182  15.715   5.524 -0.0628 -0.0918  0.0202
 1023loPI    C315007  12.359  15.379   5.397  0.1643  0.0379 -0.0122
 1023loPI   PO415008  12.155  15.471   5.981 -0.0579 -0.2873  0.1987
 1023loPI   GL115009  12.212  15.513   6.443  0.3632 -0.0342 -0.1347
 1023loPI   GL215010  12.346  15.286   6.644 -0.0983  0.0095 -0.2572
 1023loPI   C1A15011  11.919  15.539   6.792 -0.0241  0.0264 -0.2366
 1023loPI   C2A15012  11.709  15.480   7.227 -0.2208  0.1485 -0.1674
 1023loPI   C3A15013  11.491  15.497   7.539 -0.3770  0.0927  0.1109
 1023loPI   C4A15014  11.271  15.834   7.787  0.1890 -0.1550 -0.0116
 1023loPI   C5A15015  11.527  16.081   8.112 -0.2525  0.1814  0.0701
 1023loPI   C6A15016  11.830  16.369   8.422 -0.3810 -0.2512 -0.0648
 1023loPI   C1B15017  12.206  15.275   7.027  0.1129 -0.0576  0.0075
 1023loPI   C2B15018  12.172  15.203   7.485  0.1485  0.0803 -0.3235
 1023loPI   C3B15019  12.153  14.976   7.832  0.1752  0.0536  0.2061
 1023loPI   C4B15020  11.859  14.697   8.062  0.1399  0.1567 -0.2220
 1024loPI    C115021   8.663  16.338   5.452 -0.2165 -0.0577 -0.1194
 1024loPI    C215022   8.680  16.415   5.060 -0.0376 -0.1195 -0.1246
 1024loPI    C315023   8.943  16.585   5.309 -0.3102  0.1232  0.0042
 1024loPI   PO415024   8.488  16.308   5.553 -0.3604  0.0162  0.3171
 1024loPI   GL115025   8.367  16.289   5.970  0.2031 -0.1241 -0.0289
 1024loPI   GL215026   8.539  16.139   6.211 -0.0202 -0.2222 -0.0865
 1024loPI   C1A15027   8.156  16.465   6.347 -0.4391  0.2477 -0.0179
 1024loPI   C2A15028   8.166  16.396   6.768 -0.1507  0.0885  0.4038
 1024loPI   C3A15029   8.088  16.544   7.167 -0.0749  0.0806 -0.5289
 1024loPI   C4A15030   7.976  16.609   7.496 -0.1398 -0.2497  0.0003
 1024loPI   C5A15031   8.073  16.435   7.927 -0.2620  0.3480 -0.4985
 1024loPI   C6A15032   7.681  16.153   8.208 -0.1182 -0.3198 -0.0250
 1024loPI   C1B15033   8.274  15.957   6.574 -0.0005  0.0012 -0.1787
 1024loPI   C2B15034   8.214  15.916   6.943 -0.0521 -0.2857 -0.1427
 1024loPI   C3B15035   8.035  16.061   7.333 -0.0769  0.0917  0.0676
 1024loPI   C4B15036   8.109  15.890   7.756  0.1440  0.2950 -0.0941
 1025loPI    C115037  10.093   5.626   5.272 -0.0675  0.1412  0.1088
 1025loPI    C215038  10.010   5.893   4.985  0.1238  0.1894  0.0972
 1025loPI    C315039   9.937   5.504   4.924 -0.0251  0.2227  0.0609
 1025loPI   PO415040  10.242   5.711   5.449 -0.1542  0.0215  0.4567
 1025loPI   GL115041  10.399   5.667   5.771  0.2696  0.0516  0.0685
 1025loPI   GL215042  10.484   6.001   5.828 -0.0599  0.1681  0.0568
 1025loPI   C1A15043  10.436   5.549   6.119  0.2098  0.3061  0.0218
 1025loPI   C2A15044  10.653   5.541   6.517 -0.1098 -0.1379 -0.1272
 1025loPI   C3A15045  10.797   5.598   6.986  0.1345  0.4582  0.0998
 1025loPI   C4A15046  11.217   5.616   7.267  0.0199 -0.0486  0.1098
 1025loPI   C5A15047  11.372   5.740   7.560 -0.2687 -0.2681 -0.1586
 1025loPI   C6A15048  11.528   5.545   8.013 -0.0192 -0.1792 -0.0198
 1025loPI   C1B15049  10.644   6.003   6.263 -0.0035  0.0577  0.0142
 1025loPI   C2B15050  10.591   6.026   6.652  0.1090 -0.0158 -0.1186
 1025loPI   C3B15051  10.420   6.075   7.025  0.2615  0.1271  0.1490
 1025loPI   C4B15052  10.420   6.540   7.355 -0.0254 -0.2912  0.4225
 1026loPI    C115053   6.285  14.415   5.372  0.0517 -0.0646  0.1441
 1026loPI    C215054   6.464  14.085   5.233  0.3130  0.0578  0.1820
 1026loPI    C315055   6.600  14.446   5.127  0.0171  0.1561  0.1250
 1026loPI   PO415056   6.212  14.346   5.629  0.2844 -0.2303  0.1444
 1026loPI   GL115057   6.047  14.676   5.888  0.1375  0.0766 -0.1799
 1026loPI   GL215058   6.340  14.781   5.945 -0.0679 -0.1327 -0.0781
 1026loPI   C1A15059   5.947  15.067   5.948  0.2083  0.1366 -0.0786
 1026loPI   C2A15060   6.172  15.351   6.177 -0.0387  0.4279 -0.0630
 1026loPI   C3A15061   6.435  15.294   6.542 -0.0459  0.0197  0.2055
 1026loPI   C4A15062   6.431  15.468   6.836 -0.1884  0.1129  0.3981
 1026loPI   C5A15063   6.390  15.462   7.282 -0.1208 -0.0641  0.0607
 1026loPI   C6A15064   6.605  15.359   7.578 -0.0661 -0.3315 -0.0081
 1026loPI   C1B15065   6.465  14.761   6.307 -0.0215  0.1076  0.0294
 1026loPI   C2B15066   6.784  14.524   6.470  0.0155  0.4522 -0.1507
 1026loPI   C3B15067   6.600  14.462   6.772  0.1838 -0.1964 -0.2432
 1026loPI   C4B15068   6.405  14.628   6.991 -0.3011  0.0996  0.1805
 1027loPI    C115069   7.227  10.414   5.201  0.1355 -0.2778 -0.1347
 1027loPI    C215070   7.463  10.627   4.959  0.1479 -0.1380 -0.0006
 1027loPI    C315071   7.089  10.541   4.848  0.1017  0.0607 -0.0036
 1027loPI   PO415072   7.284  10.518   5.521  0.0084  0.0768 -0.2156
 1027loPI   GL115073   7.485  10.674   5.973  0.0154  0.1886  0.1452
 1027loPI   GL215074   7.329  10.347   6.118  0.1814  0.1557  0.2248
 1027loPI   C1A15075   7.509  10.777   6.486  0.3817 -0.0157  0.0044
 1027loPI   C2A15076   7.719  10.640   6.792  0.2612  0.2422  0.0284
 1027loPI   C3A15077   7.674  10.539   7.250 -0.2673  0.1459  0.1317
 1027loPI   C4A15078   7.714  10.506   7.689 -0.3995 -0.0152 -0.1642
 1027loPI   C5A15079   8.060  10.686   7.840  0.1297 -0.1058  0.0380
 1027loPI   C6A15080   8.072  11.025   8.184 -0.1621 -0.3346 -0.1933
 1027loPI   C1B15081   7.383  10.250   6.609  0.2061 -0.3518  0.3268
 1027loPI   C2B15082   7.569  10.100   6.927 -0.2117 -0.3395 -0.1648
 1027loPI   C3B15083   7.464   9.843   7.269  0.0879  0.2436  0.1380
 1027loPI   C4B15084   7.270   9.671   7.662 -0.0826 -0.0877  0.0696
 1028loPI    C115085  17.611  11.410   5.659 -0.0624 -0.2827 -0.0275
 1028loPI    C215086  17.391  11.277   5.353 -0.0169 -0.1696 -0.1097
 1028loPI    C315087  17.739  11.461   5.284 -0.0404 -0.0805  0.0067
 1028loPI   PO415088  17.590  11.462   5.829  0.3542  0.0631 -0.0037
 1028loPI   GL115089  17.640  11.342   6.221 -0.0892 -0.3460 -0.1207
 1028loPI   GL215090  17.483  11.165   6.239 -0.1234 -0.0956 -0.1245
 1028loPI   C1A15091  17.809  11.552   6.624  0.1685 -0.2323  0.1803
 1028loPI   C2A15092  17.774  11.709   7.048  0.0099  0.2785  0.0296
 1028loPI   C3A15093  17.680  11.905   7.340 -0.0147  0.0263 -0.0252
 1028loPI   C4A15094  17.467  12.360   7.373 -0.2645 -0.2780 -0.4372
 1028loPI   C5A15095  17.312  12.621   7.763 -0.2189 -0.1348 -0.0410
 1028loPI   C6A15096  17.140  12.808   8.135  0.1267 -0.0755 -0.0144
 1028loPI   C1B15097  17.158  11.001   6.563  0.1093  0.0595 -0.0414
 1028loPI   C2B15098  17.115  11.061   7.116  0.1323 -0.0521  0.2209
 1028loPI   C3B15099  17.218  11.324   7.338 -0.2455  0.1548 -0.1592
 1028loPI   C4B15100  17.270  11.357   7.862  0.1003  0.4758  0.0671
 1029loPI    C115101  11.647   9.871   5.653 -0.1147 -0.1053  0.0219
 1029loPI    C215102  11.885   9.698   5.382  0.1566  0.0526  0.1544
 1029loPI    C315103  11.572   9.918   5.263  0.2491  0.0870 -0.0294
 1029loPI   PO415104  11.613   9.716   5.796 -0.4985  0.0822 -0.0381
 1029loPI   GL115105  11.648   9.462   6.088 -0.0976  0.4333  0.4916
 1029loPI   GL215106  11.812   9.630   6.295  0.1363  0.1291  0.0943
 1029loPI   C1A15107  11.302   9.371   6.295 -0.1023 -0.0272 -0.0644
 1029loPI   C2A15108  11.321   9.410   6.709 -0.3370  0.1119  0.1142
 1029loPI   C3A15109  11.205   9.371   7.128 -0.0395  0.0563 -0.0300
 1029loPI   C4A15110  11.051   9.298   7.612  0.3655  0.2456  0.1163
 1029loPI   C5A15111  11.171   9.520   7.873  0.0215  0.0098  0.1664
 1029loPI   C6A15112  11.139   9.899   8.223 -0.0670 -0.0362 -0.2913
 1029loPI   C1B15113  11.891   9.631   6.704 -0.1193 -0.0476  0.0775
 1029loPI   C2B15114  11.744   9.560   7.162  0.1115  0.2385 -0.3836
 1029loPI   C3B15115  11.731   9.576   7.670  0.1562 -0.0032 -0.1211
 1029loPI   C4B15116  11.593   9.973   7.863 -0.1257  0.2625  0.2149
 1030loPI    C115117   5.267  12.906   5.116 -0.1270  0.2173  0.1297
 1030loPI    C215118   5.663  12.852   5.095 -0.1014  0.4249  0.0481
 1030loPI    C315119   5.440  12.823   4.765 -0.2037 -0.0390  0.1508
 1030loPI   PO415120   5.217  12.872   5.381  0.1100  0.0235  0.4403
 1030loPI   GL115121   5.339  12.708   5.778 -0.0012  0.2581 -0.2927
 1030loPI   GL215122   5.395  12.342   5.876  0.0667  0.0219 -0.2800
 1030loPI   C1A15123   5.023  12.653   6.056  0.0169  0.2210 -0.2897
 1030loPI   C2A15124   5.067  12.516   6.500 -0.2652  0.2061 -0.3080
 1030loPI   C3A15125   5.285  12.330   6.779 -0.2252  0.0938  0.0812
 1030loPI   C4A15126   5.190  12.271   7.190  0.2896  0.2103  0.2375
 1030loPI   C5A15127   5.167  11.944   7.563  0.2629 -0.2293 -0.1078
 1030loPI   C6A15128   5.274  11.890   7.941  0.1639 -0.4448  0.2142
 1030loPI   C1B15129   5.523  12.248   6.351 -0.0016 -0.0832  0.0855
 1030loPI   C2B15130   5.713  12.018   6.756 -0.2659  0.0125 -0.0032
 1030loPI   C3B15131   5.550  11.857   7.082  0.1505  0.2322 -0.2445
 1030loPI   C4B15132   5.159  11.693   7.103  0.0691  0.0137  0.1451
 1031loPI    C115133  10.681   5.484   5.252 -0.0713 -0.0976 -0.0956
 1031loPI    C215134  10.398   5.355   5.000 -0.0959 -0.3173  0.0418
 1031loPI    C315135  10.508   5.739   4.997 -0.2738 -0.2659 -0.1301
 1031loPI   PO415136  10.657   5.468   5.416  0.3300  0.2651 -0.0629
 1031loPI   GL115137  10.964   5.425   5.758 -0.1123 -0.0868 -0.0305
 1031loPI   GL215138  10.790   5.141   5.867  0.1460 -0.2021 -0.2638
 1031loPI   C1A15139  10.973   5.641   6.063 -0.0455  0.1332  0.1513
 1031loPI   C2A15140  11.079   5.810   6.459 -0.3134 -0.1431 -0.0414
 1031loPI   C3A15141  11.236   5.919   6.821  0.2194 -0.0892  0.1003
 1031loPI   C4A15142  10.952   6.028   7.075 -0.0463  0.0931  0.1256
 1031loPI   C5A15143  10.711   5.826   7.467  0.0590 -0.2479 -0.0500
 1031loPI   C6A15144  10.888   5.669   7.893  0.2537  0.2746 -0.0000
 1031loPI   C1B15145  10.592   5.111   6.276  0.1215  0.1191  0.0608
 1031loPI   C2B15146  10.642   4.985   6.710 -0.1265 -0.0210  0.0663
 1031loPI   C3B15147  10.804   5.035   7.090  0.0911  0.1535 -0.0899
 1031loPI   C4B15148  10.997   4.840   7.435 -0.2035  0.3252 -0.0932
 1032loPI    C115149   9.801   1.001   5.653 -0.0995 -0.4458 -0.1657
 1032loPI    C215150  10.145   0.805   5.715  0.0428 -0.1461  0.0196
 1032loPI    C315151  10.131   1.110   5.455 -0.1251 -0.2609 -0.1090
 1032loPI   PO415152   9.698   0.972   6.010 -0.1375  0.1375  0.1763
 1032loPI   GL115153   9.488   0.835   6.389 -0.2536  0.0432  0.2176
 1032loPI   GL215154   9.108   0.984   6.338  0.1314  0.2829  0.0217
 1032loPI   C1A15155   9.585   0.852   6.863  0.0021  0.1198 -0.3126
 1032loPI   C2A15156   9.825   0.969   7.139 -0.1661  0.0190 -0.0688
 1032loPI   C3A15157   9.762   0.972   7.557 -0.3685  0.0069  0.4261
 1032loPI   C4A15158  10.012   0.990   7.907 -0.2652 -0.5288 -0.1834
 1032loPI   C5A15159  10.418   1.096   8.142  0.2278  0.1428 -0.0981
 1032loPI   C6A15160  10.669   1.361   8.414 -0.2688 -0.2399  0.1307
 1032loPI   C1B15161   9.193   1.083   6.675  0.1694 -0.2584 -0.1638
 1032loPI   C2B15162   9.226   1.100   7.056 -0.1505  0.3065  0.1126
 1032loPI   C3B15163   9.261   1.099   7.484  0.2520  0.3488  0.0334
 1032loPI   C4B15164   9.415   0.914   7.902  0.2356 -0.1483 -0.0019
 1033loPI    C115165  17.100  12.204   5.430 -0.2069 -0.0388 -0.0201
 1033loPI    C215166  16.923  12.002   5.134 -0.3936  0.0179  0.0508
 1033loPI    C315167  16.911  12.402   5.138 -0.0892  0.0310 -0.0498
 1033loPI   PO415168  16.993  12.127   5.687 -0.1710  0.1086 -0.0186
 1033loPI   GL115169  16.867  11.965   5.994  0.2468  0.0509 -0.1652
 1033loPI   GL215170  16.613  11.769   6.130 -0.1102 -0.0983  0.0127
 1033loPI   C1A15171  16.724  12.287   6.432  0.0980 -0.1981 -0.1050
 1033loPI   C2A15172  16.786  12.544   6.768  0.0347 -0.0506 -0.0054
 1033loPI   C3A15173  16.791  12.633   7.173 -0.3317  0.0600 -0.0238
 1033loPI   C4A15174  16.796  12.766   7.472 -0.2570 -0.1112  0.0911
 1033loPI   C5A15175  16.998  13.100   7.747  0.1536 -0.0917 -0.0103
 1033loPI   C6A15176  16.857  13.503   8.144 -0.0746  0.2573  0.0935
 1033loPI   C1B15177  16.631  11.758   6.544  0.0864 -0.0045 -0.0379
 1033loPI   C2B15178  16.578  11.777   6.952 -0.1061  0.2081 -0.1469
 1033loPI   C3B15179  16.749  12.056   7.285  0.0287 -0.0020  0.5736
 1033loPI   C4B15180  17.043  12.250   7.520  0.4119  0.3281 -0.1946
 1034loPI    C115181  16.783  15.456   5.653 -0.1839 -0.1331 -0.1230
 1034loPI    C215182  16.779  15.849   5.584 -0.2178 -0.0930  0.0998
 1034loPI    C315183  16.895  15.597   5.296  0.1602  0.1041  0.0734
 1034loPI   PO415184  16.600  15.237   5.647  0.0881  0.1208  0.1245
 1034loPI   GL115185  16.383  15.261   5.965  0.1466  0.1967  0.1451
 1034loPI   GL215186  16.394  14.993   6.036  0.1355 -0.0778  0.2148
 1034loPI   C1A15187  16.398  15.258   6.420 -0.0487 -0.1049  0.0506
 1034loPI   C2A15188  16.323  15.254   6.942  0.1356  0.2261 -0.1276
 1034loPI   C3A15189  16.143  15.267   7.375  0.1260 -0.2091 -0.1514
 1034loPI   C4A15190  16.272  15.367   7.756  0.0785 -0.2208 -0.0810
 1034loPI   C5A15191  16.363  15.496   8.185  0.2656 -0.0431 -0.2617
 1034loPI   C6A15192  16.624  15.302   8.537 -0.0089  0.1368  0.1154
 1034loPI   C1B15193  16.301  14.684   6.359 -0.0374 -0.0573  0.3175
 1034loPI   C2B15194  16.454  14.801   6.797 -0.2285  0.0743 -0.0714
 1034loPI   C3B15195  16.350  14.774   7.229 -0.1454  0.2457 -0.0268
 1034loPI   C4B15196  16.303  14.857   7.627  0.2605 -0.1773 -0.1359
 1035loPI    C115197   1.513  13.374   5.312  0.0332 -0.0029  0.2263
 1035loPI    C215198   1.851  13.435   5.107 -0.0383  0.0641  0.1270
 1035loPI    C315199   1.502  13.557   4.956 -0.1206 -0.1071  0.1763
 1035loPI   PO415200   1.501  13.101   5.382  0.1270 -0.0085 -0.0601
 1035loPI   GL115201   1.412  13.021   5.785 -0.1748 -0.2174  0.1025
 1035loPI   GL215202   1.440  13.358   5.885  0.2152 -0.1891  0.0071
 1035loPI   C1A15203   1.215  12.758   6.100 -0.4652  0.0840  0.3754
 1035loPI   C2A15204   0.842  12.844   6.379  0.3248 -0.1165  0.1060
 1035loPI   C3A15205   0.501  12.608   6.667 -0.1942 -0.0444  0.1155
 1035loPI   C4A15206   0.365  12.843   7.030 -0.0609  0.1213  0.0004
 1035loPI   C5A15207   0.677  13.087   7.285  0.0362 -0.1347 -0.1087
 1035loPI   C6A15208   1.002  13.153   7.701  0.0240  0.0111 -0.0886
 1035loPI   C1B15209   1.755  13.260   6.203 -0.0381  0.0093 -0.0925
 1035loPI   C2B15210   1.761  13.482   6.594 -0.0023  0.1640 -0.1980
 1035loPI   C3B15211   1.725  13.377   6.976 -0.1296 -0.1986  0.2016
 1035loPI   C4B15212   1.573  13.236   7.389 -0.1454 -0.2258 -0.0436
 1036loPI    C115213  15.151   7.323   5.456  0.0082  0.0156  0.0265
 1036loPI    C215214  14.922   7.608   5.295 -0.1523 -0.0134  0.1990
 1036loPI    C315215  15.012   7.280   5.084 -0.1332  0.0726  0.0721
 1036loPI   PO415216  15.098   7.313   5.673  0.1540  0.3071  0.0680
 1036loPI   GL115217  15.120   6.991   5.895 -0.2147  0.3304 -0.0251
 1036loPI   GL215218  14.824   6.823   6.031 -0.0320 -0.0384  0.1371
 1036loPI   C1A15219  15.480   6.832   6.182 -0.2435 -0.1102  0.1216
 1036loPI   C2A15220  15.751   6.877   6.512 -0.2057 -0.0261 -0.0439
 1036loPI   C3A15221  15.918   6.779   6.906  0.0733  0.1293  0.1057
 1036loPI   C4A15222  16.308   6.742   7.202 -0.0106  0.2868 -0.0287
 1036loPI   C5A15223  16.284   6.518   7.520  0.0890 -0.1068  0.0134
 1036loPI   C6A15224  16.310   6.056   7.502  0.2766  0.1628 -0.2638
 1036loPI   C1B15225  14.665   7.000   6.327 -0.1061 -0.0207  0.3520
 1036loPI   C2B15226  14.589   6.840   6.726  0.0402  0.0805  0.0991
 1036loPI   C3B15227  14.734   7.032   7.059 -0.2978 -0.0744 -0.1720
 1036loPI   C4B15228  14.897   7.334   7.394  0.1499 -0.0622  0.6272
 1037loPI    C115229   4.520  14.580   4.977  0.0863 -0.0665  0.0337
 1037loPI    C215230   4.343  14.799   4.693  0.2237  0.0793  0.0593
 1037loPI    C315231   4.138  14.512   4.881 -0.0226  0.3235  0.1712
 1037loPI   PO415232   4.609  14.769   5.191  0.4231 -0.2627  0.2803
 1037loPI   GL115233   4.517  14.749   5.662 -0.2189 -0.0668  0.1746
 1037loPI   GL215234   4.782  14.520   5.709 -0.3293  0.1920 -0.0932
 1037loPI   C1A15235   4.653  14.997   6.077 -0.0258 -0.2329  0.3710
 1037loPI   C2A15236   4.882  15.192   6.296  0.0982 -0.1960 -0.2128
 1037loPI   C3A15237   5.171  15.129   6.662  0.0475 -0.1870 -0.1119
 1037loPI   C4A15238   5.141  15.087   7.129  0.0321 -0.0620 -0.3857
 1037loPI   C5A15239   5.336  15.035   7.529 -0.2944 -0.2461 -0.2998
 1037loPI   C6A15240   5.267  14.668   7.829 -0.1781 -0.0069 -0.2169
 1037loPI   C1B15241   4.637  14.448   6.089 -0.2262 -0.1082 -0.0242
 1037loPI   C2B15242   4.557  14.231   6.541  0.1993 -0.1212 -0.1685
 1037loPI   C3B15243   4.380  14.099   6.965  0.0101  0.1890  0.0909
 1037loPI   C4B15244   4.163  14.221   7.323  0.2507 -0.1519 -0.0268
 1038loPI    C115245   8.547   8.383   5.241  0.1317  0.1104 -0.1682
 1038loPI    C215246   8.544   8.466   4.850 -0.1242  0.0068 -0.1900
 1038loPI    C315247   8.201   8.457   5.055  0.0208  0.1953  0.0672
 1038loPI   PO415248   8.722   8.107   5.262  0.0654 -0.0326 -0.1101
 1038loPI   GL115249   8.670   7.718   5.642 -0.2763 -0.2258 -0.0223
 1038loPI   GL215250   8.615   7.508   5.807 -0.0195  0.1193  0.1049
 1038loPI   C1A15251   8.703   7.943   6.057  0.0939 -0.0818  0.1473
 1038loPI   C2A15252   8.648   8.004   6.493 -0.3046  0.0523  0.5106
 1038loPI   C3A15253   8.553   7.920   6.894 -0.1274  0.2522 -0.1253
 1038loPI   C4A15254   8.592   7.931   7.309 -0.0882  0.1014 -0.0400
 1038loPI   C5A15255   8.326   8.064   7.588 -0.0313 -0.1012 -0.1383
 1038loPI   C6A15256   8.185   8.198   7.946 -0.3232  0.0456 -0.0920
 1038loPI   C1B15257   8.635   7.488   6.202 -0.1339  0.0562 -0.2548
 1038loPI   C2B15258   8.458   7.511   6.621  0.1121  0.1810  0.1608
 1038loPI   C3B15259   8.459   7.446   7.062  0.0754 -0.1582  0.0590
 1038loPI   C4B15260   8.687   7.306   7.344 -0.1020 -0.0154  0.1891
 1039loPI    C115261  10.133   2.194   5.551  0.0873 -0.0149 -0.2889
 1039loPI    C215262  10.224   2.421   5.234 -0.1735 -0.0338 -0.3794
 1039loPI    C315263   9.842   2.333   5.314 -0.0934 -0.2110 -0.1847
 1039loPI   PO415264  10.355   2.283   5.790 -0.1087 -0.1275  0.1594
 1039loPI   GL115265  10.631   2.376   6.038 -0.2878 -0.0780  0.1681
 1039loPI   GL215266  10.921   2.556   5.843  0.1643 -0.0011  0.0169
 1039loPI   C1A15267  10.696   2.259   6.438  0.0401 -0.2077  0.3366
 1039loPI   C2A15268  10.648   2.089   6.835 -0.5236  0.0257 -0.3559
 1039loPI   C3A15269  10.516   1.819   7.090  0.5598 -0.1039 -0.2430
 1039loPI   C4A15270  10.509   1.772   7.597  0.2432  0.2083  0.1848
 1039loPI   C5A15271  10.697   1.574   7.917 -0.0298  0.1652  0.0848
 1039loPI   C6A15272  10.984   1.129   7.979  0.0402 -0.0954  0.5045
 1039loPI   C1B15273  11.199   2.752   6.106  0.0828  0.0631 -0.2187
 1039loPI   C2B15274  11.497   2.979   6.179 -0.2572  0.0057 -0.3824
 1039loPI   C3B15275  11.736   3.206   6.466 -0.1125  0.0016  0.2002
 1039loPI   C4B15276  11.737   3.304   6.979 -0.2481  0.0246  0.1333
 1040loPI    C115277  18.052  18.130   5.456  0.0825  0.0213  0.1807
 1040loPI    C215278  18.173  17.751   5.500 -0.0896 -0.0628 -0.0480
 1040loPI    C315279  18.423  18.025   5.351 -0.0359 -0.1365 -0.0934
 1040loPI   PO415280  17.864  18.136   5.722  0.1125  0.0435  0.1875
 1040loPI   GL115281  17.868  17.706   5.929 -0.2003  0.1662  0.0180
 1040loPI   GL215282  17.549  17.848   6.072 -0.3015 -0.1788 -0.1500
 1040loPI   C1A15283  18.203  17.894   6.253 -0.1206  0.0995 -0.1841
 1040loPI   C2A15284  18.390  17.995   6.638  0.0112  0.0793  0.1515
 1040loPI   C3A15285  18.309  17.958   7.102  0.0502  0.2907  0.1933
 1040loPI   C4A15286  18.135  18.002   7.550  0.1145 -0.0495 -0.2556
 1040loPI   C5A15287  17.870  18.121   7.963 -0.5656 -0.0051 -0.1785
 1040loPI   C6A15288  17.595  18.278   8.194 -0.0587  0.2464 -0.1246
 1040loPI   C1B15289  17.653  17.727   6.476  0.0390  0.1502 -0.1344
 1040loPI   C2B15290  17.703  17.599   6.858  0.0024 -0.2053 -0.0002
 1040loPI   C3B15291  17.791  17.755   7.260 -0.4895 -0.0029 -0.0441
 1040loPI   C4B15292  17.932  17.549   7.661  0.1737 -0.0729 -0.1101
 1041loPI    C115293  15.936   0.381   5.271 -0.0713  0.2115  0.1320
 1041loPI    C215294  16.215   0.356   5.557  0.0085  0.1493  0.0493
 1041loPI    C315295  16.297   0.541   5.212 -0.0722  0.1829  0.0479
 1041loPI   PO415296  15.752   0.447   5.452  0.1297 -0.1887 -0.0530
 1041loPI   GL115297  15.726   0.384   5.843 -0.1987  0.2134 -0.1317
 1041loPI   GL215298  15.982   0.595   5.984  0.0006  0.2649 -0.4021
 1041loPI   C1A15299  15.610   0.588   6.320  0.1491 -0.3203 -0.0299
 1041loPI   C2A15300  15.556   0.406   6.675  0.2468  0.0943 -0.4303
 1041loPI   C3A15301  15.526   0.227   7.071 -0.0388  0.0465 -0.2237
 1041loPI   C4A15302  15.308  -0.150   7.444  0.1737  0.0243 -0.0802
 1041loPI   C5A15303  15.068  -0.176   7.666  0.0229 -0.2389 -0.2388
 1041loPI   C6A15304  14.762   0.006   8.044 -0.0378 -0.0179 -0.1585
 1041loPI   C1B15305  15.971   0.297   6.410 -0.1348  0.3087 -0.1809
 1041loPI   C2B15306  16.008   0.263   6.917  0.0134  0.0360 -0.0805
 1041loPI   C3B15307  15.964   0.346   7.369  0.1490 -0.2950 -0.2586
 1041loPI   C4B15308  15.989   0.382   7.827  0.0803 -0.4350  0.1352
 1042loPI    C115309  13.092   4.703   5.122 -0.4011 -0.2963 -0.0261
 1042loPI    C215310  12.756   4.808   4.932 -0.1857 -0.1252 -0.3217
 1042loPI    C315311  13.109   4.841   4.747  0.0237 -0.0339  0.0829
 1042loPI   PO415312  13.080   4.513   5.198 -0.0953 -0.0340 -0.2249
 1042loPI   GL115313  12.970   4.394   5.588  0.4693  0.1891 -0.1688
 1042loPI   GL215314  12.948   4.742   5.782 -0.0049  0.1037 -0.3133
 1042loPI   C1A15315  12.950   4.022   5.794 -0.1453 -0.0678  0.0219
 1042loPI   C2A15316  12.900   4.068   6.338 -0.0697 -0.1659  0.1329
 1042loPI   C3A15317  12.905   3.927   6.694  0.2860 -0.1037  0.0073
 1042loPI   C4A15318  12.823   3.869   7.111 -0.1411  0.3415 -0.1738
 1042loPI   C5A15319  12.634   3.461   7.347 -0.1114 -0.1930  0.1937
 1042loPI   C6A15320  12.688   3.324   7.748 -0.0611  0.0343  0.0218
 1042loPI   C1B15321  13.298   4.979   5.979  0.0117  0.4414  0.2121
 1042loPI   C2B15322  13.628   4.843   6.288 -0.4028  0.0280 -0.1417
 1042loPI   C3B15323  13.426   4.854   6.668 -0.1163 -0.3038 -0.0072
 1042loPI   C4B15324  13.183   4.825   7.089  0.2423  0.1867  0.3768
 1043loPI    C115325  12.358  18.277   5.607 -0.0286  0.3416 -0.0974
 1043loPI    C215326  12.040  18.036   5.578 -0.0825  0.3999  0.0046
 1043loPI    C315327  12.358  17.977   5.343 -0.0234  0.1192  0.1510
 1043loPI   PO415328  12.285  18.367   5.886 -0.1208 -0.0323  0.1181
 1043loPI   GL115329  12.334  18.392   6.287 -0.3286 -0.1460 -0.0750
 1043loPI   GL215330  11.929  18.534   6.390  0.0359 -0.0191 -0.2977
 1043loPI   C1A15331  12.399  18.616   6.552 -0.2720 -0.0438 -0.0488
 1043loPI   C2A15332  12.495  18.620   6.967 -0.2895 -0.1585 -0.1533
 1043loPI   C3A15333  12.364  18.624   7.350  0.1554 -0.1802 -0.0100
 1043loPI   C4A15334  12.532  18.530   7.721 -0.1130 -0.3943 -0.0419
 1043loPI   C5A15335  12.240  18.364   8.068 -0.2023 -0.1362 -0.0822
 1043loPI   C6A15336  11.817  18.366   8.299  0.1194  0.0115  0.0512
 1043loPI   C1B15337  12.050  18.236   6.670 -0.0597  0.1286 -0.0324
 1043loPI   C2B15338  12.019  18.271   7.189  0.5428  0.1556  0.2563
 1043loPI   C3B15339  12.155  18.177   7.629  0.0175  0.0829  0.0803
 1043loPI   C4B15340  12.368  17.862   7.831  0.1759 -0.2109 -0.0942
 1044loPI    C115341   7.205  13.225   5.276  0.0147  0.2335 -0.2227
 1044loPI    C215342   7.109  12.876   5.105 -0.1676  0.0983  0.1444
 1044loPI    C315343   7.400  13.103   4.949  0.1436 -0.3475  0.0579
 1044loPI   PO415344   7.069  13.197   5.458  0.0935  0.2134  0.1306
 1044loPI   GL115345   7.082  13.048   5.792  0.1837 -0.1692 -0.1869
 1044loPI   GL215346   7.061  13.313   6.015  0.5799  0.0082 -0.0829
 1044loPI   C1A15347   7.049  12.755   6.203  0.1443  0.0841 -0.2429
 1044loPI   C2A15348   7.086  12.401   6.347 -0.2844  0.0360 -0.0924
 1044loPI   C3A15349   7.286  12.181   6.649  0.1305  0.0536  0.3068
 1044loPI   C4A15350   7.591  12.097   6.957  0.0116  0.0924  0.1767
 1044loPI   C5A15351   7.723  12.102   7.361 -0.3418  0.1255  0.1196
 1044loPI   C6A15352   7.660  12.480   7.624 -0.0048  0.0394  0.3047
 1044loPI   C1B15353   7.104  13.226   6.425  0.1012  0.0431  0.3413
 1044loPI   C2B15354   7.127  13.182   6.770 -0.2512  0.4100  0.1610
 1044loPI   C3B15355   7.051  13.217   7.211  0.0289  0.2431  0.1836
 1044loPI   C4B15356   7.130  13.270   7.602  0.4546 -0.0530  0.2225
 1045loPI    C115357   8.780  17.757   5.657 -0.0726 -0.0300 -0.1325
 1045loPI    C215358   9.078  17.796   5.393  0.1775  0.2952  0.1860
 1045loPI    C315359   8.761  18.040   5.375  0.0216  0.0812 -0.0291
 1045loPI   PO415360   8.857  17.809   5.925  0.0158 -0.0510  0.2441
 1045loPI   GL115361   8.686  17.717   6.249 -0.2985  0.1483  0.0306
 1045loPI   GL215362   8.780  17.384   6.429  0.0114 -0.1622 -0.2797
 1045loPI   C1A15363   8.389  17.694   6.620 -0.0237 -0.1510 -0.0999
 1045loPI   C2A15364   8.310  17.629   7.089 -0.0383  0.0166 -0.1516
 1045loPI   C3A15365   8.312  17.460   7.483  0.1741 -0.0873  0.0402
 1045loPI   C4A15366   8.175  17.601   7.940 -0.2137  0.1850  0.1017
 1045loPI   C5A15367   8.188  17.338   8.333 -0.1527  0.1683  0.0501
 1045loPI   C6A15368   8.248  17.224   8.770  0.2097 -0.1866  0.0259
 1045loPI   C1B15369   8.857  17.564   6.799  0.0381  0.2554 -0.2205
 1045loPI   C2B15370   8.740  17.654   7.265 -0.1342 -0.1702  0.0793
 1045loPI   C3B15371   8.758  17.655   7.713 -0.3519  0.0275 -0.3013
 1045loPI   C4B15372   8.657  17.780   8.134 -0.0355 -0.0952  0.1444
 1046loPI    C115373   0.820  15.111   5.516  0.2745  0.1576  0.0128
 1046loPI    C215374   0.773  15.153   5.121  0.1593  0.0917  0.0188
 1046loPI    C315375   0.485  15.274   5.370  0.1227 -0.0962  0.0695
 1046loPI   PO415376   1.114  15.153   5.545 -0.0359  0.0188  0.0322
 1046loPI   GL115377   1.222  15.141   5.955  0.0045  0.2704  0.1138
 1046loPI   GL215378   0.825  15.045   5.992  0.3042 -0.0850  0.2665
 1046loPI   C1A15379   1.225  15.073   6.387 -0.2000  0.0235  0.2276
 1046loPI   C2A15380   1.433  15.116   6.667 -0.0150 -0.0915  0.0185
 1046loPI   C3A15381   1.300  15.343   6.942 -0.2585  0.2052  0.2468
 1046loPI   C4A15382   1.073  15.430   7.367  0.1461  0.0977  0.1602
 1046loPI   C5A15383   1.039  15.754   7.652 -0.2087  0.2144 -0.0586
 1046loPI   C6A15384   1.365  16.094   7.790  0.2669  0.0855 -0.2165
 1046loPI   C1B15385   0.488  15.111   6.512 -0.1610 -0.2573  0.0702
 1046loPI   C2B15386   0.285  15.101   6.819  0.0670  0.1911  0.2305
 1046loPI   C3B15387   0.088  15.095   7.255  0.1934  0.0801  0.1019
 1046loPI   C4B15388  -0.253  15.221   7.504  0.2019 -0.0963  0.3115
 1047loPI    C115389   9.074   0.445   5.501 -0.0346 -0.2061 -0.0985
 1047loPI    C215390   9.369   0.691   5.391  0.0721 -0.2664  0.0507
 1047loPI    C315391   9.000   0.834   5.448  0.1306 -0.1424  0.1242
 1047loPI   PO415392   9.189   0.283   5.736 -0.1433  0.0706  0.2682
 1047loPI   GL115393   8.982   0.404   6.115  0.4248  0.0260  0.2504
 1047loPI   GL215394   9.287   0.417   6.183  0.2499  0.2579  0.1901
 1047loPI   C1A15395   8.688   0.262   6.412  0.2069 -0.0883 -0.2751
 1047loPI   C2A15396   8.457   0.127   6.768  0.2107  0.2067  0.1357
 1047loPI   C3A15397   8.389   0.211   7.224  0.1754  0.1603 -0.1726
 1047loPI   C4A15398   8.349   0.084   7.625 -0.0834 -0.0952  0.1408
 1047loPI   C5A15399   8.212   0.224   8.052 -0.0711 -0.1279  0.0483
 1047loPI   C6A15400   8.031   0.016   8.325  0.4039 -0.1780  0.1565
 1047loPI   C1B15401   9.137   0.523   6.591  0.3174 -0.1152 -0.1805
 1047loPI   C2B15402   9.135   0.595   6.983  0.0081  0.3640  0.1651
 1047loPI   C3B15403   9.351   0.669   7.321  0.0781 -0.0127 -0.0628
 1047loPI   C4B15404   9.454   0.451   7.630 -0.1852  0.2167 -0.0936
 1048loPI    C115405  16.679   2.047   5.170  0.0474  0.0726 -0.1971
 1048loPI    C215406  17.049   2.172   5.084  0.0872  0.0301 -0.0889
 1048loPI    C315407  16.875   1.891   4.858  0.2744 -0.2384  0.0951
 1048loPI   PO415408  16.773   2.046   5.508 -0.1028  0.2132  0.3542
 1048loPI   GL115409  16.556   1.975   5.850 -0.2164  0.0788 -0.3189
 1048loPI   GL215410  16.270   2.081   5.799  0.2165  0.0573 -0.2818
 1048loPI   C1A15411  16.651   1.714   6.277 -0.2514 -0.0061 -0.4061
 1048loPI   C2A15412  16.552   1.633   6.759  0.0687 -0.1685  0.0616
 1048loPI   C3A15413  16.713   1.601   7.223 -0.1682  0.0568 -0.0225
 1048loPI   C4A15414  16.799   1.723   7.654  0.0101  0.2865  0.1639
 1048loPI   C5A15415  16.784   2.104   7.897  0.0161  0.4069  0.4011
 1048loPI   C6A15416  16.618   2.510   7.921 -0.4091 -0.1533  0.1580
 1048loPI   C1B15417  16.484   2.249   6.212  0.0938 -0.0462  0.0131
 1048loPI   C2B15418  16.546   2.126   6.632 -0.2166 -0.0518 -0.0352
 1048loPI   C3B15419  16.607   2.156   7.034  0.1517 -0.0993 -0.2851
 1048loPI   C4B15420  16.496   2.047   7.466  0.1451 -0.3354  0.0497
 1049loPI    C115421   9.578  14.468   5.830 -0.2146  0.0618 -0.1338
 1049loPI    C215422   9.585  14.298   5.468  0.2484  0.1292 -0.1625
 1049loPI    C315423   9.580  14.696   5.501  0.3332  0.1251 -0.0963
 1049loPI   PO415424   9.440  14.404   5.981  0.0952  0.1704 -0.1162
 1049loPI   GL115425   9.433  14.129   6.337 -0.1220  0.2778  0.0045
 1049loPI   GL215426   9.598  14.315   6.572  0.3201  0.0994  0.1831
 1049loPI   C1A15427   9.220  14.012   6.745  0.4188  0.0866  0.1876
 1049loPI   C2A15428   9.106  14.061   7.144  0.3021  0.0692 -0.2757
 1049loPI   C3A15429   8.587  13.949   7.273 -0.0941 -0.0496 -0.0072
 1049loPI   C4A15430   8.406  14.023   7.583 -0.1463 -0.1854 -0.1793
 1049loPI   C5A15431   7.970  14.249   7.923  0.0375  0.3057 -0.2103
 1049loPI   C6A15432   8.006  14.497   8.314  0.0175  0.0427  0.0738
 1049loPI   C1B15433   9.544  14.249   7.020  0.0933  0.0337 -0.0508
 1049loPI   C2B15434   9.506  14.349   7.457  0.0147 -0.0731  0.1558
 1049loPI   C3B15435   9.435  14.249   7.850 -0.2602  0.2744  0.1544
 1049loPI   C4B15436   9.195  14.086   8.123 -0.1695 -0.0124  0.1566
 1050loPI    C115437   1.181   7.621   5.235  0.0662 -0.1131  0.0180
 1050loPI    C215438   0.911   7.772   4.982 -0.1447 -0.4788  0.0165
 1050loPI    C315439   1.036   7.989   5.294 -0.0991 -0.1349 -0.2343
 1050loPI   PO415440   1.140   7.363   5.318  0.0335  0.0381  0.1958
 1050loPI   GL115441   1.282   7.184   5.799 -0.1874  0.2712 -0.1394
 1050loPI   GL215442   1.264   7.477   5.808  0.1183  0.0081 -0.0379
 1050loPI   C1A15443   1.156   7.171   6.195  0.0589 -0.0588 -0.0197
 1050loPI   C2A15444   1.107   7.172   6.560  0.1514  0.0026  0.3691
 1050loPI   C3A15445   1.210   7.235   6.946  0.2137  0.2495  0.1075
 1050loPI   C4A15446   1.269   7.560   7.179 -0.2558 -0.1803 -0.0762
 1050loPI   C5A15447   1.407   7.683   7.556 -0.1173  0.1937  0.2032
 1050loPI   C6A15448   1.394   7.790   7.929  0.5883  0.2966 -0.1764
 1050loPI   C1B15449   1.595   7.502   6.146 -0.1941  0.0851  0.2439
 1050loPI   C2B15450   1.558   7.493   6.599 -0.0581  0.0324 -0.0533
 1050loPI   C3B15451   1.669   7.332   7.018 -0.1207  0.1636  0.0893
 1050loPI   C4B15452   1.655   7.238   7.416  0.2049  0.2876 -0.1842
 1051loPI    C115453  18.225  11.365   5.294 -0.2239  0.1165 -0.0125
 1051loPI    C215454  18.332  11.096   5.018  0.2163 -0.1275  0.3801
 1051loPI    C315455  18.543  11.433   5.062 -0.0658  0.0788  0.1899
 1051loPI   PO415456  18.278  11.298   5.476  0.0614 -0.1822 -0.2163
 1051loPI   GL115457  18.429  11.316   5.918 -0.0109 -0.3219 -0.0428
 1051loPI   GL215458  18.072  11.186   5.918 -0.1379 -0.1928  0.5826
 1051loPI   C1A15459  18.532  11.245   6.257  0.1387 -0.0296  0.1500
 1051loPI   C2A15460  18.264  11.193   6.549 -0.1592  0.2731 -0.1517
 1051loPI   C3A15461  18.145  11.238   6.881 -0.0763  0.0941 -0.2866
 1051loPI   C4A15462  18.203  11.473   7.240  0.1445  0.0615  0.0887
 1051loPI   C5A15463  18.235  11.866   7.165  0.2845  0.3130  0.1662
 1051loPI   C6A15464  18.030  12.225   7.399  0.2637  0.1244  0.2295
 1051loPI   C1B15465  17.970  10.993   6.230 -0.3601 -0.2597 -0.3481
 1051loPI   C2B15466  17.787  10.997   6.705  0.1351 -0.1109  0.0432
 1051loPI   C3B15467  17.653  11.204   7.027  0.0363  0.1851  0.0645
 1051loPI   C4B15468  17.649  11.414   7.473 -0.1971  0.1247  0.1864
 1052loPI    C115469   0.614   3.665   5.154 -0.0074 -0.1369  0.1069
 1052loPI    C215470   0.334   3.883   4.969  0.1498  0.0040  0.0316
 1052loPI    C315471   0.269   3.496   5.045 -0.0077  0.0011 -0.1131
 1052loPI   PO415472   0.676   3.857   5.333 -0.0460 -0.1461 -0.1192
 1052loPI   GL115473   0.499   4.085   5.608  0.0122  0.3355  0.1090
 1052loPI   GL215474   0.563   4.350   5.807  0.0906  0.0529  0.1004
 1052loPI   C1A15475   0.499   3.866   6.033 -0.0376  0.3805 -0.1377
 1052loPI   C2A15476   0.565   3.856   6.463  0.0539  0.2061  0.1609
 1052loPI   C3A15477   0.708   4.183   6.732  0.0331  0.2565 -0.0822
 1052loPI   C4A15478   0.957   4.529   7.005  0.2834  0.0146  0.0054
 1052loPI   C5A15479   1.108   4.684   7.369 -0.3509  0.0673 -0.2912
 1052loPI   C6A15480   1.076   4.671   7.809  0.0999  0.1032  0.1326
 1052loPI   C1B15481   0.550   4.365   6.267 -0.0337  0.3028  0.0263
 1052loPI   C2B15482   0.658   4.654   6.584  0.1214 -0.1386  0.1662
 1052loPI   C3B15483   0.447   4.735   6.887 -0.1041  0.1008  0.1736
 1052loPI   C4B15484   0.544   4.670   7.270  0.1504 -0.1693  0.1452
 1053loPI    C115485   4.210  11.992   5.160 -0.1266 -0.0604 -0.1338
 1053loPI    C215486   4.082  11.663   4.972 -0.1174 -0.0870 -0.0936
 1053loPI    C315487   4.470  11.757   4.968 -0.0996 -0.1549  0.0174
 1053loPI   PO415488   4.089  12.004   5.379  0.1350  0.1408 -0.0061
 1053loPI   GL115489   4.031  12.069   5.819 -0.1255  0.1164  0.3649
 1053loPI   GL215490   3.804  11.935   5.908  0.0692  0.2090 -0.0179
 1053loPI   C1A15491   4.094  12.251   6.185 -0.0005 -0.0999 -0.0043
 1053loPI   C2A15492   3.854  12.504   6.568 -0.1961 -0.1503  0.3793
 1053loPI   C3A15493   3.498  12.462   6.910 -0.1034  0.0356  0.3197
 1053loPI   C4A15494   3.230  12.489   7.313 -0.1489 -0.0822  0.1191
 1053loPI   C5A15495   3.026  12.442   7.645 -0.3035  0.1421  0.1153
 1053loPI   C6A15496   2.657  12.695   7.875 -0.1958  0.1383 -0.0487
 1053loPI   C1B15497   3.684  12.052   6.392  0.1036  0.1126  0.1686
 1053loPI   C2B15498   3.818  12.047   6.841  0.0080  0.0072  0.2903
 1053loPI   C3B15499   3.589  12.047   7.220 -0.1699  0.1276 -0.2677
 1053loPI   C4B15500   3.131  12.007   7.257  0.0222 -0.2398  0.0878
 1054loPI    C115501   0.620   8.220   5.239 -0.1363  0.1958  0.1415
 1054loPI    C215502   0.451   7.943   5.005 -0.0349  0.0795  0.2045
 1054loPI    C315503   0.646   8.251   4.841 -0.3797  0.2631  0.1294
 1054loPI   PO415504   0.586   8.116   5.476 -0.0992 -0.0370  0.2392
 1054loPI   GL115505   0.567   8.188   5.951 -0.3904 -0.0548  0.1405
 1054loPI   GL215506   0.393   7.839   5.854 -0.3118  0.0894 -0.0035
 1054loPI   C1A15507   0.560   8.088   6.387 -0.1852 -0.0909 -0.1530
 1054loPI   C2A15508   0.644   8.345   6.724  0.3330  0.2596 -0.1228
 1054loPI   C3A15509   0.737   8.362   7.151  0.3109 -0.1103 -0.0872
 1054loPI   C4A15510   0.782   8.368   7.596 -0.0782 -0.0347 -0.0751
 1054loPI   C5A15511   0.523   8.249   7.933 -0.1217  0.0404 -0.1697
 1054loPI   C6A15512   0.617   8.186   8.423  0.2432  0.0072  0.1418
 1054loPI   C1B15513   0.285   7.676   6.261  0.2115  0.1438  0.1110
 1054loPI   C2B15514   0.391   7.720   6.651 -0.1927  0.0706 -0.1108
 1054loPI   C3B15515   0.449   7.915   7.038  0.2707  0.4619 -0.0179
 1054loPI   C4B15516   0.559   7.896   7.477  0.0216  0.0919  0.0677
 1055loPI    C115517   7.282   6.790   5.557 -0.1156  0.0125 -0.2110
 1055loPI    C215518   7.264   6.941   5.187 -0.3739  0.1398 -0.1487
 1055loPI    C315519   7.258   6.545   5.242  0.0555  0.1074 -0.2993
 1055loPI   PO415520   7.355   7.074   5.777 -0.1425  0.1077 -0.0494
 1055loPI   GL115521   7.121   7.136   6.200 -0.2638  0.2021 -0.1800
 1055loPI   GL215522   7.370   7.244   6.199  0.2819  0.1039 -0.3211
 1055loPI   C1A15523   6.804   6.964   6.512  0.2676 -0.3281 -0.2956
 1055loPI   C2A15524   6.825   7.112   6.836  0.1044 -0.2108 -0.2911
 1055loPI   C3A15525   6.631   7.212   7.298 -0.0255  0.1615  0.0713
 1055loPI   C4A15526   6.416   7.060   7.675  0.0447  0.2591 -0.0564
 1055loPI   C5A15527   6.347   7.056   8.103 -0.4452  0.5750 -0.2176
 1055loPI   C6A15528   6.497   6.970   8.468  0.1959 -0.1582  0.0500
 1055loPI   C1B15529   7.315   6.923   6.609 -0.0276  0.0428 -0.1290
 1055loPI   C2B15530   7.585   6.964   6.928 -0.0644  0.0207  0.2028
 1055loPI   C3B15531   7.568   6.995   7.344 -0.2872 -0.0593  0.0126
 1055loPI   C4B15532   7.251   6.770   7.623  0.0410 -0.0921  0.0941
 1056loPI    C115533  17.589   7.370   5.388 -0.0476 -0.0383 -0.0382
 1056loPI    C215534  17.365   7.652   5.213  0.0577 -0.0538 -0.2006
 1056loPI    C315535  17.629   7.443   4.997  0.2691  0.0020 -0.0016
 1056loPI   PO415536  17.515   7.374   5.584  0.2066  0.0155  0.3412
 1056loPI   GL115537  17.875   7.249   5.859 -0.4635 -0.2129 -0.2151
 1056loPI   GL215538  17.624   7.048   5.955  0.0872 -0.0587 -0.2145
 1056loPI   C1A15539  18.089   7.413   6.152 -0.0527  0.0433  0.0937
 1056loPI   C2A15540  18.097   7.380   6.605  0.4963  0.0733  0.1996
 1056loPI   C3A15541  18.193   7.378   6.964 -0.3162  0.2173 -0.0604
 1056loPI   C4A15542  18.327   7.229   7.286 -0.1172  0.1438 -0.0452
 1056loPI   C5A15543  18.141   6.918   7.574 -0.1072  0.3620 -0.2836
 1056loPI   C6A15544  18.022   6.816   8.063  0.1622 -0.1092 -0.1350
 1056loPI   C1B15545  17.606   7.266   6.346 -0.1896  0.0347  0.1536
 1056loPI   C2B15546  17.565   7.144   6.710  0.0500 -0.3678 -0.1611
 1056loPI   C3B15547  17.658   6.834   6.935 -0.3281 -0.0306  0.0807
 1056loPI   C4B15548  17.861   6.687   7.229  0.0278 -0.0314 -0.1379
 1057loPI    C115549   9.289   5.654   5.346  0.0478 -0.2336 -0.0532
 1057loPI    C215550   9.190   5.273   5.277  0.0302 -0.2063 -0.1813
 1057loPI    C315551   9.409   5.474   5.010  0.1142 -0.1527 -0.0731
 1057loPI   PO415552   9.406   5.712   5.628 -0.2553  0.0591  0.3380
 1057loPI   GL115553   9.548   5.966   6.037  0.2939 -0.0778  0.0252
 1057loPI   GL215554   9.563   5.585   6.119  0.0126 -0.1260 -0.0935
 1057loPI   C1A15555   9.481   6.050   6.437 -0.1913 -0.0115 -0.1122
 1057loPI   C2A15556   9.455   6.207   6.870  0.0539  0.1439  0.1044
 1057loPI   C3A15557   9.212   6.352   7.246 -0.3014 -0.0000 -0.2320
 1057loPI   C4A15558   8.890   6.510   7.547 -0.1383  0.0824 -0.2007
 1057loPI   C5A15559   8.948   6.620   8.015 -0.1706 -0.0357 -0.2641
 1057loPI   C6A15560   8.807   6.752   8.469  0.1471  0.1886  0.1499
 1057loPI   C1B15561   9.467   5.608   6.525 -0.0729 -0.3036  0.0017
 1057loPI   C2B15562   9.405   5.634   7.007  0.2899 -0.1470 -0.1594
 1057loPI   C3B15563   9.565   5.908   7.294 -0.1053  0.3008  0.1180
 1057loPI   C4B15564   9.656   5.923   7.628 -0.0297 -0.1094 -0.1594
 1058loPI    C115565  10.524  15.697   6.069 -0.0540 -0.0423  0.0872
 1058loPI    C215566  10.346  15.919   5.788  0.0395 -0.0058  0.0563
 1058loPI    C315567  10.377  16.056   6.162  0.0867  0.0285  0.0400
 1058loPI   PO415568  10.408  15.438   6.055  0.5692  0.1617 -0.0857
 1058loPI   GL115569  10.148  15.248   6.403  0.2314 -0.2313 -0.1441
 1058loPI   GL215570  10.316  15.670   6.506  0.2161  0.1401 -0.0199
 1058loPI   C1A15571  10.253  15.171   6.755  0.0871  0.2019  0.2977
 1058loPI   C2A15572  10.106  15.086   7.125  0.0588  0.0589  0.0525
 1058loPI   C3A15573  10.137  15.186   7.544  0.1778 -0.1624  0.2535
 1058loPI   C4A15574   9.906  15.055   7.901  0.3772  0.0094  0.1529
 1058loPI   C5A15575   9.661  15.054   8.325 -0.0193 -0.3155  0.2927
 1058loPI   C6A15576   9.528  15.161   8.716  0.1534 -0.1586  0.0128
 1058loPI   C1B15577   9.935  15.684   6.768  0.2184  0.1992  0.2289
 1058loPI   C2B15578   9.896  15.546   7.175  0.2525 -0.1052 -0.2931
 1058loPI   C3B15579   9.826  15.540   7.574 -0.3897 -0.0864 -0.0504
 1058loPI   C4B15580   9.654  15.663   7.947 -0.0599  0.0597  0.0487
 1059loPI    C115581   4.478   9.699   5.421  0.1509 -0.1260  0.0429
 1059loPI    C215582   4.690   9.601   5.096  0.2067 -0.1614  0.0899
 1059loPI    C315583   4.448   9.919   5.088  0.2954 -0.0948  0.0501
 1059loPI   PO415584   4.674   9.811   5.604  0.0236  0.2778 -0.0333
 1059loPI   GL115585   4.992   9.903   5.824  0.0072 -0.0916  0.0615
 1059loPI   GL215586   5.357  10.041   6.002  0.0090  0.1133  0.0326
 1059loPI   C1A15587   4.886  10.171   6.131 -0.0424  0.1081  0.3477
 1059loPI   C2A15588   4.818  10.390   6.431  0.4832  0.1389  0.0486
 1059loPI   C3A15589   4.888  10.357   6.820 -0.2065  0.1460 -0.0536
 1059loPI   C4A15590   4.856  10.266   7.310 -0.1781 -0.4001  0.1635
 1059loPI   C5A15591   4.742  10.688   7.632  0.2650  0.3188  0.3265
 1059loPI   C6A15592   4.958  10.862   8.008 -0.2985 -0.3355  0.0792
 1059loPI   C1B15593   5.165   9.936   6.476  0.2844  0.0163 -0.2917
 1059loPI   C2B15594   5.323  10.094   6.795 -0.1824  0.3361  0.1204
 1059loPI   C3B15595   5.572  10.157   7.141  0.0310  0.0211  0.4085
 1059loPI   C4B15596   5.729   9.984   7.500 -0.0697  0.0849 -0.2136
 1060loPI    C115597  14.083  12.228   5.686  0.0755  0.1911 -0.1141
 1060loPI    C215598  13.739  12.158   5.495  0.0181  0.2052 -0.0166
 1060loPI    C315599  14.052  12.304   5.294 -0.0259  0.1724 -0.1101
 1060loPI   PO415600  14.019  12.189   5.921  0.1209  0.1721  0.0636
 1060loPI   GL115601  13.977  12.257   6.350 -0.1234 -0.0712  0.0066
 1060loPI   GL215602  13.778  12.224   6.510 -0.2596  0.0910 -0.0704
 1060loPI   C1A15603  14.254  12.522   6.689  0.3394  0.1832  0.1908
 1060loPI   C2A15604  14.263  12.587   7.096 -0.2178  0.0255  0.1481
 1060loPI   C3A15605  14.224  12.624   7.499  0.0123 -0.1454 -0.0174
 1060loPI   C4A15606  14.280  12.877   7.814  0.1107  0.2929  0.3092
 1060loPI   C5A15607  14.021  13.302   7.891 -0.0953 -0.1899 -0.1672
 1060loPI   C6A15608  13.933  13.410   8.213  0.0743 -0.3420  0.2596
 1060loPI   C1B15609  13.793  12.316   6.960 -0.1520 -0.1277  0.0302
 1060loPI   C2B15610  13.804  12.298   7.390  0.3261 -0.0806 -0.0802
 1060loPI   C3B15611  14.003  12.353   7.875 -0.3337  0.0504  0.2450
 1060loPI   C4B15612  14.384  12.118   8.179  0.2311  0.1615  0.2523
 1061loPI    C115613   8.108  10.231   5.246 -0.1311 -0.4193 -0.2671
 1061loPI    C215614   7.721  10.324   5.203 -0.0759  0.0879  0.2151
 1061loPI    C315615   7.980  10.403   4.909 -0.2987 -0.0414 -0.0188
 1061loPI   PO415616   8.164  10.279   5.508 -0.1686  0.4850 -0.1596
 1061loPI   GL115617   8.173  10.061   5.904  0.3746 -0.1141 -0.0357
 1061loPI   GL215618   7.972  10.375   5.978 -0.0744  0.0379  0.2451
 1061loPI   C1A15619   8.289   9.958   6.277  0.1854 -0.1309  0.2345
 1061loPI   C2A15620   8.280   9.742   6.662  0.2263 -0.0869 -0.1030
 1061loPI   C3A15621   8.208   9.358   6.851  0.1300  0.1944  0.1023
 1061loPI   C4A15622   8.103   8.968   7.068 -0.0496  0.3121 -0.0220
 1061loPI   C5A15623   7.927   8.935   7.470 -0.2535  0.3510  0.0616
 1061loPI   C6A15624   7.867   8.500   7.695  0.0523 -0.1286 -0.0514
 1061loPI   C1B15625   7.846  10.352   6.386 -0.1014  0.0758 -0.3947
 1061loPI   C2B15626   8.129  10.172   6.688  0.4776 -0.3795 -0.0352
 1061loPI   C3B15627   8.151  10.392   7.027  0.4103  0.0710  0.1196
 1061loPI   C4B15628   8.192  10.481   7.401 -0.1852 -0.1311 -0.2663
 1062loPI    C115629   2.829  13.423   5.263 -0.0809  0.0476  0.1894
 1062loPI    C215630   2.703  13.046   5.214 -0.0573 -0.0015  0.4850
 1062loPI    C315631   3.073  13.150   5.102 -0.1442 -0.0066  0.1847
 1062loPI   PO415632   2.746  13.440   5.508 -0.1306  0.2809 -0.0537
 1062loPI   GL115633   2.995  13.412   5.860 -0.0301 -0.0521  0.0697
 1062loPI   GL215634   3.084  13.290   6.070  0.3051  0.1010  0.1795
 1062loPI   C1A15635   2.703  13.636   6.189  0.0075 -0.0259  0.2808
 1062loPI   C2A15636   2.678  13.613   6.636 -0.2352 -0.1797  0.0361
 1062loPI   C3A15637   2.697  13.663   7.082 -0.4247  0.0567 -0.0515
 1062loPI   C4A15638   2.534  13.563   7.446  0.0076  0.2178  0.0468
 1062loPI   C5A15639   2.297  13.477   7.748 -0.1926 -0.1231 -0.2824
 1062loPI   C6A15640   1.963  13.592   7.936 -0.3526  0.1567 -0.1630
 1062loPI   C1B15641   3.128  13.421   6.490 -0.0358 -0.1634  0.2600
 1062loPI   C2B15642   3.104  13.191   6.864 -0.0637  0.1106  0.0344
 1062loPI   C3B15643   3.291  12.997   7.174 -0.1755  0.0364  0.0786
 1062loPI   C4B15644   3.375  12.873   7.582 -0.3302  0.2325  0.0207
 1063loPI    C115645   2.969   0.733   5.410  0.1277  0.1314  0.3075
 1063loPI    C215646   3.107   0.444   5.171 -0.0650  0.2026  0.1060
 1063loPI    C315647   2.914   0.757   5.015 -0.2463  0.2214  0.3613
 1063loPI   PO415648   3.129   0.775   5.564  0.2782  0.1994 -0.4095
 1063loPI   GL115649   3.163   0.756   5.969 -0.0395  0.4864  0.3227
 1063loPI   GL215650   2.879   0.467   5.939  0.1336 -0.1370  0.1833
 1063loPI   C1A15651   3.217   0.545   6.308 -0.0360  0.0810  0.3156
 1063loPI   C2A15652   3.261   0.665   6.759  0.1160  0.0194  0.0934
 1063loPI   C3A15653   3.352   0.504   7.213 -0.0463  0.0840  0.0594
 1063loPI   C4A15654   3.528   0.132   7.321 -0.1380 -0.1201 -0.1089
 1063loPI   C5A15655   3.589  -0.243   7.461 -0.1844 -0.2524  0.1370
 1063loPI   C6A15656   3.816  -0.601   7.475  0.2379 -0.1026 -0.0521
 1063loPI   C1B15657   2.683   0.551   6.246 -0.3704  0.2113 -0.0143
 1063loPI   C2B15658   2.467   0.346   6.618  0.1319  0.0024 -0.2750
 1063loPI   C3B15659   2.463   0.108   7.161  0.2082 -0.1877  0.0748
 1063loPI   C4B15660   2.120   0.074   7.438  0.0627 -0.1228 -0.0970
 1064loPI    C115661   1.516   5.298   4.964  0.2080 -0.1286  0.1089
 1064loPI    C215662   1.683   4.984   4.781  0.0817 -0.1562  0.0406
 1064loPI    C315663   1.300   5.078   4.709  0.1401  0.0576  0.0033
 1064loPI   PO415664   1.555   5.318   5.245 -0.2319 -0.2176 -0.1865
 1064loPI   GL115665   1.517   5.526   5.685  0.0461  0.1725 -0.0119
 1064loPI   GL215666   1.400   5.321   5.878  0.2280  0.0204  0.3988
 1064loPI   C1A15667   1.822   5.619   6.037  0.0610  0.2600 -0.1241
 1064loPI   C2A15668   1.761   5.647   6.527  0.0525  0.1126  0.0975
 1064loPI   C3A15669   1.787   5.962   6.901 -0.3136  0.2035 -0.2060
 1064loPI   C4A15670   1.732   5.990   7.363  0.0188 -0.3284  0.0886
 1064loPI   C5A15671   1.617   5.996   7.765  0.3200 -0.1584 -0.1671
 1064loPI   C6A15672   1.252   5.930   8.078 -0.1122 -0.0364 -0.0664
 1064loPI   C1B15673   1.362   5.576   6.251  0.2452 -0.1682  0.1076
 1064loPI   C2B15674   1.269   5.814   6.715  0.1310 -0.4028 -0.0281
 1064loPI   C3B15675   1.205   5.825   7.095  0.3102  0.1641  0.1427
 1064loPI   C4B15676   1.176   5.742   7.610 -0.3494 -0.0654  0.2004
 1065loPI    C115677   7.439  10.940   5.387 -0.0458  0.0459  0.0992
 1065loPI    C215678   7.139  11.005   5.130  0.1656  0.0101 -0.1602
 1065loPI    C315679   7.493  11.182   5.073  0.2142  0.0038  0.1098
 1065loPI   PO415680   7.401  11.017   5.584  0.4594  0.1719  0.2377
 1065loPI   GL115681   7.131  11.035   5.944  0.0814  0.1651  0.0609
 1065loPI   GL215682   6.985  10.663   5.967  0.0110 -0.1282 -0.0825
 1065loPI   C1A15683   7.379  11.183   6.236 -0.0671  0.0981 -0.1189
 1065loPI   C2A15684   7.379  11.186   6.668 -0.0697  0.2274  0.0031
 1065loPI   C3A15685   7.530  10.981   7.060  0.3432  0.0899  0.2633
 1065loPI   C4A15686   7.560  11.287   7.401 -0.1488  0.0665  0.3355
 1065loPI   C5A15687   7.609  11.621   7.619 -0.0408 -0.0509  0.1693
 1065loPI   C6A15688   7.657  11.974   7.828 -0.0977 -0.1641 -0.0735
 1065loPI   C1B15689   6.999  10.732   6.442 -0.0066 -0.2017  0.2083
 1065loPI   C2B15690   7.138  10.638   6.818 -0.1885 -0.1828 -0.1955
 1065loPI   C3B15691   7.133  10.671   7.269  0.0181  0.2729  0.4652
 1065loPI   C4B15692   7.343  10.879   7.574  0.1392  0.1061  0.1288
 1066loPI    C115693  15.618   3.965   4.978  0.0175  0.2103  0.0364
 1066loPI    C215694  16.013   3.904   4.990 -0.0250 -0.0681  0.0660
 1066loPI    C315695  15.764   3.594   4.941 -0.2258  0.1399 -0.2648
 1066loPI   PO415696  15.602   4.099   5.269  0.0057  0.4133  0.2290
 1066loPI   GL115697  15.695   4.276   5.604  0.1284  0.0979 -0.3304
 1066loPI   GL215698  15.985   4.121   5.529 -0.1558 -0.0470 -0.1707
 1066loPI   C1A15699  15.428   4.271   5.972  0.0713  0.0316 -0.2404
 1066loPI   C2A15700  15.302   4.206   6.402 -0.0436 -0.0301  0.0803
 1066loPI   C3A15701  15.101   4.434   6.714 -0.4032 -0.2271 -0.2605
 1066loPI   C4A15702  14.896   4.832   6.797  0.2608  0.0019 -0.1087
 1066loPI   C5A15703  14.862   5.285   6.715  0.0506 -0.0911 -0.1905
 1066loPI   C6A15704  14.764   5.634   6.963 -0.0904 -0.2874  0.1056
 1066loPI   C1B15705  15.968   4.070   5.913 -0.1318 -0.2042  0.1433
 1066loPI   C2B15706  15.860   4.296   6.291  0.1542 -0.2550  0.4059
 1066loPI   C3B15707  15.657   4.497   6.682 -0.0645 -0.0457 -0.0420
 1066loPI   C4B15708  15.713   4.374   7.032 -0.0110 -0.2606 -0.0161
 1067loPI    C115709   2.242   3.670   5.193 -0.0473  0.0238 -0.2903
 1067loPI    C215710   2.596   3.573   5.034 -0.0512 -0.0670 -0.2439
 1067loPI    C315711   2.457   3.946   4.999  0.1438  0.0220 -0.0859
 1067loPI   PO415712   2.035   3.494   5.251 -0.2256 -0.0554  0.1812
 1067loPI   GL115713   1.772   3.390   5.688  0.1624  0.0531  0.0045
 1067loPI   GL215714   1.436   3.505   5.602 -0.1898 -0.1430 -0.2102
 1067loPI   C1A15715   1.925   3.111   6.012 -0.2716  0.2260  0.1452
 1067loPI   C2A15716   2.007   3.075   6.394 -0.1408 -0.2132 -0.1393
 1067loPI   C3A15717   2.053   3.143   6.864 -0.3461  0.1476  0.0491
 1067loPI   C4A15718   2.270   3.041   7.290 -0.0912  0.0317  0.1387
 1067loPI   C5A15719   2.244   3.219   7.753  0.1322  0.0382  0.1666
 1067loPI   C6A15720   2.190   3.379   8.172 -0.2189 -0.1884 -0.1043
 1067loPI   C1B15721   1.499   3.380   6.080 -0.0780  0.0623 -0.0063
 1067loPI   C2B15722   1.586   3.384   6.553  0.0964  0.1043  0.1339
 1067loPI   C3B15723   1.561   3.362   6.956 -0.2698 -0.0460 -0.1596
 1067loPI   C4B15724   1.804   3.366   7.379  0.0347  0.3305 -0.2898
 1068loPI    C115725   5.709  17.429   5.331  0.1438  0.2080  0.0041
 1068loPI    C215726   5.310  17.399   5.330  0.1433  0.2144 -0.0058
 1068loPI    C315727   5.529  17.158   5.098  0.1472  0.1846  0.0286
 1068loPI   PO415728   5.773  17.476   5.576 -0.1696  0.0866 -0.1961
 1068loPI   GL115729   6.001  17.093   5.779 -0.0197  0.2338 -0.0223
 1068loPI   GL215730   6.234  17.405   5.788 -0.0277 -0.1726  0.0272
 1068loPI   C1A15731   5.866  17.189   6.162 -0.0845 -0.1706 -0.1324
 1068loPI   C2A15732   5.735  17.369   6.600 -0.0970  0.0015  0.4250
 1068loPI   C3A15733   5.778  17.481   6.986  0.2603 -0.0003  0.2343
 1068loPI   C4A15734   5.892  17.372   7.460 -0.1146  0.2087 -0.0353
 1068loPI   C5A15735   5.682  17.198   7.867 -0.2775  0.0795 -0.2182
 1068loPI   C6A15736   5.442  16.815   7.713  0.1403  0.0654 -0.0027
 1068loPI   C1B15737   6.200  17.551   6.259 -0.1833  0.2174 -0.0970
 1068loPI   C2B15738   6.183  17.527   6.678 -0.3295 -0.0949 -0.2306
 1068loPI   C3B15739   6.237  17.394   7.099 -0.4528  0.2930  0.2466
 1068loPI   C4B15740   6.447  17.038   7.304  0.0658  0.1983 -0.2697
 1069loPI    C115741  17.958   2.167   5.323 -0.4841  0.0338  0.1381
 1069loPI    C215742  18.000   1.928   5.005  0.1208 -0.1481  0.3388
 1069loPI    C315743  17.969   2.324   4.956 -0.0796 -0.1971  0.0446
 1069loPI   PO415744  17.776   1.970   5.489 -0.0303  0.0295 -0.4810
 1069loPI   GL115745  17.912   1.819   5.858  0.1565  0.0965 -0.0547
 1069loPI   GL215746  17.968   1.561   6.018  0.0292 -0.2013  0.1873
 1069loPI   C1A15747  17.791   1.863   6.364  0.1474 -0.0516 -0.2032
 1069loPI   C2A15748  17.819   1.876   6.828 -0.1389 -0.2316 -0.3166
 1069loPI   C3A15749  18.019   1.966   7.279 -0.0608  0.3283  0.0687
 1069loPI   C4A15750  18.291   2.091   7.695  0.1753 -0.0474 -0.1710
 1069loPI   C5A15751  18.419   2.193   8.165  0.0436  0.4316  0.0500
 1069loPI   C6A15752  18.782   2.259   8.317 -0.0221  0.2070 -0.1226
 1069loPI   C1B15753  18.100   1.476   6.524  0.1741 -0.0206  0.0585
 1069loPI   C2B15754  18.306   1.508   6.983 -0.0665 -0.1866 -0.0132
 1069loPI   C3B15755  18.328   1.445   7.405 -0.2111 -0.0156  0.3252
 1069loPI   C4B15756  18.418   1.000   7.663 -0.2146 -0.1953  0.1764
 1070loPI    C115757  17.911   9.637   5.589  0.0086  0.2425 -0.0193
 1070loPI    C215758  17.993   9.974   5.390 -0.2431  0.2854 -0.0526
 1070loPI    C315759  17.889   9.644   5.190  0.1308  0.1493 -0.0282
 1070loPI   PO415760  17.947   9.594   5.756 -0.0455  0.0444 -0.1203
 1070loPI   GL115761  17.696   9.321   5.942  0.0425 -0.2409 -0.1489
 1070loPI   GL215762  17.855   9.048   5.891 -0.3527 -0.2660 -0.2169
 1070loPI   C1A15763  17.898   9.342   6.340 -0.2306  0.1555 -0.2786
 1070loPI   C2A15764  17.992   9.314   6.749  0.2136 -0.0128  0.0857
 1070loPI   C3A15765  18.183   9.179   7.074  0.1296 -0.2381  0.2910
 1070loPI   C4A15766  18.310   9.395   7.447  0.3114  0.0065 -0.2784
 1070loPI   C5A15767  18.471   9.369   7.931  0.1823  0.0188 -0.0683
 1070loPI   C6A15768  18.499   9.503   8.431  0.1933  0.0957  0.1319
 1070loPI   C1B15769  17.803   8.788   6.288 -0.0026  0.0685  0.0260
 1070loPI   C2B15770  17.723   8.727   6.778  0.2523 -0.1647  0.2616
 1070loPI   C3B15771  17.618   8.587   7.114 -0.0867  0.0869 -0.0282
 1070loPI   C4B15772  17.492   8.924   7.447  0.3802 -0.3200  0.0401
 1071loPI    C115773  16.974   9.751   5.459  0.0160  0.0845  0.0403
 1071loPI    C215774  17.035   9.990   5.144 -0.1758  0.0330 -0.0374
 1071loPI    C315775  17.024   9.593   5.095  0.1003  0.0081  0.0847
 1071loPI   PO415776  16.741   9.758   5.593 -0.5420  0.2272  0.0879
 1071loPI   GL115777  16.600   9.766   5.983  0.0354 -0.0522 -0.0015
 1071loPI   GL215778  16.586   9.476   5.999 -0.0179 -0.1757  0.0713
 1071loPI   C1A15779  16.881   9.671   6.428  0.1383  0.2769  0.1071
 1071loPI   C2A15780  17.005   9.850   6.810  0.0668 -0.1378  0.3124
 1071loPI   C3A15781  16.960   9.930   7.222 -0.0394  0.1457  0.1547
 1071loPI   C4A15782  17.050   9.954   7.674  0.0875 -0.0672 -0.3374
 1071loPI   C5A15783  17.383  10.011   7.989  0.1592 -0.0302  0.1046
 1071loPI   C6A15784  17.715   9.871   8.085 -0.1385  0.2064 -0.1291
 1071loPI   C1B15785  16.595   9.263   6.309 -0.2542  0.2363 -0.1607
 1071loPI   C2B15786  16.476   9.191   6.784  0.3070 -0.1080 -0.3317
 1071loPI   C3B15787  16.367   9.188   7.166  0.4148 -0.1729 -0.2820
 1071loPI   C4B15788  16.271   9.303   7.548 -0.2850  0.1710 -0.1271
 1072loPI    C115789  10.284   3.178   5.232 -0.1337 -0.1510 -0.0791
 1072loPI    C215790   9.916   3.203   5.387 -0.1095  0.1228 -0.0613
 1072loPI    C315791  10.008   2.903   5.139 -0.2860 -0.0564  0.0865
 1072loPI   PO415792  10.392   3.199   5.564 -0.0047 -0.0240  0.1121
 1072loPI   GL115793  10.127   3.035   5.976  0.1324  0.1334  0.1773
 1072loPI   GL215794   9.709   3.124   5.915  0.1745 -0.2152  0.0875
 1072loPI   C1A15795  10.274   3.139   6.401  0.2494  0.3760  0.1706
 1072loPI   C2A15796  10.314   3.172   6.908  0.1488  0.0702 -0.2087
 1072loPI   C3A15797  10.453   3.328   7.335 -0.5352 -0.3071 -0.1385
 1072loPI   C4A15798  10.745   3.340   7.628  0.1524  0.4156 -0.1406
 1072loPI   C5A15799  11.038   3.088   7.869  0.3134 -0.0319  0.1973
 1072loPI   C6A15800  11.165   2.667   8.099 -0.2888  0.0230 -0.0846
 1072loPI   C1B15801   9.688   3.289   6.278 -0.0572  0.3423 -0.2579
 1072loPI   C2B15802   9.554   3.476   6.698 -0.2461  0.3038 -0.2825
 1072loPI   C3B15803   9.559   3.671   7.173  0.0346  0.0037  0.2393
 1072loPI   C4B15804   9.694   3.782   7.648  0.1251  0.0217  0.3614
 1073loPI    C115805   8.808  10.771   5.208  0.0376 -0.0957  0.2611
 1073loPI    C215806   8.623  10.425   5.128  0.0108 -0.0292  0.0243
 1073loPI    C315807   8.652  10.706   4.845 -0.0825  0.2159  0.2538
 1073loPI   PO415808   8.672  10.851   5.510  0.1474  0.0986  0.0981
 1073loPI   GL115809   8.777  10.749   5.968 -0.1239  0.0546  0.4431
 1073loPI   GL215810   9.132  10.699   6.054  0.0491  0.0613 -0.0660
 1073loPI   C1A15811   8.693  11.030   6.312 -0.3281  0.2684 -0.0824
 1073loPI   C2A15812   8.945  11.319   6.627  0.0260  0.0922  0.0130
 1073loPI   C3A15813   8.947  11.545   7.020  0.1141  0.0550  0.0350
 1073loPI   C4A15814   9.062  11.769   7.379  0.3006  0.2475  0.2382
 1073loPI   C5A15815   9.076  11.726   7.872 -0.1343  0.2140 -0.0318
 1073loPI   C6A15816   8.800  11.517   8.149  0.0532 -0.0859  0.1945
 1073loPI   C1B15817   9.356  10.817   6.555 -0.1624  0.0216 -0.2787
 1073loPI   C2B15818   9.249  10.723   6.970 -0.3685  0.0799 -0.4151
 1073loPI   C3B15819   9.233  10.381   7.294 -0.3715  0.1363 -0.0835
 1073loPI   C4B15820   9.484  10.544   7.621  0.0527 -0.1599 -0.1430
 1074loPI    C115821  17.259   7.093   5.015 -0.0383  0.1615 -0.1085
 1074loPI    C215822  17.627   6.944   5.068 -0.0567  0.1382 -0.0455
 1074loPI    C315823  17.458   6.937   4.705 -0.0166  0.0995 -0.0635
 1074loPI   PO415824  17.172   7.088   5.249 -0.1237  0.1496  0.0572
 1074loPI   GL115825  17.199   6.960   5.637  0.0488  0.6252 -0.1863
 1074loPI   GL215826  17.040   6.584   5.765 -0.3060 -0.3669  0.0375
 1074loPI   C1A15827  17.126   7.060   6.059 -0.0970  0.4937 -0.0026
 1074loPI   C2A15828  17.123   7.124   6.399 -0.1946 -0.1649 -0.2241
 1074loPI   C3A15829  17.104   7.171   6.918 -0.2263 -0.1198  0.1287
 1074loPI   C4A15830  17.312   7.101   7.218  0.3351 -0.0945 -0.2321
 1074loPI   C5A15831  17.535   7.145   7.631  0.2203  0.3397 -0.0573
 1074loPI   C6A15832  17.550   6.933   8.003 -0.1802 -0.3069 -0.1638
 1074loPI   C1B15833  16.815   6.599   6.104 -0.2174  0.1178 -0.0968
 1074loPI   C2B15834  16.854   6.336   6.388  0.1437 -0.3409 -0.0272
 1074loPI   C3B15835  16.777   6.311   6.833  0.1433 -0.0398  0.1100
 1074loPI   C4B15836  16.589   6.331   7.110 -0.0677  0.1130  0.1419
 1075loPI    C115837  15.473   2.054   5.477  0.0215  0.1096  0.1272
 1075loPI    C215838  15.413   1.666   5.401 -0.0594  0.1138  0.1694
 1075loPI    C315839  15.108   1.924   5.380  0.0481  0.2211 -0.1310
 1075loPI   PO415840  15.552   2.021   5.711 -0.3701  0.0270  0.0247
 1075loPI   GL115841  15.879   1.995   6.040 -0.1161  0.0216  0.0329
 1075loPI   GL215842  15.984   2.292   6.140  0.1606  0.1271  0.0192
 1075loPI   C1A15843  15.653   2.038   6.398  0.0642  0.3137 -0.1930
 1075loPI   C2A15844  15.617   2.185   6.813 -0.1019  0.1407  0.2060
 1075loPI   C3A15845  15.589   2.400   7.154  0.0535  0.2169 -0.1581
 1075loPI   C4A15846  15.668   2.778   7.298 -0.0250  0.4701 -0.0586
 1075loPI   C5A15847  15.412   3.176   7.409 -0.5060 -0.2570 -0.3628
 1075loPI   C6A15848  15.267   3.542   7.126 -0.2640  0.2407 -0.0026
 1075loPI   C1B15849  16.043   2.320   6.526  0.0872 -0.1353 -0.0621
 1075loPI   C2B15850  16.059   2.466   6.910  0.3019 -0.0442 -0.0597
 1075loPI   C3B15851  16.151   2.343   7.313  0.1191  0.3754  0.1471
 1075loPI   C4B15852  16.233   2.730   7.618  0.1998  0.0252 -0.2136
 1076loPI    C115853   1.402   2.207   4.952 -0.1468 -0.0092 -0.0327
 1076loPI    C215854   1.616   1.871   4.990 -0.1023  0.0505  0.2715
 1076loPI    C315855   1.644   2.089   4.656  0.0249 -0.1389  0.1564
 1076loPI   PO415856   1.384   2.283   5.294  0.2079  0.0416 -0.0669
 1076loPI   GL115857   1.206   2.689   5.434 -0.0835  0.0480 -0.0834
 1076loPI   GL215858   0.980   2.797   5.588 -0.2473  0.2691  0.1128
 1076loPI   C1A15859   1.491   2.968   5.757 -0.6459 -0.2293 -0.1230
 1076loPI   C2A15860   1.488   2.945   6.238  0.3564 -0.0654 -0.0772
 1076loPI   C3A15861   1.552   2.930   6.698  0.6028  0.3241 -0.0175
 1076loPI   C4A15862   1.624   2.742   7.071  0.2388 -0.2624 -0.0435
 1076loPI   C5A15863   1.324   2.578   7.363  0.1296  0.0016  0.1518
 1076loPI   C6A15864   1.240   2.533   7.912 -0.1465  0.0383 -0.0428
 1076loPI   C1B15865   1.085   2.765   6.006 -0.0387 -0.0030 -0.0570
 1076loPI   C2B15866   1.090   2.613   6.435  0.0783  0.0419  0.1758
 1076loPI   C3B15867   1.218   2.520   6.906  0.1878  0.0073  0.2214
 1076loPI   C4B15868   1.392   2.157   7.007  0.0004 -0.1687 -0.2264
 1077loPI    C115869   5.856   4.697   5.087  0.0652 -0.2014  0.0099
 1077loPI    C215870   6.207   4.800   4.926  0.0881 -0.2792  0.0100
 1077loPI    C315871   5.866   4.888   4.736  0.1018 -0.0812  0.0757
 1077loPI   PO415872   5.874   4.745   5.416 -0.2380 -0.1751  0.0064
 1077loPI   GL115873   6.048   4.596   5.835  0.0986  0.0026  0.2065
 1077loPI   GL215874   5.947   4.323   5.960 -0.1519  0.0571  0.1896
 1077loPI   C1A15875   6.072   4.782   6.169  0.2968  0.1787  0.1969
 1077loPI   C2A15876   6.006   4.762   6.616  0.1081  0.1423 -0.1096
 1077loPI   C3A15877   6.026   4.693   7.065  0.3883  0.3155 -0.0612
 1077loPI   C4A15878   6.207   4.617   7.525  0.0355 -0.0715 -0.0424
 1077loPI   C5A15879   6.031   4.769   7.943  0.3745  0.0222 -0.2176
 1077loPI   C6A15880   5.701   4.872   8.218 -0.2254  0.0207  0.0831
 1077loPI   C1B15881   5.930   4.293   6.398  0.3909  0.0138 -0.0102
 1077loPI   C2B15882   5.992   4.229   6.845 -0.2448  0.0371  0.0817
 1077loPI   C3B15883   5.953   4.220   7.272 -0.1527 -0.1228 -0.2142
 1077loPI   C4B15884   5.797   4.039   7.581  0.2712  0.1644  0.3649
 1078loPI    C115885  11.089  12.645   5.535 -0.1467  0.0466  0.2400
 1078loPI    C215886  10.733  12.818   5.592 -0.1226  0.2361 -0.1540
 1078loPI    C315887  11.012  13.001   5.372  0.2218  0.0885  0.1488
 1078loPI   PO415888  11.143  12.479   5.758 -0.4066 -0.1231  0.0858
 1078loPI   GL115889  11.049  12.198   6.035  0.1960  0.2465 -0.0106
 1078loPI   GL215890  11.327  12.221   6.239 -0.0264 -0.1265 -0.1053
 1078loPI   C1A15891  10.947  12.418   6.402 -0.0043 -0.3185  0.0890
 1078loPI   C2A15892  10.827  12.362   6.849  0.2005 -0.2993 -0.1226
 1078loPI   C3A15893  10.813  12.124   7.199 -0.2622 -0.1376 -0.1136
 1078loPI   C4A15894  10.815  12.121   7.649 -0.1855 -0.1237  0.0298
 1078loPI   C5A15895  10.749  12.388   8.096  0.2592  0.0393 -0.2680
 1078loPI   C6A15896  10.574  12.826   8.235 -0.1706 -0.0985  0.0434
 1078loPI   C1B15897  11.256  11.997   6.687 -0.3402 -0.0582 -0.2540
 1078loPI   C2B15898  11.371  11.983   7.092 -0.2132  0.0077  0.0838
 1078loPI   C3B15899  11.275  11.877   7.561 -0.1805  0.0179 -0.0455
 1078loPI   C4B15900  11.054  11.812   8.047 -0.2308 -0.0762  0.3215
 1079loPI    C115901  11.718   5.198   4.866 -0.1295  0.0444  0.0368
 1079loPI    C215902  11.710   5.450   4.555  0.0841  0.0305  0.0179
 1079loPI    C315903  12.051   5.390   4.755  0.0053 -0.1486  0.1013
 1079loPI   PO415904  11.579   5.307   5.030 -0.3053 -0.1757 -0.0934
 1079loPI   GL115905  11.420   5.386   5.565 -0.0903  0.0605 -0.1140
 1079loPI   GL215906  11.686   5.251   5.561  0.0210  0.1615  0.0774
 1079loPI   C1A15907  11.466   5.672   5.898  0.0054 -0.0892 -0.0803
 1079loPI   C2A15908  11.526   5.493   6.302  0.2872 -0.0866 -0.3436
 1079loPI   C3A15909  11.635   5.595   6.758 -0.2317  0.0835 -0.1175
 1079loPI   C4A15910  11.687   5.536   7.171 -0.3619 -0.0428 -0.1215
 1079loPI   C5A15911  11.849   5.609   7.660  0.4223  0.2059  0.0381
 1079loPI   C6A15912  12.050   5.312   7.864  0.0543  0.2354 -0.0291
 1079loPI   C1B15913  11.734   5.110   6.009  0.0225 -0.3284 -0.1285
 1079loPI   C2B15914  11.568   5.010   6.414 -0.3118 -0.0281 -0.1022
 1079loPI   C3B15915  11.878   5.154   6.734 -0.0249 -0.1088 -0.2286
 1079loPI   C4B15916  12.029   5.167   7.303 -0.1166 -0.0271  0.2044
 1080POPI    C115917   9.147  13.990   5.726 -0.0659  0.0185 -0.0491
 1080POPI    C215918   9.500  13.806   5.685  0.0883  0.3029 -0.0210
 1080POPI    C315919   9.295  13.920   5.361 -0.2242 -0.3119 -0.0535
 1080POPI   PO415920   9.057  13.868   6.012  0.1747 -0.0195  0.4126
 1080POPI   GL115921   8.990  13.739   6.373 -0.0603 -0.0905  0.0215
 1080POPI   GL215922   8.771  14.022   6.423  0.0572  0.0372  0.0596
 1080POPI   C1A15923   8.787  13.687   6.764 -0.1389 -0.3725  0.5520
 1080POPI   D2A15924   8.356  13.599   7.051  0.3307 -0.4377 -0.1356
 1080POPI   C3A15925   8.249  13.604   7.353  0.2191  0.2240 -0.0018
 1080POPI   C4A15926   7.850  13.396   7.543 -0.0300 -0.0626 -0.0087
 1080POPI   C1B15927   8.761  14.351   6.765 -0.1692 -0.2591 -0.0646
 1080POPI   C2B15928   8.728  14.456   7.119 -0.0134  0.4260 -0.1559
 1080POPI   C3B15929   8.482  14.562   7.512  0.1450 -0.0130  0.1860
 1080POPI   C4B15930   8.457  14.521   7.965 -0.0047  0.2173  0.3036
 1081POPI    C115931  13.773   2.084   5.472  0.0033 -0.3023 -0.2113
 1081POPI    C215932  13.916   2.365   5.226 -0.1007 -0.1148 -0.0605
 1081POPI    C315933  14.152   2.065   5.347  0.1331  0.1267  0.0945
 1081POPI   PO415934  13.705   2.148   5.709 -0.4699 -0.2075  0.2594
 1081POPI   GL115935  13.701   2.477   6.057  0.0857  0.1576 -0.1594
 1081POPI   GL215936  14.047   2.633   6.187  0.2889  0.0719 -0.0760
 1081POPI   C1A15937  13.444   2.765   6.414 -0.3325 -0.1645  0.1199
 1081POPI   D2A15938  13.124   2.941   6.538 -0.3565  0.0511  0.0698
 1081POPI   C3A15939  12.710   2.726   6.619 -0.2182 -0.2820 -0.0651
 1081POPI   C4A15940  12.471   2.746   6.952  0.3417 -0.0478 -0.1978
 1081POPI   C1B15941  13.897   2.854   6.445  0.3270  0.3557  0.1533
 1081POPI   C2B15942  13.890   3.071   6.862  0.0636 -0.3613  0.0964
 1081POPI   C3B15943  14.092   3.468   7.037  0.1277 -0.0384  0.1114
 1081POPI   C4B15944  14.321   3.612   7.271  0.3189  0.0099 -0.1012
 1082POPI    C115945  15.916  17.142   5.237  0.0078 -0.0174  0.0651
 1082POPI    C215946  16.241  17.358   5.151 -0.1286  0.1542 -0.0259
 1082POPI    C315947  16.035  17.183   4.857  0.0331 -0.1796  0.0548
 1082POPI   PO415948  15.987  17.033   5.489  0.1024  0.0102  0.1896
 1082POPI   GL115949  16.188  17.079   5.910  0.0429  0.0057 -0.0954
 1082POPI   GL215950  16.251  17.336   5.760  0.1857 -0.1485 -0.0684
 1082POPI   C1A15951  15.894  17.038   6.395  0.0353 -0.1114 -0.0280
 1082POPI   D2A15952  15.662  16.967   6.767 -0.0544 -0.4054 -0.0996
 1082POPI   C3A15953  15.841  17.032   7.041  0.1465  0.0613 -0.2582
 1082POPI   C4A15954  15.891  17.155   7.453 -0.0672 -0.1277  0.3896
 1082POPI   C1B15955  16.209  17.485   6.167  0.1522  0.2651  0.0839
 1082POPI   C2B15956  16.260  17.801   6.472  0.0763  0.0585 -0.0356
 1082POPI   C3B15957  16.286  17.810   6.925  0.0844 -0.0621  0.0651
 1082POPI   C4B15958  16.230  17.980   7.365 -0.0030 -0.0802 -0.2867
 1083POPI    C115959  13.252  18.348   5.297 -0.1204  0.2353  0.1549
 1083POPI    C215960  13.569  18.171   5.130 -0.3464  0.1220 -0.1642
 1083POPI    C315961  13.570  18.566   5.193 -0.0737  0.0969  0.0033
 1083POPI   PO415962  13.268  18.305   5.593 -0.2060  0.2341  0.2547
 1083POPI   GL115963  13.534  18.397   5.925 -0.2928 -0.3243  0.3048
 1083POPI   GL215964  13.424  18.328   6.134  0.1472  0.1597  0.1262
 1083POPI   C1A15965  13.906  18.485   6.156 -0.1664 -0.2626 -0.1550
 1083POPI   D2A15966  14.056  18.699   6.408  0.1862 -0.1956 -0.0328
 1083POPI   C3A15967  14.059  18.869   6.800 -0.1259 -0.2105 -0.0680
 1083POPI   C4A15968  13.905  18.965   7.166 -0.1093  0.3707  0.2094
 1083POPI   C1B15969  13.099  18.231   6.382 -0.1644  0.0125  0.0047
 1083POPI   C2B15970  12.945  18.383   6.753  0.0116  0.0081 -0.2548
 1083POPI   C3B15971  12.994  18.640   7.070 -0.1623 -0.0222  0.0005
 1083POPI   C4B15972  12.910  18.591   7.441  0.0783  0.0567  0.0088
 1084POPI    C115973   3.486  16.832   5.422  0.1904 -0.0884 -0.2256
 1084POPI    C215974   3.087  16.844   5.447  0.2161 -0.0941  0.2940
 1084POPI    C315975   3.262  16.710   5.114 -0.2089  0.1702 -0.0469
 1084POPI   PO415976   3.566  16.963   5.604 -0.2185  0.0983  0.2893
 1084POPI   GL115977   3.452  17.029   5.980 -0.2425 -0.0968  0.2757
 1084POPI   GL215978   3.160  17.108   5.981 -0.0028  0.2916 -0.2612
 1084POPI   C1A15979   3.431  17.062   6.431 -0.2417  0.2026 -0.1273
 1084POPI   D2A15980   3.381  16.822   6.813 -0.0772 -0.3035  0.0144
 1084POPI   C3A15981   3.686  16.764   7.100 -0.0444 -0.4519 -0.1401
 1084POPI   C4A15982   4.079  16.768   7.235 -0.1481 -0.0666 -0.0657
 1084POPI   C1B15983   3.028  17.292   6.324 -0.3075  0.2567  0.1012
 1084POPI   C2B15984   3.048  17.197   6.769  0.1434  0.1937  0.2253
 1084POPI   C3B15985   2.905  17.382   7.198  0.0607  0.0601 -0.4431
 1084POPI   C4B15986   2.479  17.597   7.434  0.2467  0.0670  0.0815
 1085POPI    C115987  15.499  12.734   5.719  0.0414  0.1243  0.2085
 1085POPI    C215988  15.349  12.697   5.350  0.0968 -0.0168  0.1995
 1085POPI    C315989  15.592  13.002   5.436  0.0500  0.0403  0.1312
 1085POPI   PO415990  15.523  12.493   5.785 -0.1207  0.0133 -0.2333
 1085POPI   GL115991  15.363  12.489   6.210 -0.2735 -0.4268  0.0475
 1085POPI   GL215992  15.315  12.793   6.247  0.4405  0.3778  0.3409
 1085POPI   C1A15993  15.295  12.298   6.642  0.1116 -0.0051  0.1519
 1085POPI   D2A15994  15.298  12.237   7.181 -0.0436  0.0071  0.1269
 1085POPI   C3A15995  15.076  12.218   7.639  0.1661  0.1698  0.0852
 1085POPI   C4A15996  15.033  12.533   7.995  0.1278 -0.0453 -0.1072
 1085POPI   C1B15997  15.531  12.850   6.620  0.0800  0.2605  0.0128
 1085POPI   C2B15998  15.458  12.960   6.997  0.2441 -0.1135 -0.0017
 1085POPI   C3B15999  15.622  13.062   7.402  0.0375  0.2478  0.0878
 1085POPI   C4B16000  15.818  13.107   7.849 -0.3994  0.0043  0.1475
 1086POPI    C116001   4.344   1.970   5.302 -0.1322  0.1542  0.2029
 1086POPI    C216002   4.015   2.186   5.228 -0.0210  0.2845  0.0831
 1086POPI    C316003   4.136   1.909   4.965 -0.0635  0.2002  0.1519
 1086POPI   PO416004   4.357   1.897   5.458 -0.0275  0.0498  0.2202
 1086POPI   GL116005   4.403   1.863   5.880 -0.0969 -0.2505 -0.1449
 1086POPI   GL216006   4.208   1.792   6.045  0.1301 -0.0656  0.0272
 1086POPI   C1A16007   4.370   2.259   5.984 -0.0631 -0.0329 -0.0450
 1086POPI   D2A16008   4.143   2.676   5.961  0.0908  0.0967 -0.2913
 1086POPI   C3A16009   3.973   2.718   6.318  0.0688 -0.2273  0.2064
 1086POPI   C4A16010   3.941   2.760   6.788 -0.2617 -0.0410  0.1557
 1086POPI   C1B16011   4.292   1.761   6.574 -0.1117 -0.1707  0.0779
 1086POPI   C2B16012   4.551   1.604   6.999  0.1198 -0.4893 -0.0081
 1086POPI   C3B16013   4.447   1.630   7.398 -0.0781 -0.2371 -0.0432
 1086POPI   C4B16014   4.194   1.927   7.666  0.0146 -0.1671 -0.2498
 1087POPI    C116015  11.001   4.663   5.134 -0.2647  0.0124 -0.1155
 1087POPI    C216016  11.308   4.803   4.919 -0.1376 -0.2132 -0.0844
 1087POPI    C316017  11.017   4.594   4.740 -0.2009 -0.1212 -0.0900
 1087POPI   PO416018  11.109   4.608   5.313 -0.0641  0.0895 -0.2220
 1087POPI   GL116019  11.110   4.765   5.727  0.0748  0.0688  0.1903
 1087POPI   GL216020  10.780   4.618   5.773  0.0815 -0.0278 -0.3284
 1087POPI   C1A16021  11.141   4.327   5.938 -0.0117  0.2907 -0.1012
 1087POPI   D2A16022  11.042   4.203   6.367 -0.4835 -0.0804 -0.3671
 1087POPI   C3A16023  11.173   4.135   6.757 -0.0038  0.0192 -0.0345
 1087POPI   C4A16024  11.537   4.153   6.905 -0.4342  0.1917  0.0511
 1087POPI   C1B16025  10.866   4.697   6.155  0.1297 -0.0158 -0.4038
 1087POPI   C2B16026  11.085   4.742   6.481  0.1455 -0.3669  0.2006
 1087POPI   C3B16027  11.205   4.751   6.893  0.0991  0.1333 -0.1979
 1087POPI   C4B16028  11.412   4.500   7.200 -0.1712 -0.2714  0.4076
 1088POPI    C116029   0.287  14.215   4.862  0.2938  0.0264 -0.0850
 1088POPI    C216030   0.155  13.915   4.632 -0.0076 -0.1662  0.3273
 1088POPI    C316031   0.198  14.281   4.477  0.2100 -0.3810 -0.1406
 1088POPI   PO416032   0.374  14.161   5.056 -0.1848  0.2650 -0.1008
 1088POPI   GL116033   0.185  14.310   5.429 -0.0737  0.1589 -0.2776
 1088POPI   GL216034   0.128  13.962   5.465 -0.2619  0.3386  0.1975
 1088POPI   C1A16035   0.046  14.412   5.808  0.2168  0.2152  0.1862
 1088POPI   D2A16036  -0.214  14.467   6.272 -0.1330  0.3845 -0.0704
 1088POPI   C3A16037  -0.345  14.259   6.556  0.0351 -0.0378  0.1335
 1088POPI   C4A16038  -0.258  14.067   7.059  0.4220  0.0401  0.1609
 1088POPI   C1B16039   0.223  13.950   5.848 -0.1627  0.5647  0.1354
 1088POPI   C2B16040   0.176  14.054   6.231  0.2147  0.1712  0.0031
 1088POPI   C3B16041   0.178  14.306   6.515 -0.1075 -0.3600  0.0926
 1088POPI   C4B16042   0.233  14.253   6.955  0.1930  0.0619  0.2288
 1089POPI    C116043   1.476  16.937   5.776 -0.0766 -0.0140 -0.1367
 1089POPI    C216044   1.734  17.114   5.526  0.0639  0.0234  0.0333
 1089POPI    C316045   1.482  17.336   5.743 -0.2266 -0.0207 -0.2523
 1089POPI   PO416046   1.631  16.761   5.835  0.4094 -0.1110 -0.0227
 1089POPI   GL116047   1.682  16.635   6.162  0.2593 -0.0590 -0.0826
 1089POPI   GL216048   1.622  16.259   6.179  0.3475  0.4780  0.1502
 1089POPI   C1A16049   2.014  16.832   6.460 -0.0607  0.2866  0.2375
 1089POPI   D2A16050   1.984  16.879   6.839  0.1038  0.1703  0.0732
 1089POPI   C3A16051   1.600  16.924   7.118  0.1872  0.0814  0.1516
 1089POPI   C4A16052   1.477  17.362   7.214 -0.3077  0.1694  0.1130
 1089POPI   C1B16053   1.401  16.234   6.422 -0.0995 -0.0379  0.2088
 1089POPI   C2B16054   1.253  16.369   6.888 -0.0771  0.1018  0.4365
 1089POPI   C3B16055   1.121  16.693   7.176  0.3813 -0.3324 -0.0880
 1089POPI   C4B16056   0.665  16.848   7.233  0.2140 -0.1506 -0.1264
 1090POPI    C116057   5.236   7.389   4.753 -0.4604  0.1647 -0.1894
 1090POPI    C216058   5.354   7.716   4.555  0.1715  0.0360 -0.0490
 1090POPI    C316059   5.410   7.354   4.394 -0.2618 -0.0241 -0.0773
 1090POPI   PO416060   5.143   7.487   5.004  0.0575  0.1772  0.1940
 1090POPI   GL116061   4.871   7.498   5.547 -0.1212 -0.0278  0.1415
 1090POPI   GL216062   5.093   7.208   5.604 -0.0113  0.1532 -0.1616
 1090POPI   C1A16063   4.929   7.925   5.776 -0.2527 -0.0508  0.2364
 1090POPI   D2A16064   5.296   8.000   6.037  0.1345 -0.1298 -0.0484
 1090POPI   C3A16065   5.436   7.886   6.424  0.0112 -0.0206 -0.1282
 1090POPI   C4A16066   5.605   7.597   6.520 -0.0754 -0.1587 -0.0890
 1090POPI   C1B16067   5.181   7.122   6.038 -0.0361 -0.1618  0.0773
 1090POPI   C2B16068   5.312   7.060   6.446  0.2467 -0.0190 -0.0147
 1090POPI   C3B16069   5.325   7.192   6.796  0.0069 -0.1548  0.0046
 1090POPI   C4B16070   5.502   7.490   7.070 -0.0242  0.1010 -0.0995
 1091POPI    C116071   2.768  11.180   5.503 -0.1209 -0.0244 -0.0622
 1091POPI    C216072   3.152  11.277   5.451 -0.0655 -0.1089  0.1789
 1091POPI    C316073   2.865  11.516   5.308  0.0754  0.0127  0.0959
 1091POPI   PO416074   2.824  11.091   5.758  0.0580  0.4370 -0.1024
 1091POPI   GL116075   3.202  11.164   6.089  0.4810 -0.0316 -0.0994
 1091POPI   GL216076   2.856  11.168   6.268  0.1609 -0.0600  0.3329
 1091POPI   C1A16077   3.245  11.174   6.600 -0.2502 -0.0366  0.0773
 1091POPI   D2A16078   3.117  11.319   6.996  0.2146 -0.0417  0.1903
 1091POPI   C3A16079   3.482  11.544   7.349 -0.3019 -0.1099  0.3159
 1091POPI   C4A16080   3.894  11.686   7.566  0.2879 -0.0617 -0.1465
 1091POPI   C1B16081   2.729  11.141   6.719  0.0269 -0.0118 -0.1981
 1091POPI   C2B16082   2.568  11.078   7.090  0.1054  0.0828 -0.1644
 1091POPI   C3B16083   2.764  11.345   7.347  0.0113 -0.1808 -0.0468
 1091POPI   C4B16084   2.958  11.247   7.681  0.1986 -0.2302 -0.0663
 1092POPI    C116085   8.664  15.084   5.841  0.1617  0.0589  0.0985
 1092POPI    C216086   8.664  14.685   5.874 -0.1708  0.0735  0.3259
 1092POPI    C316087   8.460  14.862   5.578  0.1352  0.0716  0.1083
 1092POPI   PO416088   8.610  15.168   6.089 -0.4326  0.0795  0.0269
 1092POPI   GL116089   8.570  14.922   6.360 -0.1854  0.1079  0.1837
 1092POPI   GL216090   8.555  14.489   6.362  0.0309  0.1113  0.1332
 1092POPI   C1A16091   8.769  14.879   6.878 -0.0060 -0.1116  0.1509
 1092POPI   D2A16092   8.730  15.019   7.300 -0.0374 -0.2070  0.1184
 1092POPI   C3A16093   8.323  15.038   7.590  0.0560 -0.0188  0.0010
 1092POPI   C4A16094   8.212  14.976   8.012  0.2844 -0.0312 -0.2873
 1092POPI   C1B16095   8.310  14.696   6.726 -0.1986  0.0352  0.2123
 1092POPI   C2B16096   8.220  14.811   7.037 -0.1865 -0.0074 -0.1417
 1092POPI   C3B16097   7.935  15.044   7.270  0.1123  0.3459 -0.4283
 1092POPI   C4B16098   7.529  15.237   7.616 -0.0248  0.2885 -0.1466
 1093POPI    C116099  11.520  12.004   5.775 -0.1993  0.0417  0.0392
 1093POPI    C216100  11.304  11.732   5.975 -0.0522 -0.0557  0.0673
 1093POPI    C316101  11.265  11.767   5.578  0.0610 -0.2444  0.0385
 1093POPI   PO416102  11.762  11.940   5.855  0.0273 -0.2017 -0.1507
 1093POPI   GL116103  11.810  12.060   6.288 -0.3089 -0.0198 -0.2776
 1093POPI   GL216104  12.010  11.754   6.298 -0.1015  0.0625  0.2666
 1093POPI   C1A16105  11.745  12.127   6.683 -0.1494  0.1861  0.3908
 1093POPI   D2A16106  11.839  12.179   7.010 -0.0149  0.0651  0.2293
 1093POPI   C3A16107  11.676  12.361   7.324 -0.2090  0.1220 -0.2814
 1093POPI   C4A16108  11.638  12.642   7.640 -0.0185 -0.0242  0.0268
 1093POPI   C1B16109  11.999  11.661   6.723  0.4282  0.0249 -0.1887
 1093POPI   C2B16110  12.119  11.687   7.040 -0.0407  0.1327 -0.1257
 1093POPI   C3B16111  11.831  11.793   7.368  0.2421 -0.0683  0.1065
 1093POPI   C4B16112  11.620  11.580   7.703  0.1101  0.0188  0.0056
 1094POPI    C116113  11.918   8.295   5.362  0.0040  0.2083 -0.1867
 1094POPI    C216114  12.284   8.423   5.264  0.1587 -0.0504  0.0371
 1094POPI    C316115  12.077   8.195   5.008  0.1682  0.0656 -0.0749
 1094POPI   PO416116  11.838   8.517   5.519  0.0656  0.3754  0.0645
 1094POPI   GL116117  11.832   8.565   5.962 -0.0282  0.0236  0.0695
 1094POPI   GL216118  12.125   8.384   5.967 -0.1083  0.0891  0.4178
 1094POPI   C1A16119  11.648   8.508   6.424  0.1551 -0.3895  0.1953
 1094POPI   D2A16120  11.652   8.376   6.830  0.1900  0.1502  0.3774
 1094POPI   C3A16121  11.959   8.229   7.092 -0.0102  0.2442 -0.1565
 1094POPI   C4A16122  12.102   8.298   7.529 -0.1559  0.1207  0.1409
 1094POPI   C1B16123  12.039   8.102   6.387  0.3071  0.1789 -0.0630
 1094POPI   C2B16124  11.912   7.864   6.776 -0.2677  0.2353 -0.0547
 1094POPI   C3B16125  11.979   7.820   7.384  0.0861  0.0324  0.4043
 1094POPI   C4B16126  11.956   7.626   7.775  0.0016 -0.3080  0.0120
 1095POPI    C116127   3.821   2.581   5.533 -0.0874  0.1697 -0.0171
 1095POPI    C216128   3.594   2.442   5.235 -0.2365  0.2666  0.0503
 1095POPI    C316129   3.586   2.263   5.592 -0.1794  0.2487  0.0428
 1095POPI   PO416130   3.797   2.899   5.541 -0.3314  0.0276  0.3246
 1095POPI   GL116131   3.738   3.097   5.918 -0.2847 -0.1142  0.0331
 1095POPI   GL216132   3.363   3.106   5.854  0.2394  0.4571  0.1464
 1095POPI   C1A16133   3.919   3.338   6.152  0.4257 -0.1415 -0.2895
 1095POPI   D2A16134   4.098   3.255   6.543 -0.5485  0.0638  0.4451
 1095POPI   C3A16135   4.413   2.968   6.662  0.1688 -0.0695  0.0014
 1095POPI   C4A16136   4.709   3.005   6.957 -0.1917 -0.0059  0.0695
 1095POPI   C1B16137   3.481   3.374   6.314 -0.0255  0.0015  0.0739
 1095POPI   C2B16138   3.683   3.502   6.722  0.0214 -0.0216  0.0639
 1095POPI   C3B16139   4.043   3.278   6.997  0.1476 -0.1257  0.0640
 1095POPI   C4B16140   4.251   3.096   7.230 -0.0267  0.1574  0.2533
 1096POPI    C116141  17.158   5.851   5.429  0.0943 -0.2299 -0.0090
 1096POPI    C216142  17.388   6.037   5.160 -0.0077 -0.0726  0.0109
 1096POPI    C316143  17.101   5.787   5.038 -0.0628  0.0090 -0.0277
 1096POPI   PO416144  17.325   5.733   5.577 -0.0355 -0.2000  0.2139
 1096POPI   GL116145  17.597   5.653   5.867 -0.0976  0.1414  0.0056
 1096POPI   GL216146  17.763   5.923   5.845  0.2490  0.3406  0.0597
 1096POPI   C1A16147  17.383   5.571   6.233  0.0251 -0.2270  0.0055
 1096POPI   D2A16148  17.361   5.507   6.613  0.1356  0.0101 -0.1593
 1096POPI   C3A16149  17.501   5.750   6.996  0.2193 -0.1943  0.0786
 1096POPI   C4A16150  17.675   5.627   7.407 -0.3938 -0.1491 -0.1861
 1096POPI   C1B16151  17.755   6.039   6.221  0.1265 -0.0228  0.0255
 1096POPI   C2B16152  17.511   6.001   6.556  0.2499 -0.2786 -0.0258
 1096POPI   C3B16153  17.292   6.162   6.882 -0.5210  0.0241  0.2538
 1096POPI   C4B16154  17.076   6.291   7.251  0.1655  0.0188 -0.3683
 1097POPI    C116155   3.811  13.838   5.180 -0.3355 -0.1543 -0.0216
 1097POPI    C216156   3.747  13.450   5.107  0.1329 -0.2286 -0.0682
 1097POPI    C316157   4.102  13.571   5.247 -0.0529  0.1695  0.0721
 1097POPI   PO416158   3.591  13.887   5.353  0.2975 -0.0950 -0.1208
 1097POPI   GL116159   3.480  13.805   5.796  0.0760  0.1645  0.0817
 1097POPI   GL216160   3.456  14.177   5.914 -0.3364  0.0882  0.2257
 1097POPI   C1A16161   3.278  13.815   6.158 -0.3689  0.3506 -0.1574
 1097POPI   D2A16162   3.366  13.972   6.588 -0.0656 -0.1309 -0.0764
 1097POPI   C3A16163   3.153  13.731   6.853 -0.0359 -0.0112  0.0651
 1097POPI   C4A16164   3.166  13.602   7.281  0.1301 -0.0123 -0.1496
 1097POPI   C1B16165   3.732  14.222   6.210 -0.0527  0.1771  0.0820
 1097POPI   C2B16166   3.987  14.374   6.485  0.2933 -0.0503  0.0164
 1097POPI   C3B16167   3.859  14.251   6.932 -0.0961 -0.1077  0.0694
 1097POPI   C4B16168   3.574  14.192   7.195  0.2211  0.0400  0.1781
 1098POPI    C116169   2.081  15.274   5.167  0.3442 -0.0452  0.1461
 1098POPI    C216170   1.755  15.224   4.941  0.2277  0.1803  0.2607
 1098POPI    C316171   2.092  15.364   4.777  0.2220  0.0934  0.1739
 1098POPI   PO416172   2.046  15.113   5.388  0.1379  0.1078  0.2316
 1098POPI   GL116173   1.662  14.974   5.785 -0.0808  0.3214 -0.1649
 1098POPI   GL216174   1.858  14.747   5.773  0.0875  0.0792  0.4082
 1098POPI   C1A16175   1.708  15.200   6.118  0.2405 -0.0583 -0.2819
 1098POPI   D2A16176   2.005  15.352   6.306  0.1832  0.2714  0.0616
 1098POPI   C3A16177   2.017  15.122   6.605  0.1650  0.1445  0.1475
 1098POPI   C4A16178   1.793  15.244   6.984 -0.2831 -0.0439  0.0209
 1098POPI   C1B16179   2.008  14.800   6.169  0.0826 -0.2067  0.1289
 1098POPI   C2B16180   2.314  14.693   6.555  0.1928  0.0168 -0.0314
 1098POPI   C3B16181   2.258  14.846   6.940  0.1080 -0.0853  0.2149
 1098POPI   C4B16182   2.341  15.096   7.144 -0.3994  0.0062  0.1462
 1099POPI    C116183  10.947  16.005   5.709 -0.1632 -0.1466  0.0173
 1099POPI    C216184  10.691  16.034   5.403 -0.0708  0.0513 -0.0426
 1099POPI    C316185  11.065  15.905   5.340 -0.0963 -0.0502  0.0121
 1099POPI   PO416186  10.834  16.091   5.922 -0.0303  0.1499  0.1376
 1099POPI   GL116187  10.757  15.903   6.455 -0.1187  0.0517 -0.0123
 1099POPI   GL216188  10.973  16.091   6.371 -0.0084 -0.1893 -0.0590
 1099POPI   C1A16189  10.857  15.982   6.845  0.3874  0.0477 -0.1767
 1099POPI   D2A16190  11.029  16.006   7.330 -0.0617  0.1505  0.1020
 1099POPI   C3A16191  11.397  15.906   7.273  0.2485 -0.2249  0.0568
 1099POPI   C4A16192  11.767  15.932   7.592  0.0280  0.0940  0.1749
 1099POPI   C1B16193  11.158  16.478   6.498  0.0196  0.1573  0.1528
 1099POPI   C2B16194  11.490  16.667   6.718  0.0507  0.0466  0.3360
 1099POPI   C3B16195  11.792  16.882   7.053 -0.3280  0.1481  0.1148
 1099POPI   C4B16196  11.988  16.737   7.479  0.1531 -0.1304 -0.2443
 1100POPI    C116197   1.934  12.306   5.301 -0.1236 -0.0525  0.0921
 1100POPI    C216198   2.180  12.082   5.078 -0.0373  0.2011 -0.0723
 1100POPI    C316199   1.883  11.909   5.284 -0.0806 -0.0445 -0.3346
 1100POPI   PO416200   2.152  12.438   5.482 -0.1005 -0.0203  0.1347
 1100POPI   GL116201   2.375  12.428   5.903 -0.0780  0.1121  0.0874
 1100POPI   GL216202   2.266  12.750   5.898  0.1308 -0.1571  0.0715
 1100POPI   C1A16203   2.358  12.476   6.399  0.1525 -0.0627 -0.1087
 1100POPI   D2A16204   2.405  12.591   6.873  0.0272  0.1066  0.4731
 1100POPI   C3A16205   2.243  12.582   7.204  0.1092 -0.1352 -0.1111
 1100POPI   C4A16206   2.188  12.568   7.645  0.2462  0.2533 -0.2057
 1100POPI   C1B16207   2.118  12.981   6.374 -0.1352 -0.0956  0.3428
 1100POPI   C2B16208   2.001  12.946   6.882 -0.0767  0.0121 -0.2938
 1100POPI   C3B16209   2.095  13.113   7.257 -0.2789  0.3203 -0.0029
 1100POPI   C4B16210   1.979  13.083   7.698 -0.2797  0.1458  0.0712
 1101POPI    C116211  12.928   7.173   5.474 -0.0881  0.1890  0.1621
 1101POPI    C216212  13.175   7.434   5.297  0.1988 -0.0943  0.1368
 1101POPI    C316213  12.811   7.368   5.145  0.2671  0.0113 -0.0760
 1101POPI   PO416214  12.936   7.203   5.731 -0.1191 -0.1071 -0.2036
 1101POPI   GL116215  12.872   7.227   6.161  0.0945 -0.3394 -0.0272
 1101POPI   GL216216  13.181   7.237   6.199  0.0653 -0.0116  0.2084
 1101POPI   C1A16217  12.664   7.203   6.542 -0.1258  0.0465  0.0351
 1101POPI   D2A16218  12.782   7.027   6.861  0.0410 -0.1514 -0.1523
 1101POPI   C3A16219  12.917   6.698   7.209 -0.1470  0.3240  0.2080
 1101POPI   C4A16220  13.090   6.524   7.603 -0.0842 -0.0767  0.3055
 1101POPI   C1B16221  13.135   6.962   6.529 -0.3637 -0.0100 -0.0771
 1101POPI   C2B16222  13.278   7.029   6.954  0.1179  0.2673 -0.1881
 1101POPI   C3B16223  13.411   6.925   7.455 -0.1362 -0.1018 -0.0355
 1101POPI   C4B16224  13.618   7.140   7.729 -0.0662  0.0236  0.3741
 1102POPI    C116225   1.683   6.412   5.037 -0.1430 -0.0102  0.0322
 1102POPI    C216226   1.851   6.608   4.731  0.1119 -0.0010  0.1756
 1102POPI    C316227   1.521   6.389   4.672  0.0579  0.1435 -0.0682
 1102POPI   PO416228   1.912   6.268   5.178 -0.0088  0.0866  0.0359
 1102POPI   GL116229   2.168   6.237   5.572 -0.3799  0.0798  0.0781
 1102POPI   GL216230   1.954   5.984   5.650  0.0419  0.0130 -0.0202
 1102POPI   C1A16231   2.344   6.242   6.064  0.4563 -0.0470 -0.0193
 1102POPI   D2A16232   2.726   6.127   6.265  0.0291  0.0317  0.3927
 1102POPI   C3A16233   2.814   6.063   6.710 -0.1979  0.0258  0.0008
 1102POPI   C4A16234   2.635   5.908   6.990 -0.0747  0.0906 -0.3437
 1102POPI   C1B16235   1.855   6.231   5.996  0.0588 -0.2285 -0.0913
 1102POPI   C2B16236   1.971   6.080   6.368 -0.0634 -0.1178  0.0354
 1102POPI   C3B16237   2.255   6.077   6.690 -0.0054 -0.0639 -0.0406
 1102POPI   C4B16238   2.155   6.144   7.150 -0.0175 -0.0406  0.0519
 1103POPI    C116239   0.057   1.404   5.216 -0.0469  0.0860  0.0518
 1103POPI    C216240   0.236   1.343   4.864  0.1070 -0.1074  0.1610
 1103POPI    C316241  -0.140   1.478   4.877  0.1963  0.1741 -0.0723
 1103POPI   PO416242   0.224   1.519   5.417 -0.2320  0.0313 -0.1190
 1103POPI   GL116243   0.173   1.609   5.890  0.2791 -0.0413  0.1247
 1103POPI   GL216244   0.026   1.944   5.745 -0.0057 -0.1823  0.1887
 1103POPI   C1A16245   0.070   1.601   6.256  0.3725  0.1459  0.1620
 1103POPI   D2A16246   0.187   1.409   6.627 -0.3368  0.1469 -0.0757
 1103POPI   C3A16247   0.314   0.958   6.602  0.2944 -0.0434 -0.1898
 1103POPI   C4A16248   0.499   0.753   6.349 -0.3013  0.1981  0.0850
 1103POPI   C1B16249  -0.114   2.025   6.159 -0.1755 -0.1413  0.1494
 1103POPI   C2B16250  -0.136   1.974   6.667 -0.0821 -0.0850 -0.2186
 1103POPI   C3B16251   0.032   1.948   7.130 -0.1212  0.2265 -0.0787
 1103POPI   C4B16252   0.230   1.802   7.582 -0.0291  0.2372  0.1220
 1104POPI    C116253  18.152  15.911   5.050  0.0335  0.1818 -0.0264
 1104POPI    C216254  17.897  16.136   4.839 -0.0227 -0.0831 -0.2467
 1104POPI    C316255  18.249  16.287   4.954 -0.2165  0.2394 -0.0614
 1104POPI   PO416256  18.080  15.818   5.303 -0.1578  0.0623 -0.1945
 1104POPI   GL116257  18.143  16.058   5.692  0.2142 -0.1384  0.1140
 1104POPI   GL216258  18.153  16.335   5.826  0.0300  0.1165  0.1674
 1104POPI   C1A16259  17.973  15.956   6.145 -0.1525  0.0665  0.2918
 1104POPI   D2A16260  18.217  15.868   6.466  0.1946 -0.3891  0.1674
 1104POPI   C3A16261  17.920  15.842   6.834 -0.2443  0.1133  0.0340
 1104POPI   C4A16262  17.769  16.016   7.173  0.1472  0.0432 -0.0938
 1104POPI   C1B16263  18.260  16.347   6.284 -0.4677 -0.2460  0.1936
 1104POPI   C2B16264  18.233  16.310   6.699  0.0392 -0.0379 -0.0536
 1104POPI   C3B16265  18.223  16.226   7.145 -0.3320  0.0376 -0.0989
 1104POPI   C4B16266  18.032  16.172   7.567  0.1239 -0.2102  0.0953
 1105POPI    C116267  13.979  14.155   5.649 -0.0714 -0.0577 -0.1086
 1105POPI    C216268  13.887  14.312   5.293  0.0017  0.0388 -0.0855
 1105POPI    C316269  13.843  13.919   5.356 -0.0708  0.0312 -0.1809
 1105POPI   PO416270  14.334  14.218   5.731 -0.2784 -0.4999 -0.1345
 1105POPI   GL116271  14.437  14.366   6.117  0.1219  0.0889  0.1336
 1105POPI   GL216272  14.422  14.670   6.224 -0.3458 -0.1078 -0.0102
 1105POPI   C1A16273  14.117  14.412   6.506 -0.4611  0.2201  0.0847
 1105POPI   D2A16274  14.087  14.452   6.903 -0.0717 -0.1815  0.1042
 1105POPI   C3A16275  14.011  14.852   7.079 -0.1115 -0.0267  0.0009
 1105POPI   C4A16276  13.838  15.231   6.969 -0.0971 -0.0061  0.0268
 1105POPI   C1B16277  14.609  14.368   6.630 -0.1847  0.0571 -0.0035
 1105POPI   C2B16278  14.550  14.387   7.066  0.0115 -0.2696 -0.0725
 1105POPI   C3B16279  14.486  14.561   7.319 -0.1226 -0.3054 -0.0505
 1105POPI   C4B16280  14.213  14.660   7.497  0.1230 -0.0824 -0.0664
 1106POPI    C116281   4.561  10.645   5.486  0.1847  0.0911  0.0986
 1106POPI    C216282   4.624  10.275   5.624  0.0862 -0.0310 -0.1749
 1106POPI    C316283   4.275  10.367   5.452  0.0582  0.2297  0.0148
 1106POPI   PO416284   4.511  10.871   5.616  0.0162  0.1209 -0.2641
 1106POPI   GL116285   4.561  11.145   6.023 -0.1349 -0.0494  0.1058
 1106POPI   GL216286   4.404  11.437   5.877 -0.1982 -0.0010 -0.0658
 1106POPI   C1A16287   4.394  11.230   6.553  0.0847  0.1712  0.1279
 1106POPI   D2A16288   4.342  11.088   6.945  0.0827 -0.1254  0.0501
 1106POPI   C3A16289   4.590  11.300   7.252  0.0223 -0.1860  0.1230
 1106POPI   C4A16290   4.890  11.592   7.659  0.0530  0.1627  0.2475
 1106POPI   C1B16291   4.097  11.563   6.164  0.0846  0.2362  0.3221
 1106POPI   C2B16292   4.025  11.641   6.637  0.0214  0.1404  0.1734
 1106POPI   C3B16293   3.999  11.532   7.087  0.0408  0.1251 -0.0024
 1106POPI   C4B16294   3.963  11.147   7.244 -0.0144 -0.1960 -0.1715
 1107POPI    C116295   2.325  11.638   5.345  0.0080  0.1117  0.1713
 1107POPI    C216296   2.391  11.285   5.168 -0.0738  0.0994  0.1652
 1107POPI    C316297   2.409  11.623   4.954 -0.1982  0.0826  0.1268
 1107POPI   PO416298   2.517  11.598   5.637  0.3210 -0.1012 -0.0407
 1107POPI   GL116299   2.468  11.433   6.026  0.2518  0.0382  0.1479
 1107POPI   GL216300   2.346  11.767   6.141  0.4086  0.0828  0.2759
 1107POPI   C1A16301   2.375  11.347   6.382 -0.0305  0.1083 -0.1140
 1107POPI   D2A16302   2.243  11.282   6.813  0.0421 -0.4587 -0.4210
 1107POPI   C3A16303   2.086  11.111   7.216  0.4076 -0.0655 -0.0760
 1107POPI   C4A16304   1.917  10.983   7.580 -0.2671 -0.2014 -0.0536
 1107POPI   C1B16305   2.439  11.931   6.559  0.1699 -0.0654 -0.2051
 1107POPI   C2B16306   2.303  12.042   6.943 -0.0703 -0.1596 -0.2087
 1107POPI   C3B16307   2.185  12.118   7.379  0.0134 -0.0733  0.1152
 1107POPI   C4B16308   2.081  11.906   7.735  0.2250 -0.0060  0.2492
 1108POPI    C116309   4.813   7.056   5.234 -0.0508  0.0670  0.0329
 1108POPI    C216310   4.644   6.866   4.925 -0.0091  0.0455  0.0233
 1108POPI    C316311   4.718   7.258   4.902 -0.3347  0.1174  0.1418
 1108POPI   PO416312   4.579   6.977   5.450 -0.1910  0.2676 -0.1053
 1108POPI   GL116313   4.685   7.073   5.893 -0.1714  0.1726  0.3317
 1108POPI   GL216314   4.422   7.005   6.000 -0.0273  0.3003  0.1293
 1108POPI   C1A16315   4.788   7.242   6.279 -0.1229  0.3547 -0.2873
 1108POPI   D2A16316   4.710   7.149   6.627  0.2079 -0.0599  0.0583
 1108POPI   C3A16317   4.900   7.326   7.009 -0.1390 -0.4254  0.1025
 1108POPI   C4A16318   5.109   7.415   7.379  0.0014 -0.1267 -0.0261
 1108POPI   C1B16319   4.203   7.276   6.166 -0.1152  0.4011  0.1209
 1108POPI   C2B16320   4.323   7.466   6.448 -0.2854  0.0935  0.2718
 1108POPI   C3B16321   4.498   7.567   6.823  0.0595  0.0993 -0.2815
 1108POPI   C4B16322   4.623   7.664   7.208  0.0210  0.1706 -0.0227
 1109POPI    C116323   8.486   8.907   5.068 -0.1842  0.0150 -0.1783
 1109POPI    C216324   8.297   9.205   5.258 -0.2113 -0.0737 -0.0650
 1109POPI    C316325   8.324   9.207   4.859 -0.2535  0.0556 -0.0675
 1109POPI   PO416326   8.627   8.852   5.239  0.1679 -0.0937 -0.1267
 1109POPI   GL116327   8.681   8.775   5.686  0.2275 -0.0295 -0.1833
 1109POPI   GL216328   8.834   8.516   5.801  0.3197  0.1447 -0.0497
 1109POPI   C1A16329   8.414   8.793   6.091 -0.2682  0.0837  0.0804
 1109POPI   D2A16330   8.222   8.922   6.554  0.1814 -0.0331  0.2499
 1109POPI   C3A16331   7.825   8.626   6.718 -0.0074  0.2073 -0.1115
 1109POPI   C4A16332   7.403   8.572   6.676  0.5425 -0.2133 -0.3081
 1109POPI   C1B16333   8.900   8.347   6.267  0.1398 -0.3174 -0.1229
 1109POPI   C2B16334   8.809   8.435   6.728  0.0849  0.0102  0.0625
 1109POPI   C3B16335   8.898   8.423   7.197 -0.0339 -0.4503  0.2715
 1109POPI   C4B16336   8.725   8.374   7.547 -0.0258  0.1386 -0.1382
 1110POPI    C116337   3.528  13.049   5.292  0.1025 -0.1898  0.0130
 1110POPI    C216338   3.589  12.926   4.916 -0.0092 -0.0765 -0.0432
 1110POPI    C316339   3.402  12.688   5.176 -0.1948 -0.0404 -0.1422
 1110POPI   PO416340   3.783  13.105   5.426 -0.0349  0.2230 -0.0624
 1110POPI   GL116341   3.738  13.390   5.620 -0.1515  0.2022  0.0108
 1110POPI   GL216342   3.435  13.156   5.793 -0.1711  0.2294 -0.1769
 1110POPI   C1A16343   3.654  13.506   6.111 -0.2679  0.0184 -0.4636
 1110POPI   D2A16344   3.633  13.468   6.530  0.0373 -0.1371  0.0334
 1110POPI   C3A16345   3.642  13.406   7.031  0.2930  0.1845 -0.2010
 1110POPI   C4A16346   3.610  13.320   7.407 -0.2625 -0.1343 -0.3283
 1110POPI   C1B16347   3.496  12.992   6.260  0.2201 -0.1214  0.1753
 1110POPI   C2B16348   3.570  12.997   6.704 -0.0214  0.2094  0.2005
 1110POPI   C3B16349   3.787  12.833   7.012  0.0772 -0.0926 -0.1880
 1110POPI   C4B16350   3.830  12.918   7.386  0.0662  0.2691  0.2422
 1111POPI    C116351   4.408   6.184   5.408 -0.1493 -0.0827  0.0200
 1111POPI    C216352   4.616   6.495   5.265 -0.1098 -0.0644  0.1169
 1111POPI    C316353   4.232   6.446   5.162 -0.0413 -0.1320 -0.1115
 1111POPI   PO416354   4.407   6.173   5.724  0.0974  0.0766 -0.2703
 1111POPI   GL116355   4.164   6.310   6.063  0.0357  0.3250  0.0240
 1111POPI   GL216356   3.865   6.011   6.051 -0.2390  0.4182  0.2266
 1111POPI   C1A16357   4.311   6.350   6.555 -0.1454  0.1206 -0.0885
 1111POPI   D2A16358   4.333   6.516   6.924  0.1684 -0.0354  0.0050
 1111POPI   C3A16359   4.473   6.525   7.254  0.0763  0.3441  0.2427
 1111POPI   C4A16360   4.354   6.729   7.673  0.0270  0.1116 -0.1147
 1111POPI   C1B16361   4.053   5.966   6.471  0.1483  0.0005  0.0415
 1111POPI   C2B16362   4.168   5.903   6.881  0.0411  0.2913  0.0699
 1111POPI   C3B16363   4.174   6.121   7.306  0.1353  0.1100  0.3080
 1111POPI   C4B16364   4.311   6.254   7.734  0.1389 -0.1041 -0.0913
 1112POPI    C116365   8.019  15.983   5.274  0.1418  0.1287 -0.0147
 1112POPI    C216366   8.401  16.011   5.158  0.0910 -0.0107 -0.2223
 1112POPI    C316367   8.118  15.913   4.893 -0.1357  0.3957 -0.1408
 1112POPI   PO416368   8.005  16.186   5.519 -0.2448  0.2144 -0.2501
 1112POPI   GL116369   7.807  16.307   5.926  0.1330  0.1729 -0.1913
 1112POPI   GL216370   7.840  15.944   6.036 -0.0858  0.0361 -0.0668
 1112POPI   C1A16371   7.633  16.483   6.356  0.1242  0.1086 -0.0689
 1112POPI   D2A16372   7.662  16.589   6.875  0.1425 -0.3442 -0.1242
 1112POPI   C3A16373   7.375  16.588   7.134  0.3815  0.2947 -0.2136
 1112POPI   C4A16374   7.437  16.534   7.481 -0.3851  0.1435  0.0917
 1112POPI   C1B16375   7.762  16.050   6.462 -0.0610 -0.0009  0.2311
 1112POPI   C2B16376   7.723  16.085   6.884 -0.1321 -0.0613 -0.4394
 1112POPI   C3B16377   7.602  16.128   7.207  0.0614  0.1326 -0.0706
 1112POPI   C4B16378   7.664  16.126   7.662 -0.1521 -0.1420 -0.0162
 1113POPI    C116379  10.301  11.474   5.710  0.0137  0.0379  0.1316
 1113POPI    C216380  10.365  11.556   5.323  0.1825 -0.0531  0.1391
 1113POPI    C316381  10.000  11.451   5.448  0.0876  0.1472  0.0354
 1113POPI   PO416382  10.428  11.619   5.837 -0.0166 -0.1473  0.1191
 1113POPI   GL116383  10.705  11.730   6.256 -0.0916 -0.0768 -0.0363
 1113POPI   GL216384  10.979  11.776   6.335 -0.1420 -0.1738  0.0089
 1113POPI   C1A16385  10.487  11.526   6.534  0.0982 -0.0244  0.1176
 1113POPI   D2A16386  10.507  11.423   6.996 -0.0147 -0.2837 -0.1922
 1113POPI   C3A16387  10.279  11.342   7.348  0.1746 -0.0751 -0.2415
 1113POPI   C4A16388  10.033  11.255   7.712  0.2987  0.2003 -0.2990
 1113POPI   C1B16389  10.845  11.721   6.777 -0.1559  0.1498 -0.3706
 1113POPI   C2B16390  10.952  11.658   7.192 -0.6561  0.1955 -0.0756
 1113POPI   C3B16391  10.765  11.571   7.590 -0.0695 -0.3787  0.1096
 1113POPI   C4B16392  10.421  11.584   7.930  0.0973 -0.1159 -0.1128
 1114POPI    C116393  14.941   4.965   5.455  0.0632  0.0573 -0.1957
 1114POPI    C216394  15.058   4.795   5.112 -0.1866  0.0405 -0.2745
 1114POPI    C316395  14.951   5.181   5.118 -0.1933  0.0378 -0.2179
 1114POPI   PO416396  14.792   4.712   5.520  0.3653 -0.6649 -0.0898
 1114POPI   GL116397  14.679   4.485   5.870  0.0083 -0.2348  0.1770
 1114POPI   GL216398  14.600   4.206   5.721  0.0635  0.1396  0.1462
 1114POPI   C1A16399  14.892   4.583   6.209 -0.0358  0.0677 -0.0405
 1114POPI   D2A16400  14.635   4.496   6.549 -0.2690  0.0718 -0.0424
 1114POPI   C3A16401  14.661   4.320   6.926  0.1779  0.1823  0.0248
 1114POPI   C4A16402  14.724   4.394   7.419 -0.0689 -0.2311  0.0455
 1114POPI   C1B16403  14.770   4.030   6.144  0.0804 -0.0735 -0.3080
 1114POPI   C2B16404  14.841   4.011   6.522  0.1467 -0.1057  0.2269
 1114POPI   C3B16405  14.902   3.804   6.948  0.3814 -0.2326  0.1104
 1114POPI   C4B16406  14.725   3.853   7.345 -0.1485  0.2714 -0.0610
 1115POPI    C116407   7.121   5.952   5.618 -0.3102 -0.0211  0.3095
 1115POPI    C216408   7.294   6.307   5.681  0.0156 -0.1016 -0.0842
 1115POPI    C316409   6.935   6.289   5.507 -0.0404  0.0356  0.0143
 1115POPI   PO416410   7.266   5.814   5.829  0.0987  0.1004 -0.0833
 1115POPI   GL116411   7.222   5.789   6.196  0.2797  0.1155  0.1712
 1115POPI   GL216412   7.016   5.504   6.130 -0.3240  0.4069  0.1325
 1115POPI   C1A16413   7.346   5.973   6.515  0.1248 -0.1082  0.1210
 1115POPI   D2A16414   7.452   6.076   6.933 -0.0576  0.1759  0.1814
 1115POPI   C3A16415   7.446   6.498   6.948  0.1633  0.2873 -0.4664
 1115POPI   C4A16416   7.093   6.797   7.147 -0.0226  0.0699  0.0652
 1115POPI   C1B16417   6.790   5.348   6.395  0.2220  0.4679 -0.1858
 1115POPI   C2B16418   6.881   5.313   6.834 -0.0465 -0.0171 -0.1150
 1115POPI   C3B16419   7.217   5.128   7.039  0.3522  0.1956  0.1679
 1115POPI   C4B16420   7.382   4.869   7.341  0.5400 -0.2594  0.2840
 1116POPI    C116421  14.682   2.012   5.717 -0.0814 -0.0864  0.3703
 1116POPI    C216422  14.582   1.627   5.758 -0.1109 -0.1151  0.0504
 1116POPI    C316423  14.643   1.780   5.394 -0.0421  0.1697  0.1791
 1116POPI   PO416424  14.620   2.117   5.963 -0.1037 -0.1860 -0.0762
 1116POPI   GL116425  14.341   2.210   6.321  0.0491  0.1069  0.4737
 1116POPI   GL216426  14.566   2.125   6.444  0.0121  0.2243 -0.2607
 1116POPI   C1A16427  14.207   2.450   6.687 -0.0125 -0.1996 -0.0414
 1116POPI   D2A16428  14.355   2.974   6.673 -0.0182  0.5012  0.2916
 1116POPI   C3A16429  14.727   3.053   6.399 -0.2114 -0.2174 -0.0589
 1116POPI   C4A16430  14.971   3.250   6.090 -0.2187 -0.0862  0.0181
 1116POPI   C1B16431  14.634   2.004   6.832  0.4970  0.1957 -0.1738
 1116POPI   C2B16432  14.591   2.276   7.060  0.0112 -0.1008  0.1503
 1116POPI   C3B16433  14.547   2.681   7.309  0.0261 -0.0432  0.0170
 1116POPI   C4B16434  14.403   3.113   7.268  0.0766 -0.2090  0.2535
 1117POPI    C116435   0.260  12.450   5.282  0.3011 -0.0689 -0.0164
 1117POPI    C216436   0.169  12.606   4.925  0.0374  0.1186  0.1293
 1117POPI    C316437   0.304  12.230   4.951 -0.1492  0.0293 -0.1482
 1117POPI   PO416438   0.496  12.660   5.412 -0.0783 -0.0157  0.0445
 1117POPI   GL116439   0.541  12.661   5.885  0.2392  0.1106  0.1134
 1117POPI   GL216440   0.554  12.461   6.184 -0.1577  0.0699  0.0120
 1117POPI   C1A16441   0.121  12.633   6.212 -0.2765 -0.1856 -0.1147
 1117POPI   D2A16442  -0.049  12.720   6.587 -0.0971 -0.0232  0.2969
 1117POPI   C3A16443  -0.131  12.407   6.888  0.0862  0.2230 -0.0427
 1117POPI   C4A16444  -0.164  12.698   7.274  0.0597  0.3254  0.0650
 1117POPI   C1B16445   0.863  12.270   6.461 -0.0256 -0.1871 -0.3470
 1117POPI   C2B16446   0.845  12.262   6.896  0.0557  0.2481 -0.1486
 1117POPI   C3B16447   0.842  12.475   7.248 -0.1176 -0.3892  0.0451
 1117POPI   C4B16448   0.727  12.672   7.583 -0.0682  0.0475 -0.5560
 1118POPI    C116449   6.333  12.810   5.313  0.1111  0.3337  0.0762
 1118POPI    C216450   6.258  12.902   4.931 -0.0777  0.1122  0.0575
 1118POPI    C316451   6.598  12.714   5.029 -0.1928 -0.1581 -0.0528
 1118POPI   PO416452   6.049  12.689   5.384  0.0223  0.0440  0.0241
 1118POPI   GL116453   5.886  12.577   5.821 -0.1154 -0.0252 -0.3945
 1118POPI   GL216454   5.975  12.387   6.022  0.0167  0.3465  0.0577
 1118POPI   C1A16455   5.633  12.721   6.261  0.2942  0.0193 -0.0154
 1118POPI   D2A16456   5.598  12.795   6.708  0.2900  0.0122 -0.2977
 1118POPI   C3A16457   5.667  12.543   7.084 -0.1449 -0.2132  0.0214
 1118POPI   C4A16458   5.684  12.257   7.348  0.0184 -0.1967  0.0712
 1118POPI   C1B16459   5.978  12.458   6.583 -0.0116  0.1615 -0.0997
 1118POPI   C2B16460   6.247  12.547   6.915  0.0227  0.0568  0.1476
 1118POPI   C3B16461   6.539  12.410   7.335 -0.2186 -0.1064 -0.1901
 1118POPI   C4B16462   6.686  12.111   7.692 -0.1031 -0.0370  0.0850
 1119POPI    C116463   1.566   0.711   5.354  0.0545 -0.0607 -0.0611
 1119POPI    C216464   1.724   0.350   5.289  0.0611 -0.0594 -0.0528
 1119POPI    C316465   1.487   0.517   5.014  0.3225  0.0718 -0.2023
 1119POPI   PO416466   1.414   0.680   5.673  0.3515 -0.1030 -0.1247
 1119POPI   GL116467   1.392   0.941   6.069 -0.0703  0.4099 -0.2189
 1119POPI   GL216468   1.707   1.155   5.993 -0.0413  0.1355 -0.2339
 1119POPI   C1A16469   1.337   1.231   6.435 -0.1080  0.0780  0.4019
 1119POPI   D2A16470   1.492   1.457   6.766  0.1128 -0.0332  0.2719
 1119POPI   C3A16471   1.380   1.669   7.117  0.2033  0.0596 -0.0225
 1119POPI   C4A16472   1.624   1.566   7.564  0.1075 -0.0225 -0.2266
 1119POPI   C1B16473   1.930   1.133   6.414  0.0485  0.3060 -0.0692
 1119POPI   C2B16474   1.860   1.183   6.875  0.1088 -0.3646 -0.0052
 1119POPI   C3B16475   1.557   1.172   7.207  0.0508  0.1836  0.0837
 1119POPI   C4B16476   1.222   1.233   7.506  0.2578 -0.4121  0.2625
 1120POPI    C116477   3.235  16.203   5.268  0.0736 -0.0240 -0.0040
 1120POPI    C216478   3.500  15.935   5.135  0.1399  0.0202  0.0378
 1120POPI    C316479   3.109  15.875   5.077  0.1532 -0.0948  0.0639
 1120POPI   PO416480   3.447  16.294   5.484  0.1903  0.0250 -0.0578
 1120POPI   GL116481   3.408  16.180   5.966 -0.2611 -0.1588 -0.1886
 1120POPI   GL216482   3.209  16.195   6.227  0.1986 -0.0065 -0.0565
 1120POPI   C1A16483   3.345  15.709   6.126 -0.0594 -0.1601 -0.1853
 1120POPI   D2A16484   3.189  15.415   6.308  0.1623  0.1921 -0.0704
 1120POPI   C3A16485   3.216  15.404   6.657  0.1166 -0.0862  0.2125
 1120POPI   C4A16486   3.111  15.672   7.057  0.3621 -0.2599 -0.0909
 1120POPI   C1B16487   3.133  16.652   6.394 -0.1307  0.1614  0.1058
 1120POPI   C2B16488   2.846  16.741   6.660  0.2701  0.0332 -0.1709
 1120POPI   C3B16489   2.910  16.699   7.046  0.1099 -0.1201  0.0190
 1120POPI   C4B16490   3.083  16.758   7.331  0.0246 -0.0389  0.0711
 1121POPI    C116491  10.610   7.737   5.469  0.1879 -0.0977 -0.1699
 1121POPI    C216492  10.886   7.535   5.677  0.0692 -0.0834  0.0037
 1121POPI    C316493  10.654   7.344   5.413  0.1890 -0.1100 -0.0833
 1121POPI   PO416494  10.413   7.870   5.629  0.0756  0.1755  0.0280
 1121POPI   GL116495  10.657   7.812   6.012 -0.0043 -0.0229  0.1624
 1121POPI   GL216496  10.677   7.949   6.182  0.3911 -0.0913 -0.2216
 1121POPI   C1A16497  10.594   7.481   6.380 -0.0048  0.1075  0.0521
 1121POPI   D2A16498  10.472   7.176   6.619 -0.0893 -0.1258 -0.1743
 1121POPI   C3A16499  10.267   7.278   7.024 -0.2363 -0.0045  0.0694
 1121POPI   C4A16500  10.236   7.258   7.446  0.2694  0.0366 -0.0040
 1121POPI   C1B16501  10.621   7.977   6.623  0.0744 -0.1965  0.1085
 1121POPI   C2B16502  10.606   7.993   7.088 -0.1796 -0.0903  0.1630
 1121POPI   C3B16503  10.536   8.185   7.446 -0.1714  0.2896 -0.1306
 1121POPI   C4B16504  10.155   8.199   7.765 -0.4794  0.2445 -0.4040
 1122POPI    C116505   3.668  14.695   5.215 -0.0086 -0.2915  0.1058
 1122POPI    C216506   3.678  14.316   5.087 -0.0233 -0.2413 -0.0462
 1122POPI    C316507   3.611  14.613   4.827  0.3961 -0.0992  0.0007
 1122POPI   PO416508   3.558  14.683   5.523  0.0155  0.0427 -0.2808
 1122POPI   GL116509   3.827  14.776   5.832 -0.2252  0.2999  0.0277
 1122POPI   GL216510   3.647  14.678   6.042  0.3064  0.1448 -0.1177
 1122POPI   C1A16511   4.153  15.048   5.937  0.1980 -0.1290  0.0904
 1122POPI   D2A16512   4.258  15.380   6.079  0.1956 -0.0401  0.0407
 1122POPI   C3A16513   4.334  15.385   6.412  0.0122  0.3110 -0.3560
 1122POPI   C4A16514   4.322  15.542   6.795 -0.1860  0.2283  0.2322
 1122POPI   C1B16515   3.860  14.816   6.404  0.1117 -0.0161 -0.4975
 1122POPI   C2B16516   4.107  14.963   6.759  0.0643  0.4442 -0.3200
 1122POPI   C3B16517   4.094  15.135   7.172 -0.1072 -0.2497 -0.0504
 1122POPI   C4B16518   3.771  15.094   7.419  0.1965 -0.0466 -0.0151
 1123POPI    C116519   6.941  11.403   5.350 -0.3344  0.2585 -0.2471
 1123POPI    C216520   6.572  11.357   5.498 -0.2621 -0.1356 -0.1768
 1123POPI    C316521   6.672  11.183   5.151 -0.1377 -0.0417 -0.1888
 1123POPI   PO416522   7.104  11.403   5.545  0.0760 -0.2164 -0.0555
 1123POPI   GL116523   7.151  11.512   5.907 -0.0767  0.0855 -0.0535
 1123POPI   GL216524   6.800  11.623   5.912  0.1259  0.0180  0.2490
 1123POPI   C1A16525   6.909  11.350   6.341 -0.0879  0.0661 -0.0243
 1123POPI   D2A16526   6.889  11.240   6.821 -0.2194  0.0133  0.2497
 1123POPI   C3A16527   6.970  11.186   7.230 -0.1636 -0.2226 -0.0649
 1123POPI   C4A16528   7.152  11.331   7.662 -0.0440  0.0926  0.1019
 1123POPI   C1B16529   6.481  11.540   6.153 -0.1125  0.1959 -0.2049
 1123POPI   C2B16530   6.498  11.514   6.655  0.2804  0.3783 -0.0128
 1123POPI   C3B16531   6.514  11.336   7.118 -0.0085 -0.1210  0.1094
 1123POPI   C4B16532   6.396  11.217   7.524 -0.1795  0.0333  0.1007
 1124POPI    C116533   7.699   9.780   5.308  0.0007 -0.0201  0.0752
 1124POPI    C216534   7.821   9.483   5.069 -0.0393 -0.0646  0.1097
 1124POPI    C316535   7.865   9.864   4.954  0.0101 -0.0838  0.0643
 1124POPI   PO416536   7.742   9.661   5.549  0.2628 -0.4115  0.0693
 1124POPI   GL116537   7.759   9.725   5.948 -0.2486 -0.1440 -0.1061
 1124POPI   GL216538   7.471   9.770   6.061  0.0143  0.0086  0.2900
 1124POPI   C1A16539   7.876   9.838   6.396 -0.3265  0.0857 -0.1258
 1124POPI   D2A16540   7.747   9.631   6.811 -0.0181 -0.0880 -0.1039
 1124POPI   C3A16541   7.721   9.342   7.140  0.0380  0.0917  0.2444
 1124POPI   C4A16542   7.351   9.352   7.311  0.0367  0.1779  0.2533
 1124POPI   C1B16543   7.225   9.781   6.392  0.1956  0.0205 -0.1246
 1124POPI   C2B16544   7.198   9.724   6.856 -0.3195  0.1495  0.0678
 1124POPI   C3B16545   6.916   9.643   7.226  0.0462  0.1615  0.0717
 1124POPI   C4B16546   6.724   9.867   7.477 -0.1419 -0.2659  0.1268
 1125POPI    C116547  14.438  17.599   5.254 -0.1208 -0.0672  0.0756
 1125POPI    C216548  14.225  17.606   5.592 -0.2929 -0.1958 -0.0287
 1125POPI    C316549  14.379  17.262   5.460  0.2172 -0.0612  0.1895
 1125POPI   PO416550  14.664  17.757   5.360  0.3993  0.3086  0.0987
 1125POPI   GL116551  14.565  17.982   5.744  0.1984  0.0920  0.2251
 1125POPI   GL216552  14.504  18.274   5.737  0.1116 -0.2252 -0.0285
 1125POPI   C1A16553  14.318  17.946   6.086 -0.1244  0.1618  0.0583
 1125POPI   D2A16554  14.300  18.206   6.363  0.2277 -0.1491 -0.0731
 1125POPI   C3A16555  13.992  18.296   6.646 -0.0846  0.1852 -0.0990
 1125POPI   C4A16556  13.523  18.092   6.563 -0.2791 -0.0240  0.2914
 1125POPI   C1B16557  14.757  18.219   6.141  0.0650  0.0499 -0.1043
 1125POPI   C2B16558  14.704  18.267   6.622  0.1341  0.0505  0.2233
 1125POPI   C3B16559  14.372  18.465   6.889 -0.1475  0.0553  0.0241
 1125POPI   C4B16560  14.066  18.500   7.138  0.0058  0.1948 -0.1647
 1126POPI    C116561   3.715  15.488   4.835 -0.1331  0.0204 -0.0371
 1126POPI    C216562   3.395  15.452   5.071 -0.0879  0.0763  0.0329
 1126POPI    C316563   3.477  15.169   4.801 -0.1769  0.0450  0.0384
 1126POPI   PO416564   3.893  15.583   5.060 -0.0259  0.1882  0.1048
 1126POPI   GL116565   3.900  15.668   5.468 -0.1256 -0.0845 -0.0657
 1126POPI   GL216566   4.229  15.597   5.629 -0.0510 -0.0311 -0.3752
 1126POPI   C1A16567   3.742  15.796   5.858  0.0298  0.1167  0.1756
 1126POPI   D2A16568   3.811  15.995   6.230 -0.0716 -0.2181  0.2156
 1126POPI   C3A16569   3.900  16.030   6.669 -0.2043  0.0223 -0.1242
 1126POPI   C4A16570   4.066  15.906   6.974  0.1277 -0.1790 -0.0598
 1126POPI   C1B16571   4.261  15.856   6.002 -0.1329 -0.0960  0.1020
 1126POPI   C2B16572   4.249  15.874   6.416  0.0458  0.4654 -0.1485
 1126POPI   C3B16573   4.561  15.981   6.690  0.1616  0.1065 -0.0267
 1126POPI   C4B16574   4.498  15.991   7.126 -0.2284 -0.1133 -0.0489
 1127POPI    C116575  11.920   1.623   5.357  0.0932 -0.0374  0.1206
 1127POPI    C216576  11.934   1.226   5.401 -0.2040 -0.0688 -0.0352
 1127POPI    C316577  11.722   1.386   5.102  0.0236  0.2046 -0.0545
 1127POPI   PO416578  11.939   1.670   5.680 -0.3163 -0.0946 -0.0263
 1127POPI   GL116579  11.609   1.819   5.963  0.0215 -0.3327 -0.2184
 1127POPI   GL216580  11.703   1.543   6.177 -0.3075 -0.1545 -0.0932
 1127POPI   C1A16581  11.869   2.022   6.282  0.3590  0.2222  0.0710
 1127POPI   D2A16582  11.886   2.143   6.724  0.1461  0.3188  0.0071
 1127POPI   C3A16583  11.721   1.909   7.097 -0.1601 -0.2237  0.1281
 1127POPI   C4A16584  11.850   2.095   7.488  0.2536  0.1446 -0.2109
 1127POPI   C1B16585  11.741   1.608   6.673 -0.0534 -0.2236 -0.3466
 1127POPI   C2B16586  12.030   1.426   6.926 -0.2294 -0.1417  0.3676
 1127POPI   C3B16587  11.900   1.565   7.403 -0.1614  0.0156  0.1218
 1127POPI   C4B16588  12.011   1.443   7.799 -0.0259 -0.0304 -0.3861
 1128POPI    C116589  15.652   9.434   5.532  0.0600  0.0974  0.1950
 1128POPI    C216590  15.539   9.622   5.198 -0.0131  0.0455  0.1902
 1128POPI    C316591  15.326   9.665   5.533  0.0892  0.1387  0.2441
 1128POPI   PO416592  15.923   9.464   5.605  0.1097 -0.0192 -0.1479
 1128POPI   GL116593  16.087   9.662   6.003 -0.1819  0.0254 -0.0280
 1128POPI   GL216594  16.130   9.877   6.050 -0.0548 -0.2205  0.1826
 1128POPI   C1A16595  15.906   9.649   6.413 -0.2577 -0.0820  0.0520
 1128POPI   D2A16596  16.055   9.565   6.774 -0.2729 -0.2576 -0.0497
 1128POPI   C3A16597  15.936   9.429   7.160  0.1328  0.1134  0.1475
 1128POPI   C4A16598  15.726   9.391   7.531  0.1708  0.1741 -0.1050
 1128POPI   C1B16599  16.409   9.767   6.471 -0.1459 -0.1233  0.2771
 1128POPI   C2B16600  16.505   9.684   7.001 -0.1127  0.2316  0.0635
 1128POPI   C3B16601  16.696   9.510   7.426  0.2330 -0.2852  0.0446
 1128POPI   C4B16602  16.494   9.702   7.810  0.5619 -0.1213  0.1451
 1129POPI    C116603   1.398   7.950   4.986  0.0944 -0.1627  0.0723
 1129POPI    C216604   1.573   8.169   4.701  0.0074 -0.1113  0.0582
 1129POPI    C316605   1.500   7.781   4.637 -0.1982 -0.0533 -0.0693
 1129POPI   PO416606   1.535   8.054   5.237 -0.1090 -0.2546 -0.3456
 1129POPI   GL116607   1.326   8.241   5.588  0.0886 -0.0432 -0.1065
 1129POPI   GL216608   1.046   8.289   5.694  0.1891  0.2240 -0.1734
 1129POPI   C1A16609   1.482   8.019   5.919  0.1480 -0.0441 -0.0580
 1129POPI   D2A16610   1.516   7.915   6.397 -0.0163  0.1979  0.1911
 1129POPI   C3A16611   1.457   8.087   6.836 -0.2307 -0.1078 -0.1113
 1129POPI   C4A16612   1.480   8.139   7.269 -0.0984  0.2626  0.1425
 1129POPI   C1B16613   1.099   8.279   6.127 -0.1531 -0.4547 -0.3907
 1129POPI   C2B16614   1.276   8.437   6.488 -0.1875 -0.1499  0.0374
 1129POPI   C3B16615   1.205   8.493   6.968 -0.2294 -0.0547 -0.0476
 1129POPI   C4B16616   1.238   8.588   7.370  0.2115 -0.0138 -0.0879
 1130POPI    C116617  14.816   2.573   5.404  0.1725 -0.0486 -0.0940
 1130POPI    C216618  14.650   2.240   5.255 -0.4899  0.2612 -0.0830
 1130POPI    C316619  14.689   2.565   5.025  0.2613  0.1575 -0.1292
 1130POPI   PO416620  14.644   2.590   5.688 -0.0233  0.0129 -0.3261
 1130POPI   GL116621  14.789   2.736   6.028  0.2178  0.1027 -0.0878
 1130POPI   GL216622  14.507   2.673   6.207 -0.1309  0.1246  0.0544
 1130POPI   C1A16623  15.105   2.746   6.387 -0.0961 -0.0257  0.1978
 1130POPI   D2A16624  15.501   2.619   6.482 -0.1048 -0.0306  0.0021
 1130POPI   C3A16625  15.825   2.851   6.610  0.1385  0.0953  0.0725
 1130POPI   C4A16626  16.048   3.006   6.918  0.0812 -0.1975 -0.1823
 1130POPI   C1B16627  14.646   2.555   6.536 -0.0964 -0.0909 -0.0704
 1130POPI   C2B16628  14.751   2.779   6.913  0.3439  0.1197  0.0250
 1130POPI   C3B16629  14.963   2.927   7.317  0.2002  0.0317 -0.1747
 1130POPI   C4B16630  15.179   2.708   7.610  0.0105  0.0922  0.1498
 1131POPI    C116631   7.304   7.392   5.395  0.1102  0.1061  0.0476
 1131POPI    C216632   7.360   7.687   5.130  0.0528  0.0394 -0.0392
 1131POPI    C316633   7.100   7.394   5.051 -0.1345  0.1407  0.1912
 1131POPI   PO416634   7.375   7.583   5.708  0.1118 -0.0205  0.0727
 1131POPI   GL116635   7.308   7.731   6.136 -0.2181 -0.0000  0.2504
 1131POPI   GL216636   7.275   8.059   5.988 -0.1477 -0.0327 -0.1181
 1131POPI   C1A16637   7.207   7.447   6.587 -0.0265  0.1491 -0.3936
 1131POPI   D2A16638   7.289   7.338   7.030  0.0944  0.1850  0.5990
 1131POPI   C3A16639   7.029   7.431   7.284  0.0969  0.0795 -0.0674
 1131POPI   C4A16640   6.854   7.627   7.546  0.0482 -0.1792  0.1079
 1131POPI   C1B16641   7.238   8.074   6.560 -0.2524 -0.0579 -0.0112
 1131POPI   C2B16642   7.285   7.846   6.842 -0.0953 -0.1591  0.0952
 1131POPI   C3B16643   7.275   7.845   7.331  0.0541  0.0899  0.1095
 1131POPI   C4B16644   7.246   7.760   7.874  0.0238 -0.0982 -0.0390
 1132POPI    C116645  15.133   1.578   5.847 -0.0149  0.1746 -0.1760
 1132POPI    C216646  15.002   1.461   5.488  0.0458  0.1985 -0.2060
 1132POPI    C316647  15.286   1.250   5.676  0.0351  0.2027 -0.1852
 1132POPI   PO416648  15.156   1.824   5.877  0.0089 -0.1112 -0.1422
 1132POPI   GL116649  15.208   2.079   6.145  0.1317 -0.2058  0.4884
 1132POPI   GL216650  14.974   2.300   6.256 -0.0668 -0.1234 -0.1686
 1132POPI   C1A16651  15.117   1.833   6.488 -0.0720 -0.2659 -0.1819
 1132POPI   D2A16652  15.182   1.924   6.944  0.0027 -0.3925 -0.2750
 1132POPI   C3A16653  14.822   1.860   7.335 -0.0467 -0.1441  0.1863
 1132POPI   C4A16654  14.571   1.938   7.740 -0.0342  0.1680 -0.1346
 1132POPI   C1B16655  15.131   2.335   6.673  0.1485  0.0070 -0.1950
 1132POPI   C2B16656  15.114   2.465   7.158 -0.1631 -0.1030  0.2627
 1132POPI   C3B16657  15.272   2.165   7.425 -0.1746  0.0702 -0.1976
 1132POPI   C4B16658  15.294   1.799   7.429  0.0814  0.1990 -0.2532
 1133POPI    C116659  11.064   0.812   5.599 -0.1006 -0.1236 -0.0380
 1133POPI    C216660  11.333   0.605   5.387 -0.0060 -0.0156 -0.0243
 1133POPI    C316661  10.944   0.580   5.295  0.0146 -0.1229 -0.0845
 1133POPI   PO416662  11.178   0.733   5.858 -0.3899  0.3417  0.1834
 1133POPI   GL116663  10.915   0.712   6.266 -0.1991 -0.0423 -0.1602
 1133POPI   GL216664  10.976   0.993   6.391 -0.0564 -0.2152 -0.1310
 1133POPI   C1A16665  10.809   0.549   6.737  0.1162 -0.1421 -0.0248
 1133POPI   D2A16666  10.945   0.635   7.141  0.1289  0.2219 -0.4571
 1133POPI   C3A16667  10.860   0.740   7.539  0.1280 -0.3148  0.0430
 1133POPI   C4A16668  10.987   0.531   7.899 -0.4790  0.0435 -0.1620
 1133POPI   C1B16669  11.090   0.980   6.863  0.0045  0.0479  0.1486
 1133POPI   C2B16670  11.171   1.109   7.318  0.2711  0.0836  0.1112
 1133POPI   C3B16671  11.033   1.432   7.585  0.0669  0.0596  0.1249
 1133POPI   C4B16672  11.137   1.776   7.802  0.4131 -0.1555 -0.2676
 1134POPI    C116673   9.762   9.570   5.095  0.0562  0.1236  0.0742
 1134POPI    C216674   9.732   9.955   4.989 -0.1351 -0.0037 -0.3574
 1134POPI    C316675   9.410   9.718   4.976 -0.0356 -0.1640 -0.0203
 1134POPI   PO416676   9.933   9.532   5.259 -0.1958  0.3363  0.0494
 1134POPI   GL116677   9.788   9.471   5.699 -0.1741 -0.0628 -0.0450
 1134POPI   GL216678   9.932   9.226   5.867 -0.0454  0.2039  0.1413
 1134POPI   C1A16679  10.045   9.708   6.050 -0.0671 -0.0243  0.1042
 1134POPI   D2A16680   9.992   9.632   6.527  0.1872 -0.2462 -0.1456
 1134POPI   C3A16681   9.689   9.700   6.789 -0.0997 -0.0370  0.0041
 1134POPI   C4A16682   9.589   9.616   7.258 -0.1732  0.0116 -0.3216
 1134POPI   C1B16683   9.862   9.108   6.233  0.2818  0.0469  0.0143
 1134POPI   C2B16684   9.982   9.099   6.726  0.0402 -0.1050 -0.4014
 1134POPI   C3B16685   9.990   9.369   7.025  0.3996  0.1649  0.1669
 1134POPI   C4B16686  10.033   9.758   7.361 -0.2640 -0.1404  0.4494
 1135POPI    C116687  12.391   2.189   5.025  0.1397 -0.0274  0.2319
 1135POPI    C216688  12.346   1.801   5.110  0.1704 -0.0863 -0.0153
 1135POPI    C316689  12.027   2.042   5.102  0.1597 -0.0920  0.2029
 1135POPI   PO416690  12.542   2.289   5.314 -0.4425  0.0651  0.1476
 1135POPI   GL116691  12.443   2.363   5.679  0.1406  0.0880 -0.2339
 1135POPI   GL216692  12.192   2.190   5.823  0.2212  0.0313 -0.0004
 1135POPI   C1A16693  12.716   2.486   6.030 -0.1525 -0.2592  0.1817
 1135POPI   D2A16694  12.978   2.426   6.317  0.3265  0.1493  0.0382
 1135POPI   C3A16695  13.161   2.521   6.753 -0.1266  0.2979  0.2008
 1135POPI   C4A16696  13.151   2.557   7.292  0.0762  0.0909 -0.0514
 1135POPI   C1B16697  12.340   2.248   6.214  0.2476 -0.1523  0.3252
 1135POPI   C2B16698  12.401   2.328   6.719  0.1582  0.0953  0.0080
 1135POPI   C3B16699  12.144   2.351   7.154 -0.2424 -0.3005  0.0224
 1135POPI   C4B16700  12.112   2.551   7.556 -0.2230 -0.6244 -0.1808
 1136POPI    C116701  12.526   5.311   4.786 -0.0680 -0.1219 -0.0644
 1136POPI    C216702  12.918   5.285   4.712 -0.0188  0.2581  0.0455
 1136POPI    C316703  12.746   5.644   4.759 -0.3732  0.0930  0.0388
 1136POPI   PO416704  12.506   5.213   5.008 -0.0576 -0.0557 -0.2064
 1136POPI   GL116705  12.598   5.464   5.471 -0.1795 -0.2999  0.0983
 1136POPI   GL216706  12.900   5.564   5.628  0.0571 -0.1891  0.0806
 1136POPI   C1A16707  12.356   5.356   5.752  0.0902  0.1829 -0.0412
 1136POPI   D2A16708  12.174   5.178   6.231 -0.0406  0.0275  0.1817
 1136POPI   C3A16709  12.370   5.078   6.586 -0.0088  0.1729 -0.0799
 1136POPI   C4A16710  12.438   5.236   6.975 -0.0780 -0.1132 -0.1645
 1136POPI   C1B16711  12.876   5.319   5.938 -0.0143  0.0795  0.1297
 1136POPI   C2B16712  12.752   5.003   6.202  0.1383 -0.3569  0.2498
 1136POPI   C3B16713  12.944   4.860   6.495 -0.1024 -0.3764  0.1230
 1136POPI   C4B16714  12.703   4.824   6.892  0.2951 -0.0980 -0.2103
 1137POPI    C116715   4.610  12.777   5.011  0.2830  0.0751 -0.0082
 1137POPI    C216716   4.843  12.736   4.688  0.1451  0.0782 -0.1089
 1137POPI    C316717   4.464  12.858   4.647  0.1148  0.0393  0.0505
 1137POPI   PO416718   4.768  12.834   5.205  0.2752 -0.1473 -0.1188
 1137POPI   GL116719   4.726  12.970   5.637 -0.3392 -0.3034 -0.1990
 1137POPI   GL216720   4.964  13.120   5.779 -0.0853  0.2941  0.4161
 1137POPI   C1A16721   4.499  12.916   6.068  0.0316  0.0416  0.1450
 1137POPI   D2A16722   4.771  12.919   6.417  0.1020 -0.0435 -0.1748
 1137POPI   C3A16723   4.490  13.042   6.835 -0.1354 -0.0206  0.0722
 1137POPI   C4A16724   4.732  13.064   7.229 -0.1679 -0.1006  0.1492
 1137POPI   C1B16725   5.336  13.127   5.976 -0.1100  0.1135 -0.1871
 1137POPI   C2B16726   5.302  13.096   6.447  0.2679  0.0871 -0.4862
 1137POPI   C3B16727   5.036  12.824   6.901 -0.0414 -0.2441  0.0425
 1137POPI   C4B16728   5.239  12.795   7.338 -0.0090  0.1510 -0.2231
 1138POPI    C116729   5.383  17.916   5.376  0.1331 -0.1467  0.1002
 1138POPI    C216730   5.562  18.217   5.182  0.0986 -0.1417  0.0762
 1138POPI    C316731   5.186  18.258   5.312  0.2113 -0.0458  0.3825
 1138POPI   PO416732   5.598  17.898   5.618  0.1677  0.2020  0.2113
 1138POPI   GL116733   5.503  17.920   6.022  0.4353  0.0936  0.0034
 1138POPI   GL216734   5.757  17.785   6.121  0.0080 -0.3240 -0.2545
 1138POPI   C1A16735   5.266  18.044   6.336 -0.1299 -0.0619 -0.0159
 1138POPI   D2A16736   4.988  17.711   6.503  0.0841  0.1756  0.2781
 1138POPI   C3A16737   4.544  17.667   6.614  0.2114  0.0026  0.0301
 1138POPI   C4A16738   4.247  17.375   6.629 -0.2657  0.0669 -0.3315
 1138POPI   C1B16739   5.702  17.868   6.577 -0.1369  0.1648 -0.1939
 1138POPI   C2B16740   5.415  17.822   6.778  0.0614 -0.1401 -0.1868
 1138POPI   C3B16741   5.142  18.081   6.863  0.1527  0.0853  0.0874
 1138POPI   C4B16742   4.760  17.925   6.976  0.3954  0.1055  0.0315
 1139POPI    C116743   8.280   0.732   5.419  0.1892  0.0780 -0.0611
 1139POPI    C216744   7.961   0.744   5.179  0.0715 -0.1319  0.0821
 1139POPI    C316745   8.213   1.054   5.192  0.0231 -0.0760 -0.2336
 1139POPI   PO416746   8.171   0.611   5.653 -0.1690  0.2080  0.0364
 1139POPI   GL116747   8.101   0.796   6.066  0.0845 -0.1368 -0.0268
 1139POPI   GL216748   8.285   0.926   6.099 -0.2655 -0.0270  0.0813
 1139POPI   C1A16749   8.193   0.561   6.433  0.2841 -0.0544  0.2333
 1139POPI   D2A16750   8.271   0.578   6.897  0.0514 -0.2926  0.1726
 1139POPI   C3A16751   7.949   0.611   7.245 -0.1068  0.0497 -0.0214
 1139POPI   C4A16752   7.978   0.496   7.666  0.1191  0.0539 -0.1630
 1139POPI   C1B16753   8.127   1.143   6.421 -0.1016  0.1894 -0.2700
 1139POPI   C2B16754   8.163   1.140   6.920  0.0051 -0.1574 -0.1684
 1139POPI   C3B16755   8.255   1.196   7.370 -0.2637  0.1143  0.1893
 1139POPI   C4B16756   8.344   1.393   7.782  0.2759  0.0059  0.0160
 1140POPI    C116757  14.430  13.353   5.638 -0.2010 -0.1630 -0.0333
 1140POPI    C216758  14.631  13.296   5.297 -0.0672 -0.0323  0.0225
 1140POPI    C316759  14.302  13.523   5.299  0.0400  0.1249  0.0153
 1140POPI   PO416760  14.688  13.386   5.830 -0.1458 -0.1699  0.0419
 1140POPI   GL116761  14.507  13.569   6.186  0.1002  0.0908 -0.1381
 1140POPI   GL216762  14.624  13.877   6.016 -0.1439 -0.1156 -0.1704
 1140POPI   C1A16763  14.696  13.469   6.502  0.2020  0.0743 -0.0521
 1140POPI   D2A16764  14.648  13.535   6.880  0.2028  0.1116  0.2309
 1140POPI   C3A16765  14.604  13.342   7.384 -0.1489  0.0646  0.0362
 1140POPI   C4A16766  14.500  13.535   7.796 -0.1919  0.0572  0.1448
 1140POPI   C1B16767  14.388  13.939   6.431 -0.0454 -0.2878 -0.2811
 1140POPI   C2B16768  14.361  13.997   6.840  0.0749 -0.0344 -0.1635
 1140POPI   C3B16769  14.434  13.814   7.152 -0.0801 -0.1194  0.0616
 1140POPI   C4B16770  14.743  13.843   7.490  0.0904  0.0791  0.0135
 1141POPI    C116771  13.599  13.520   5.389  0.1076  0.1282 -0.2552
 1141POPI    C216772  13.549  13.221   5.128 -0.0718 -0.1396  0.0781
 1141POPI    C316773  13.256  13.487   5.186  0.0054 -0.0226 -0.0614
 1141POPI   PO416774  13.692  13.411   5.676 -0.2048  0.3324  0.0021
 1141POPI   GL116775  13.668  13.527   6.187 -0.0239  0.1095  0.0310
 1141POPI   GL216776  13.920  13.502   6.233 -0.1858 -0.3040  0.1604
 1141POPI   C1A16777  13.550  13.508   6.674 -0.1624 -0.3606  0.1599
 1141POPI   D2A16778  13.480  13.534   7.117 -0.3623  0.1849 -0.3657
 1141POPI   C3A16779  13.748  13.347   7.372  0.0706 -0.0184  0.0263
 1141POPI   C4A16780  14.123  13.133   7.390  0.2351 -0.0298 -0.0505
 1141POPI   C1B16781  14.120  13.500   6.629 -0.0892  0.1187  0.1712
 1141POPI   C2B16782  14.055  13.442   7.033 -0.2794  0.2386  0.0049
 1141POPI   C3B16783  14.123  13.683   7.466  0.0603  0.1090  0.0594
 1141POPI   C4B16784  14.035  13.828   7.960 -0.0327  0.0459  0.0604
 1142POPI    C116785   0.021  16.627   5.287 -0.1640 -0.0456  0.0615
 1142POPI    C216786   0.034  17.020   5.215 -0.1940 -0.0270  0.1548
 1142POPI    C316787  -0.256  16.797   5.055 -0.1150 -0.0300  0.0144
 1142POPI   PO416788  -0.018  16.595   5.500 -0.2203 -0.3308 -0.0830
 1142POPI   GL116789   0.137  16.675   5.973 -0.0903  0.1068  0.3686
 1142POPI   GL216790  -0.083  16.888   5.933 -0.0076  0.0704 -0.0899
 1142POPI   C1A16791   0.351  17.136   6.090  0.0019  0.0628  0.1952
 1142POPI   D2A16792   0.190  17.462   6.327  0.3450  0.1877 -0.0704
 1142POPI   C3A16793   0.280  17.367   6.741 -0.0049  0.2218 -0.0140
 1142POPI   C4A16794   0.449  17.368   7.148 -0.1254 -0.3742 -0.1362
 1142POPI   C1B16795   0.007  16.938   6.377  0.1354  0.1730 -0.0567
 1142POPI   C2B16796   0.201  16.897   6.831  0.1477 -0.0223 -0.2492
 1142POPI   C3B16797   0.309  16.561   7.006 -0.0704 -0.0386 -0.0666
 1142POPI   C4B16798   0.461  16.424   7.381 -0.0994 -0.0718 -0.0768
 1143POPI    C116799  18.053   4.953   5.309 -0.0337 -0.1103 -0.0386
 1143POPI    C216800  17.927   4.913   4.931  0.0552 -0.3161 -0.0479
 1143POPI    C316801  18.031   5.273   5.070 -0.1240 -0.2147 -0.1722
 1143POPI   PO416802  18.248   4.810   5.414 -0.2617  0.1208 -0.1492
 1143POPI   GL116803  18.335   4.687   5.767 -0.2571  0.2398 -0.1744
 1143POPI   GL216804  18.630   5.000   5.737 -0.2218 -0.1255 -0.1180
 1143POPI   C1A16805  18.568   4.669   6.089 -0.2930 -0.1815  0.0658
 1143POPI   D2A16806  18.558   4.476   6.538 -0.0528 -0.0463  0.2347
 1143POPI   C3A16807  18.286   4.708   6.899 -0.4080 -0.0068  0.2339
 1143POPI   C4A16808  18.073   4.765   7.300  0.0346  0.1299 -0.0095
 1143POPI   C1B16809  18.301   5.068   6.031 -0.1163  0.1457 -0.1292
 1143POPI   C2B16810  18.085   4.734   6.300  0.3027  0.1165  0.0957
 1143POPI   C3B16811  17.884   4.844   6.601  0.1091  0.0472 -0.2094
 1143POPI   C4B16812  17.677   4.739   6.958 -0.3158 -0.0545 -0.1247
 1144POPI    C116813  11.007  13.434   5.784 -0.0776 -0.0669  0.1958
 1144POPI    C216814  11.294  13.368   5.513 -0.0476 -0.1197  0.2401
 1144POPI    C316815  10.954  13.550   5.405  0.0279 -0.0004  0.2009
 1144POPI   PO416816  10.948  13.185   5.830 -0.4597 -0.1300  0.0934
 1144POPI   GL116817  10.740  12.953   6.052  0.1711  0.1507  0.1266
 1144POPI   GL216818  10.975  12.754   6.067 -0.1296  0.1655  0.0698
 1144POPI   C1A16819  10.517  12.664   6.403 -0.1385  0.0874 -0.0950
 1144POPI   D2A16820  10.559  12.138   6.533 -0.2290  0.0353  0.0698
 1144POPI   C3A16821  10.446  11.994   6.908 -0.1331  0.1694  0.0477
 1144POPI   C4A16822  10.443  11.869   7.355 -0.0435 -0.1425 -0.1864
 1144POPI   C1B16823  10.897  12.944   6.558 -0.0676 -0.1600  0.0453
 1144POPI   C2B16824  10.890  12.901   6.994  0.0352 -0.1265  0.0264
 1144POPI   C3B16825  10.743  12.740   7.327 -0.0090 -0.1193 -0.3052
 1144POPI   C4B16826  10.748  12.827   7.752  0.0143 -0.0203  0.0273
 1145POPI    C116827  17.639  12.133   5.323  0.0069  0.0364 -0.0367
 1145POPI    C216828  17.396  12.110   5.006  0.0112  0.0830 -0.0433
 1145POPI    C316829  17.408  11.810   5.270 -0.1916  0.1614  0.0570
 1145POPI   PO416830  17.590  12.332   5.453 -0.0278  0.1409 -0.1800
 1145POPI   GL116831  17.403  12.412   5.841  0.2770  0.0100 -0.3380
 1145POPI   GL216832  17.442  12.772   5.586 -0.1985  0.2700 -0.0943
 1145POPI   C1A16833  17.586  12.435   6.234  0.0128  0.1477  0.0782
 1145POPI   D2A16834  17.456  12.580   6.680 -0.0132  0.0182 -0.0538
 1145POPI   C3A16835  17.264  12.475   6.966 -0.0344 -0.2498  0.0646
 1145POPI   C4A16836  16.998  12.126   6.886  0.1575 -0.0871 -0.0957
 1145POPI   C1B16837  17.638  12.948   5.965  0.0872  0.0497  0.2134
 1145POPI   C2B16838  17.901  12.847   6.380  0.0415 -0.5474  0.3647
 1145POPI   C3B16839  17.927  12.611   6.656 -0.0546 -0.2483  0.0019
 1145POPI   C4B16840  17.726  12.594   7.069  0.2253 -0.2746  0.0225
 1146POPI    C116841  11.084  10.142   5.256  0.2787 -0.0423  0.4140
 1146POPI    C216842  10.824   9.907   5.448  0.1251  0.0296  0.2957
 1146POPI    C316843  10.691  10.207   5.218  0.2985 -0.1721 -0.0760
 1146POPI   PO416844  11.230  10.203   5.437  0.2225 -0.1558  0.1234
 1146POPI   GL116845  11.260  10.379   5.830  0.0802  0.0997 -0.0024
 1146POPI   GL216846  11.390  10.627   5.882  0.0737  0.1189 -0.0121
 1146POPI   C1A16847  11.144  10.218   6.140  0.2243 -0.1836 -0.1914
 1146POPI   D2A16848  10.958  10.306   6.479 -0.1029 -0.4065 -0.0442
 1146POPI   C3A16849  10.919   9.979   6.787 -0.2087  0.2103  0.4230
 1146POPI   C4A16850  10.886   9.606   6.747 -0.3587 -0.3781 -0.0968
 1146POPI   C1B16851  11.471  10.490   6.372 -0.0094  0.0330 -0.0207
 1146POPI   C2B16852  11.388  10.353   6.809 -0.0626  0.0061 -0.1929
 1146POPI   C3B16853  11.553  10.418   7.217  0.4783  0.0170 -0.1826
 1146POPI   C4B16854  11.385  10.398   7.763  0.0920  0.0876 -0.2636
 1147DPPI    C116855   4.193   5.766   5.305 -0.1534 -0.1181  0.3249
 1147DPPI    C216856   3.979   5.639   4.992  0.1798  0.1521 -0.0231
 1147DPPI    C316857   3.922   6.007   5.137 -0.0187  0.0054  0.2824
 1147DPPI   PO416858   4.122   5.688   5.617  0.3494  0.0555 -0.1754
 1147DPPI   GL116859   4.350   5.725   6.066 -0.0155  0.0314 -0.0658
 1147DPPI   GL216860   4.620   5.952   6.131 -0.2119  0.1212 -0.2760
 1147DPPI   C1A16861   4.571   5.696   6.582  0.2605  0.1713  0.2258
 1147DPPI   C2A16862   4.579   5.685   7.037  0.2016  0.1658 -0.0031
 1147DPPI   C3A16863   4.862   5.470   7.438 -0.0552  0.0875 -0.0917
 1147DPPI   C4A16864   4.800   5.095   7.720 -0.1063  0.0080  0.4472
 1147DPPI   C1B16865   4.742   6.104   6.490 -0.0630  0.0270  0.2533
 1147DPPI   C2B16866   4.645   6.181   6.902 -0.2485 -0.0051 -0.4730
 1147DPPI   C3B16867   4.735   6.093   7.303  0.4845  0.1621 -0.1894
 1147DPPI   C4B16868   4.966   5.965   7.731 -0.2170  0.0353  0.1788
 1148DPPI    C116869  11.219   2.280   5.559 -0.4284  0.2176  0.1400
 1148DPPI    C216870  11.347   2.158   5.201 -0.0967  0.1721  0.2706
 1148DPPI    C316871  11.395   2.539   5.311 -0.0623  0.1525  0.3243
 1148DPPI   PO416872  11.321   2.102   5.718  0.2536 -0.2079 -0.1843
 1148DPPI   GL116873  11.476   2.270   6.095  0.1638 -0.0139 -0.0249
 1148DPPI   GL216874  11.157   2.303   6.162  0.0403 -0.0731 -0.0309
 1148DPPI   C1A16875  11.574   2.523   6.356 -0.3378  0.2586 -0.0531
 1148DPPI   C2A16876  11.408   2.900   6.656  0.0150 -0.1357  0.0384
 1148DPPI   C3A16877  11.203   3.305   6.725 -0.0893 -0.1416  0.0504
 1148DPPI   C4A16878  11.483   3.673   6.804  0.0477 -0.1893  0.2875
 1148DPPI   C1B16879  11.134   2.494   6.539 -0.0000  0.1699 -0.0410
 1148DPPI   C2B16880  11.034   2.350   6.981 -0.1344  0.1645 -0.1190
 1148DPPI   C3B16881  11.320   2.227   7.270  0.2384  0.1869 -0.1013
 1148DPPI   C4B16882  11.316   2.272   7.699 -0.0015 -0.4573  0.3110
 1149DPPI    C116883   8.895  12.902   5.766  0.1263 -0.0664 -0.1581
 1149DPPI    C216884   8.767  13.191   5.521 -0.0711 -0.0285 -0.0132
 1149DPPI    C316885   8.507  12.929   5.674  0.0735 -0.1446  0.0368
 1149DPPI   PO416886   8.943  12.934   5.989 -0.1369  0.0723 -0.1463
 1149DPPI   GL116887   9.097  13.184   6.406  0.0674 -0.0640  0.0034
 1149DPPI   GL216888   8.775  13.050   6.553 -0.2221 -0.0304 -0.1556
 1149DPPI   C1A16889   9.166  13.444   6.768 -0.1702 -0.2494 -0.2879
 1149DPPI   C2A16890   9.021  13.554   7.233  0.0536  0.1452  0.0283
 1149DPPI   C3A16891   8.988  13.876   7.697 -0.1652 -0.3772 -0.1405
 1149DPPI   C4A16892   8.700  14.011   8.035  0.0960  0.0303 -0.0862
 1149DPPI   C1B16893   8.757  13.186   6.975 -0.3239 -0.1941  0.0271
 1149DPPI   C2B16894   8.650  13.187   7.323 -0.2038  0.0965 -0.1883
 1149DPPI   C3B16895   8.336  13.035   7.596 -0.2234  0.2048  0.3906
 1149DPPI   C4B16896   8.246  12.699   7.846  0.2559 -0.0953 -0.2213
 1150DPPI    C116897   9.799  10.538   5.264  0.1025  0.1477 -0.3276
 1150DPPI    C216898  10.058  10.256   5.149 -0.1269 -0.1151 -0.2096
 1150DPPI    C316899   9.867  10.474   4.875  0.1205 -0.0078 -0.2996
 1150DPPI   PO416900   9.939  10.612   5.525  0.0417 -0.3546 -0.2048
 1150DPPI   GL116901  10.002  10.453   5.906 -0.2143  0.0841 -0.0757
 1150DPPI   GL216902  10.080  10.247   6.121  0.5644 -0.1006 -0.0411
 1150DPPI   C1A16903  10.044  10.791   6.270  0.0201 -0.1029  0.1697
 1150DPPI   C2A16904   9.848  11.001   6.580  0.0340 -0.0329 -0.0544
 1150DPPI   C3A16905   9.811  10.863   6.943  0.0212  0.3664  0.1791
 1150DPPI   C4A16906   9.716  10.729   7.246 -0.1566 -0.1691  0.1509
 1150DPPI   C1B16907  10.023  10.154   6.516 -0.0208  0.0587 -0.2115
 1150DPPI   C2B16908  10.123  10.380   6.813  0.1198 -0.0926  0.1235
 1150DPPI   C3B16909  10.127  10.369   7.227  0.1885 -0.2064 -0.3412
 1150DPPI   C4B16910   9.995  10.333   7.666  0.1636  0.0739 -0.2430
 1151DPPI    C116911   4.596   3.958   5.288  0.0602  0.2235 -0.0274
 1151DPPI    C216912   4.740   3.704   5.015  0.0274  0.0611  0.1048
 1151DPPI    C316913   4.615   4.067   4.904  0.1287  0.0415 -0.0766
 1151DPPI   PO416914   4.422   3.813   5.452 -0.0105 -0.0496  0.0155
 1151DPPI   GL116915   4.337   3.915   5.840  0.1954 -0.1719 -0.0163
 1151DPPI   GL216916   4.581   3.833   5.922 -0.0149  0.0558 -0.2377
 1151DPPI   C1A16917   4.314   3.948   6.289  0.1982  0.1440 -0.0756
 1151DPPI   C2A16918   4.166   3.748   6.590  0.0316 -0.0223 -0.3522
 1151DPPI   C3A16919   4.112   3.805   6.974  0.1780 -0.1064  0.0721
 1151DPPI   C4A16920   3.754   3.628   7.234  0.0355 -0.1789  0.0362
 1151DPPI   C1B16921   4.645   3.527   6.201  0.0191  0.1433 -0.1265
 1151DPPI   C2B16922   4.665   3.388   6.571  0.0730 -0.1823  0.0866
 1151DPPI   C3B16923   4.470   3.465   6.910  0.2516 -0.1953  0.2443
 1151DPPI   C4B16924   4.275   3.593   7.348  0.2120  0.1621 -0.0434
 1152DPPI    C116925  14.808  12.533   5.628  0.0426  0.0139 -0.3443
 1152DPPI    C216926  14.592  12.870   5.622 -0.0061 -0.0139 -0.1856
 1152DPPI    C316927  14.450  12.538   5.449 -0.0927 -0.0329 -0.0795
 1152DPPI   PO416928  14.974  12.579   5.912  0.0917 -0.2097  0.3613
 1152DPPI   GL116929  14.884  12.620   6.402  0.2082 -0.1026  0.0804
 1152DPPI   GL216930  14.672  12.493   6.499  0.3084  0.0913 -0.5153
 1152DPPI   C1A16931  15.082  12.731   6.757 -0.1403  0.1680 -0.2860
 1152DPPI   C2A16932  15.119  12.676   7.184  0.0962 -0.2682  0.0974
 1152DPPI   C3A16933  15.364  12.677   7.529 -0.2307  0.1482 -0.1266
 1152DPPI   C4A16934  15.581  12.529   7.948  0.0495  0.4373  0.0973
 1152DPPI   C1B16935  14.726  12.427   6.941 -0.0271  0.1187  0.2100
 1152DPPI   C2B16936  14.641  12.399   7.328 -0.0827 -0.2924 -0.4377
 1152DPPI   C3B16937  14.532  12.421   7.792 -0.0015  0.1813 -0.1102
 1152DPPI   C4B16938  14.355  12.594   8.215  0.0229  0.4006  0.0872
 1153DPPI    C116939   5.514   6.919   4.959 -0.1760 -0.0305  0.0939
 1153DPPI    C216940   5.888   7.019   5.061 -0.1433  0.0508 -0.1006
 1153DPPI    C316941   5.759   7.083   4.688 -0.2159 -0.3677 -0.1526
 1153DPPI   PO416942   5.404   6.971   5.293 -0.2277  0.3418 -0.0249
 1153DPPI   GL116943   5.599   7.265   5.607 -0.4055  0.2186  0.0878
 1153DPPI   GL216944   5.680   6.933   5.770  0.4013 -0.0902 -0.2011
 1153DPPI   C1A16945   5.519   7.520   6.016  0.0220 -0.1060 -0.1278
 1153DPPI   C2A16946   5.157   7.559   6.137 -0.0629 -0.0577  0.2482
 1153DPPI   C3A16947   5.045   7.562   6.582  0.3684 -0.0457 -0.1173
 1153DPPI   C4A16948   5.086   7.779   6.931  0.2153  0.0977  0.1172
 1153DPPI   C1B16949   5.725   7.004   6.208  0.1255  0.2341 -0.2570
 1153DPPI   C2B16950   5.823   7.120   6.579 -0.2332  0.0385 -0.3763
 1153DPPI   C3B16951   5.704   7.025   7.063  0.3389  0.0306 -0.1267
 1153DPPI   C4B16952   5.540   7.104   7.435  0.0633 -0.1973 -0.0569
 1154DPPI    C116953  18.054   3.979   5.299 -0.0835  0.1896  0.0113
 1154DPPI    C216954  17.895   3.988   4.932 -0.2166  0.0646  0.0650
 1154DPPI    C316955  18.218   3.762   5.006 -0.2753 -0.0222  0.0579
 1154DPPI   PO416956  17.828   3.927   5.525  0.2024  0.2789 -0.0128
 1154DPPI   GL116957  17.652   3.788   5.821 -0.2508 -0.1933 -0.0337
 1154DPPI   GL216958  17.436   4.059   5.832  0.3324  0.0957  0.2556
 1154DPPI   C1A16959  17.684   3.422   6.085 -0.0538 -0.1576 -0.2397
 1154DPPI   C2A16960  17.561   3.329   6.544  0.2932  0.0026  0.2303
 1154DPPI   C3A16961  17.380   3.260   6.909 -0.1559 -0.0497  0.3264
 1154DPPI   C4A16962  17.622   3.252   7.322  0.0732 -0.2257  0.2050
 1154DPPI   C1B16963  17.519   3.935   6.299  0.2591  0.0935 -0.0656
 1154DPPI   C2B16964  17.262   3.729   6.676 -0.1651 -0.2197  0.0103
 1154DPPI   C3B16965  17.174   3.898   7.098 -0.1198  0.3128  0.0199
 1154DPPI   C4B16966  16.881   4.243   7.199  0.1034  0.3396 -0.0260
 1155DPPI    C116967   5.299  10.233   5.468  0.0727  0.0205 -0.0191
 1155DPPI    C216968   5.045   9.974   5.301  0.1398  0.0738 -0.2063
 1155DPPI    C316969   5.369   9.840   5.493  0.0125  0.0088 -0.0351
 1155DPPI   PO416970   5.102  10.449   5.590  0.1612  0.0597  0.2149
 1155DPPI   GL116971   5.050  10.636   6.050  0.1443  0.2362 -0.3828
 1155DPPI   GL216972   4.784  10.684   5.986  0.0203 -0.0687 -0.0338
 1155DPPI   C1A16973   5.160  10.723   6.522 -0.1848  0.0438 -0.3738
 1155DPPI   C2A16974   5.251  10.692   7.039 -0.0280 -0.2129  0.0644
 1155DPPI   C3A16975   5.476  10.858   7.371 -0.4497 -0.1912 -0.1124
 1155DPPI   C4A16976   5.425  10.838   7.787 -0.1112 -0.0124 -0.2054
 1155DPPI   C1B16977   4.707  10.853   6.374  0.0379  0.0089 -0.1729
 1155DPPI   C2B16978   4.770  10.962   6.755  0.2123 -0.0936 -0.0515
 1155DPPI   C3B16979   4.689  10.804   7.112 -0.1801  0.1374 -0.1395
 1155DPPI   C4B16980   4.290  10.556   7.215 -0.3364 -0.0859  0.0938
 1156DPPI    C116981  16.650  11.250   5.595  0.0747  0.3295  0.0348
 1156DPPI    C216982  16.818  10.888   5.606 -0.1574  0.2261  0.2856
 1156DPPI    C316983  16.867  11.121   5.285 -0.3238 -0.1813 -0.0447
 1156DPPI   PO416984  16.686  11.370   5.865 -0.0028 -0.0033  0.0302
 1156DPPI   GL116985  16.723  11.258   6.265 -0.0130 -0.1798  0.2884
 1156DPPI   GL216986  16.908  10.962   6.129 -0.0136 -0.0656  0.1669
 1156DPPI   C1A16987  16.685  11.281   6.667  0.2426 -0.1066  0.0920
 1156DPPI   C2A16988  16.657  11.268   7.055 -0.4742  0.0849  0.1754
 1156DPPI   C3A16989  16.763  11.557   7.454 -0.2888  0.1249  0.1592
 1156DPPI   C4A16990  16.523  11.882   7.674 -0.0768  0.0778  0.0737
 1156DPPI   C1B16991  16.633  10.769   6.409  0.1388 -0.1955 -0.1220
 1156DPPI   C2B16992  16.740  10.675   6.881 -0.2929 -0.1286  0.1739
 1156DPPI   C3B16993  16.595  10.768   7.306 -0.2564 -0.2030 -0.1322
 1156DPPI   C4B16994  16.887  10.940   7.547  0.1057  0.2782  0.1104
 1157DPPI    C116995   5.803   0.741   5.395  0.0020 -0.0404  0.1941
 1157DPPI    C216996   5.494   0.930   5.225  0.0130  0.2325  0.4687
 1157DPPI    C316997   5.854   0.934   5.048 -0.0580  0.2079  0.3218
 1157DPPI   PO416998   5.639   0.506   5.584  0.0252 -0.1202  0.1791
 1157DPPI   GL116999   5.622   0.592   6.004  0.1662 -0.0775 -0.2538
 1157DPPI   GL217000   5.560   0.875   6.242  0.3141  0.1776  0.0224
 1157DPPI   C1A17001   5.566   0.419   6.450  0.2079 -0.1681  0.3639
 1157DPPI   C2A17002   5.552   0.375   6.838  0.1768 -0.2990 -0.0557
 1157DPPI   C3A17003   5.475   0.445   7.286 -0.2768 -0.1527 -0.4400
 1157DPPI   C4A17004   5.356   0.616   7.630  0.0885  0.0265 -0.1538
 1157DPPI   C1B17005   5.503   1.002   6.651  0.1237  0.3215 -0.1676
 1157DPPI   C2B17006   5.529   1.215   7.072 -0.2062 -0.1509 -0.1211
 1157DPPI   C3B17007   5.600   1.476   7.445  0.1190  0.0233  0.1484
 1157DPPI   C4B17008   5.734   1.391   7.815 -0.2114 -0.1083 -0.4755
 1158DPPI    C117009  16.616   5.896   5.337  0.2487 -0.2841 -0.1161
 1158DPPI    C217010  16.277   5.819   5.140  0.2480 -0.1705 -0.1599
 1158DPPI    C317011  16.579   6.005   4.954  0.1816  0.0963 -0.0055
 1158DPPI   PO417012  16.684   5.667   5.499 -0.0773  0.1011 -0.2423
 1158DPPI   GL117013  16.816   5.593   5.980  0.0480  0.2339 -0.0246
 1158DPPI   GL217014  17.075   5.396   5.873 -0.0090  0.0556 -0.4003
 1158DPPI   C1A17015  16.619   5.557   6.407  0.1791  0.0671 -0.2915
 1158DPPI   C2A17016  16.527   5.511   6.821 -0.0115 -0.2322  0.0395
 1158DPPI   C3A17017  16.722   5.419   7.314  0.0963 -0.1301 -0.2459
 1158DPPI   C4A17018  16.761   5.125   7.464  0.0549  0.4685 -0.1134
 1158DPPI   C1B17019  17.458   5.115   5.979 -0.2199 -0.2535 -0.1555
 1158DPPI   C2B17020  17.740   5.198   6.259 -0.0305  0.4027 -0.2871
 1158DPPI   C3B17021  18.170   5.234   6.511  0.0066  0.0416  0.1206
 1158DPPI   C4B17022  18.546   5.045   6.466  0.2135 -0.1770 -0.0342
 1159DPPI    C117023   5.475  15.164   5.252  0.1432 -0.0295  0.1389
 1159DPPI    C217024   5.351  15.009   4.904  0.1105  0.0579  0.1114
 1159DPPI    C317025   5.729  14.955   5.025  0.1873  0.2234 -0.0493
 1159DPPI   PO417026   5.262  15.450   5.325 -0.0205  0.2717  0.0290
 1159DPPI   GL117027   5.135  15.802   5.724 -0.0315 -0.0500  0.0997
 1159DPPI   GL217028   5.298  16.076   5.877  0.1195 -0.0569  0.0600
 1159DPPI   C1A17029   4.799  15.999   5.878  0.0408 -0.0531 -0.2503
 1159DPPI   C2A17030   4.593  16.133   6.215  0.1378 -0.1928  0.0146
 1159DPPI   C3A17031   4.823  16.342   6.470  0.1844  0.1812 -0.0203
 1159DPPI   C4A17032   4.798  16.410   6.893 -0.3748  0.1786  0.0005
 1159DPPI   C1B17033   5.083  15.978   6.293 -0.0638  0.1479 -0.0273
 1159DPPI   C2B17034   5.137  15.994   6.685 -0.5061  0.1599 -0.2950
 1159DPPI   C3B17035   5.094  15.977   7.150  0.2801  0.0281 -0.1743
 1159DPPI   C4B17036   4.953  16.008   7.512  0.0811  0.0180  0.2690
 1160DPPI    C117037   6.121  13.431   5.582 -0.0857  0.0769 -0.0065
 1160DPPI    C217038   6.079  13.212   5.250  0.5364 -0.1022  0.0199
 1160DPPI    C317039   6.256  13.571   5.233  0.1779  0.0826  0.0950
 1160DPPI   PO417040   5.903  13.423   5.684 -0.0594  0.1462  0.3058
 1160DPPI   GL117041   5.824  13.397   6.030  0.3202 -0.2120  0.2121
 1160DPPI   GL217042   5.893  13.785   6.041 -0.3026 -0.1039 -0.1700
 1160DPPI   C1A17043   5.772  13.260   6.495  0.0168 -0.0446 -0.2559
 1160DPPI   C2A17044   5.689  13.307   6.869 -0.0837 -0.2339  0.0799
 1160DPPI   C3A17045   5.655  13.303   7.210 -0.0933 -0.0249 -0.2350
 1160DPPI   C4A17046   5.543  13.140   7.648  0.0615  0.0868 -0.1047
 1160DPPI   C1B17047   5.939  13.797   6.429 -0.0308 -0.0061  0.0258
 1160DPPI   C2B17048   5.866  13.800   6.779 -0.1336  0.0533 -0.0090
 1160DPPI   C3B17049   5.799  13.778   7.229 -0.2155  0.1742  0.0456
 1160DPPI   C4B17050   5.575  13.858   7.607 -0.1151 -0.1062 -0.0596
 1161DPPI    C117051  16.827   4.938   4.859 -0.0049  0.2439  0.2509
 1161DPPI    C217052  17.083   5.245   4.866  0.0076  0.2431 -0.0460
 1161DPPI    C317053  16.809   5.220   4.576 -0.0262  0.0002  0.0046
 1161DPPI   PO417054  16.722   4.918   5.151  0.1975 -0.0861  0.0701
 1161DPPI   GL117055  16.691   4.883   5.499  0.2644 -0.1231 -0.0025
 1161DPPI   GL217056  16.650   5.157   5.671  0.2739  0.3412  0.0379
 1161DPPI   C1A17057  16.695   4.656   5.767 -0.0433  0.1702  0.1139
 1161DPPI   C2A17058  16.697   4.636   6.247 -0.0552 -0.4851 -0.0284
 1161DPPI   C3A17059  17.001   4.735   6.546 -0.1661  0.3361  0.1178
 1161DPPI   C4A17060  17.398   4.975   6.525  0.1245 -0.0244  0.0304
 1161DPPI   C1B17061  16.464   5.111   6.130  0.0477  0.2488  0.1618
 1161DPPI   C2B17062  16.413   5.013   6.534  0.1965 -0.1028 -0.0659
 1161DPPI   C3B17063  16.420   5.022   6.944 -0.2442  0.3858 -0.3659
 1161DPPI   C4B17064  16.319   5.083   7.270 -0.0257  0.4004 -0.1102
 1162DPPI    C117065   6.799  14.242   5.554 -0.0137 -0.3549 -0.2473
 1162DPPI    C217066   6.988  14.069   5.247  0.0702 -0.0651 -0.3624
 1162DPPI    C317067   7.053  14.455   5.330  0.1119 -0.1608  0.0727
 1162DPPI   PO417068   6.756  14.045   5.665 -0.2896 -0.0012 -0.1626
 1162DPPI   GL117069   6.797  13.992   5.985  0.1003  0.3527  0.1044
 1162DPPI   GL217070   6.590  14.331   6.043  0.0567 -0.1920 -0.0906
 1162DPPI   C1A17071   6.868  13.689   6.429 -0.1035 -0.0682  0.2484
 1162DPPI   C2A17072   6.758  13.548   6.865 -0.1436 -0.3414 -0.2890
 1162DPPI   C3A17073   6.623  13.491   7.326 -0.2462  0.0451  0.0383
 1162DPPI   C4A17074   6.481  13.304   7.631  0.1337 -0.2913  0.0606
 1162DPPI   C1B17075   6.504  14.059   6.367  0.0806 -0.1240  0.0513
 1162DPPI   C2B17076   6.358  13.959   6.873  0.0109 -0.4277  0.1005
 1162DPPI   C3B17077   6.258  13.879   7.350 -0.5251 -0.3335 -0.1343
 1162DPPI   C4B17078   6.000  13.613   7.723  0.0034  0.0717  0.3308
 1163DPPI    C117079   5.129   4.941   5.258 -0.0292  0.0175  0.0302
 1163DPPI    C217080   5.408   4.676   5.366  0.0863  0.1135 -0.0305
 1163DPPI    C317081   5.329   4.737   4.979 -0.1494 -0.0469 -0.0100
 1163DPPI   PO417082   5.167   5.153   5.346 -0.0289  0.1428  0.2653
 1163DPPI   GL117083   5.185   5.447   5.703  0.0715  0.3093  0.0038
 1163DPPI   GL217084   5.017   5.625   5.920  0.1319  0.0608  0.0954
 1163DPPI   C1A17085   5.475   5.654   6.029  0.0084 -0.0271  0.2456
 1163DPPI   C2A17086   5.549   5.525   6.436  0.0536 -0.0666  0.2353
 1163DPPI   C3A17087   5.594   5.687   6.869 -0.1351  0.4331 -0.2094
 1163DPPI   C4A17088   5.927   5.700   7.128 -0.0669  0.4297 -0.0212
 1163DPPI   C1B17089   5.014   5.649   6.360  0.4448 -0.0604  0.1231
 1163DPPI   C2B17090   5.102   5.465   6.673  0.1150 -0.1625 -0.3458
 1163DPPI   C3B17091   5.204   5.460   7.026 -0.3453  0.0383 -0.0569
 1163DPPI   C4B17092   5.174   5.855   7.176 -0.3333 -0.2765  0.2722
 1164DPPI    C117093   0.938  18.356   5.254  0.0132  0.0820 -0.0429
 1164DPPI    C217094   0.639  18.611   5.182 -0.1597 -0.0634  0.1469
 1164DPPI    C317095   0.975  18.632   4.967 -0.3505  0.0251 -0.1496
 1164DPPI   PO417096   0.991  18.327   5.539 -0.0637  0.3192  0.0277
 1164DPPI   GL117097   1.161  18.404   5.856  0.2399  0.0402  0.0542
 1164DPPI   GL217098   1.345  18.640   5.855 -0.0623  0.5231 -0.1001
 1164DPPI   C1A17099   0.894  18.508   6.173 -0.0588  0.2807 -0.0123
 1164DPPI   C2A17100   0.951  18.383   6.480  0.4731  0.0672  0.1197
 1164DPPI   C3A17101   0.928  18.083   6.704  0.1891 -0.1164 -0.1890
 1164DPPI   C4A17102   0.860  17.882   7.059 -0.0844 -0.0905 -0.1041
 1164DPPI   C1B17103   1.391  18.651   6.264 -0.3958  0.0604 -0.2178
 1164DPPI   C2B17104   1.335  18.412   6.722  0.1237 -0.1901 -0.1118
 1164DPPI   C3B17105   1.143  18.425   7.142  0.1918 -0.0136  0.0962
 1164DPPI   C4B17106   0.980  18.518   7.560 -0.0862 -0.1943 -0.1394
 1165DPPI    C117107   6.393   9.435   5.406  0.1460  0.3245 -0.0259
 1165DPPI    C217108   6.523   9.076   5.286 -0.1100  0.1318  0.2571
 1165DPPI    C317109   6.484   9.373   5.022  0.1415 -0.0352  0.0270
 1165DPPI   PO417110   6.265   9.416   5.659 -0.0897  0.1287  0.0041
 1165DPPI   GL117111   6.306   9.570   6.005  0.0122 -0.1650  0.0313
 1165DPPI   GL217112   6.323   9.899   6.224 -0.2231 -0.1436 -0.2864
 1165DPPI   C1A17113   6.435   9.335   6.318  0.0452  0.2424 -0.1091
 1165DPPI   C2A17114   6.483   8.994   6.633  0.3446 -0.4869  0.1349
 1165DPPI   C3A17115   6.439   8.933   7.122 -0.0153  0.1639  0.4513
 1165DPPI   C4A17116   6.569   8.775   7.499  0.1715  0.0956  0.0338
 1165DPPI   C1B17117   6.213   9.662   6.548  0.0780  0.2493 -0.2674
 1165DPPI   C2B17118   6.081   9.275   6.742 -0.0362 -0.4274 -0.6808
 1165DPPI   C3B17119   6.121   9.234   7.252 -0.0009  0.0248 -0.0688
 1165DPPI   C4B17120   6.122   9.411   7.711  0.1349  0.2008  0.0272
 1166DPPI    C117121  16.111  17.880   5.455  0.1193  0.0472 -0.0737
 1166DPPI    C217122  15.870  17.752   5.162 -0.0400 -0.2186  0.1680
 1166DPPI    C317123  15.730  18.001   5.442  0.0535 -0.1318  0.1379
 1166DPPI   PO417124  16.270  17.778   5.487 -0.2914 -0.1724 -0.2681
 1166DPPI   GL117125  16.696  17.873   5.837 -0.1513 -0.1657  0.2279
 1166DPPI   GL217126  16.590  17.863   6.179 -0.3897  0.0332  0.0103
 1166DPPI   C1A17127  17.037  17.721   6.113 -0.1202  0.1341 -0.1702
 1166DPPI   C2A17128  17.165  17.605   6.558 -0.0171  0.0986 -0.2694
 1166DPPI   C3A17129  17.236  17.426   6.979 -0.0925  0.3619  0.0057
 1166DPPI   C4A17130  17.481  17.400   7.387  0.0243 -0.4375  0.0675
 1166DPPI   C1B17131  16.787  17.958   6.467  0.0985 -0.3124 -0.1568
 1166DPPI   C2B17132  16.752  18.128   6.900  0.0734  0.2523  0.1220
 1166DPPI   C3B17133  16.753  18.081   7.384 -0.0136  0.1273  0.0650
 1166DPPI   C4B17134  16.587  18.049   7.729  0.1537  0.2435 -0.1724
 1167DPPI    C117135  11.938  14.213   5.756 -0.0624  0.1394  0.0476
 1167DPPI    C217136  12.027  14.437   5.436 -0.0133  0.1721  0.0840
 1167DPPI    C317137  12.320  14.263   5.647 -0.0604 -0.0706 -0.0470
 1167DPPI   PO417138  11.713  14.366   5.993 -0.3155 -0.2408  0.0415
 1167DPPI   GL117139  11.478  14.481   6.345 -0.2180  0.1244 -0.1311
 1167DPPI   GL217140  11.770  14.528   6.573 -0.1189 -0.1281  0.0275
 1167DPPI   C1A17141  11.390  14.111   6.650  0.0569  0.1129  0.0470
 1167DPPI   C2A17142  11.364  14.128   7.125 -0.1738 -0.0715 -0.0982
 1167DPPI   C3A17143  11.151  14.235   7.563 -0.2734 -0.0664 -0.0693
 1167DPPI   C4A17144  10.776  14.269   7.892  0.0682  0.2146  0.4323
 1167DPPI   C1B17145  11.510  14.567   6.917  0.3450  0.1269  0.0615
 1167DPPI   C2B17146  11.392  14.609   7.253 -0.0727  0.0737 -0.1796
 1167DPPI   C3B17147  11.401  14.662   7.728 -0.2930  0.1684 -0.2098
 1167DPPI   C4B17148  11.214  14.415   8.106 -0.1427  0.1099  0.3715
 1168DPPI    C117149  15.626  15.637   5.534  0.0840 -0.0226 -0.0198
 1168DPPI    C217150  15.860  15.458   5.805  0.1469 -0.2403 -0.2144
 1168DPPI    C317151  15.950  15.434   5.416  0.0209  0.0138 -0.2613
 1168DPPI   PO417152  15.350  15.712   5.665 -0.0434 -0.2241 -0.1329
 1168DPPI   GL117153  15.165  15.635   6.112 -0.2037 -0.2997 -0.0738
 1168DPPI   GL217154  14.989  15.676   6.405 -0.2980 -0.1550 -0.0272
 1168DPPI   C1A17155  15.470  15.838   6.450 -0.3087 -0.3084 -0.1230
 1168DPPI   C2A17156  15.596  16.002   6.823  0.1936  0.0756 -0.0708
 1168DPPI   C3A17157  15.625  15.991   7.161  0.1208  0.1753  0.1436
 1168DPPI   C4A17158  15.791  16.123   7.622 -0.1549  0.1586 -0.4051
 1168DPPI   C1B17159  15.059  15.671   6.849  0.1950  0.2289 -0.1266
 1168DPPI   C2B17160  15.227  15.635   7.286 -0.4200  0.4063 -0.0192
 1168DPPI   C3B17161  15.262  15.701   7.771 -0.2281  0.1276  0.2111
 1168DPPI   C4B17162  15.377  15.955   8.082 -0.3832 -0.0060  0.2419
 1169DPPI    C117163   2.829  14.220   5.245 -0.0812 -0.1240 -0.0993
 1169DPPI    C217164   2.598  13.931   5.398 -0.2081  0.0561  0.0526
 1169DPPI    C317165   2.993  13.876   5.366 -0.2464 -0.1793 -0.0301
 1169DPPI   PO417166   2.772  14.411   5.448 -0.1119  0.1680  0.0768
 1169DPPI   GL117167   2.571  14.444   5.816  0.0414  0.2755 -0.2654
 1169DPPI   GL217168   2.284  14.340   5.776  0.1100  0.0808 -0.3185
 1169DPPI   C1A17169   2.732  14.631   6.200 -0.4034  0.0851 -0.1138
 1169DPPI   C2A17170   2.917  14.699   6.585 -0.0559 -0.0451 -0.0880
 1169DPPI   C3A17171   2.696  14.600   6.949  0.3223  0.2695  0.1151
 1169DPPI   C4A17172   2.691  14.655   7.353  0.0200  0.1943 -0.1474
 1169DPPI   C1B17173   2.151  14.310   6.108  0.0650 -0.0812  0.0251
 1169DPPI   C2B17174   1.966  14.363   6.545 -0.1674 -0.0045 -0.1736
 1169DPPI   C3B17175   1.935  14.373   7.021  0.0004  0.3507 -0.0811
 1169DPPI   C4B17176   2.236  14.478   7.255 -0.2014  0.2307 -0.1354
 1170DPPI    C117177  15.254  14.890   5.610 -0.0672 -0.0953  0.1977
 1170DPPI    C217178  15.434  15.210   5.768 -0.3054  0.2765 -0.2577
 1170DPPI    C317179  15.599  15.021   5.456 -0.3723  0.2097 -0.2529
 1170DPPI   PO417180  15.187  14.724   5.879 -0.1374  0.1271  0.3442
 1170DPPI   GL117181  14.948  14.563   6.180 -0.0286 -0.0133 -0.0014
 1170DPPI   GL217182  14.996  14.259   6.049 -0.4185 -0.1158 -0.0944
 1170DPPI   C1A17183  14.907  14.754   6.542 -0.0325  0.1127 -0.0291
 1170DPPI   C2A17184  14.965  14.694   6.897 -0.0887 -0.3741  0.2350
 1170DPPI   C3A17185  14.886  14.863   7.306  0.3739  0.1923 -0.0393
 1170DPPI   C4A17186  14.636  14.901   7.635 -0.0821  0.1266  0.0967
 1170DPPI   C1B17187  14.883  14.045   6.361 -0.1892 -0.1520  0.0082
 1170DPPI   C2B17188  15.038  13.834   6.780 -0.1377  0.0612  0.1433
 1170DPPI   C3B17189  15.070  13.635   7.154 -0.1966 -0.1554  0.1035
 1170DPPI   C4B17190  15.227  13.836   7.520 -0.2184  0.3950  0.2974
 1171DPPI    C117191  10.692   1.470   5.736 -0.1248 -0.3278  0.0359
 1171DPPI    C217192  11.053   1.435   5.568 -0.0263 -0.0026  0.1733
 1171DPPI    C317193  10.725   1.360   5.353  0.1195 -0.2541  0.0340
 1171DPPI   PO417194  10.691   1.409   5.983 -0.0284  0.1430  0.2050
 1171DPPI   GL117195  10.589   1.370   6.377  0.4289  0.1616  0.2019
 1171DPPI   GL217196  10.708   1.781   6.365 -0.1627  0.0051 -0.0056
 1171DPPI   C1A17197  10.605   1.401   6.789 -0.1935 -0.1490 -0.0111
 1171DPPI   C2A17198  10.709   1.302   7.194 -0.0326 -0.0615 -0.1863
 1171DPPI   C3A17199  10.625   1.168   7.633  0.3790  0.0776 -0.3218
 1171DPPI   C4A17200  10.299   0.928   7.498  0.4724 -0.0204 -0.4861
 1171DPPI   C1B17201  11.105   1.948   6.512  0.1773 -0.3095  0.5507
 1171DPPI   C2B17202  11.424   2.133   6.647  0.2079 -0.0216 -0.5050
 1171DPPI   C3B17203  11.519   2.521   6.936 -0.3812  0.0349 -0.0441
 1171DPPI   C4B17204  11.357   2.935   7.117 -0.0872 -0.0261 -0.0973
 1172DPPI    C117205   3.518   5.747   5.252  0.0246 -0.2239  0.1031
 1172DPPI    C217206   3.238   5.480   5.355 -0.1881 -0.0529 -0.0221
 1172DPPI    C317207   3.200   5.689   5.016 -0.0335  0.1499  0.0834
 1172DPPI   PO417208   3.597   5.832   5.452  0.0545 -0.1292 -0.3614
 1172DPPI   GL117209   3.350   5.621   5.825  0.2097  0.1132 -0.1060
 1172DPPI   GL217210   3.311   5.309   5.825 -0.1851 -0.3519 -0.2841
 1172DPPI   C1A17211   3.475   5.691   6.227 -0.2832  0.0613 -0.1126
 1172DPPI   C2A17212   3.577   5.834   6.586  0.0463  0.0018  0.0060
 1172DPPI   C3A17213   3.641   5.707   6.981  0.3523 -0.1068 -0.1028
 1172DPPI   C4A17214   3.447   5.547   7.349 -0.3110  0.0132  0.0693
 1172DPPI   C1B17215   3.297   5.255   6.242  0.0727 -0.0611  0.1490
 1172DPPI   C2B17216   3.458   5.315   6.622 -0.2777  0.0473  0.2853
 1172DPPI   C3B17217   3.540   5.219   6.972 -0.0276  0.1161 -0.0909
 1172DPPI   C4B17218   3.857   5.065   7.357 -0.1633  0.1683 -0.2081
 1173DPPI    C117219  13.002   1.566   5.248 -0.1420 -0.2039 -0.1671
 1173DPPI    C217220  12.803   1.904   5.167 -0.0466 -0.1288 -0.0893
 1173DPPI    C317221  13.136   1.814   4.964 -0.0761 -0.1799 -0.1152
 1173DPPI   PO417222  12.941   1.572   5.600 -0.2789  0.2021 -0.0824
 1173DPPI   GL117223  12.991   1.669   5.981 -0.2183 -0.1351  0.0263
 1173DPPI   GL217224  12.910   1.403   6.241  0.5370  0.2958  0.1343
 1173DPPI   C1A17225  12.714   1.898   6.217  0.1980 -0.0853 -0.1152
 1173DPPI   C2A17226  12.769   1.951   6.759 -0.1137 -0.0599  0.0471
 1173DPPI   C3A17227  12.790   2.230   7.073  0.2079  0.3622 -0.1700
 1173DPPI   C4A17228  12.641   2.503   7.400 -0.0173  0.0035 -0.0815
 1173DPPI   C1B17229  13.015   1.575   6.586  0.0870 -0.1416  0.0648
 1173DPPI   C2B17230  13.261   1.861   6.710  0.1065  0.0994 -0.0862
 1173DPPI   C3B17231  13.253   2.021   7.028  0.0891  0.0954  0.2709
 1173DPPI   C4B17232  13.195   2.088   7.526 -0.0017  0.2658 -0.1848
 1174DPPI    C117233  16.349   4.525   5.437 -0.0358  0.2214 -0.1169
 1174DPPI    C217234  16.284   4.254   5.149  0.0045  0.1714 -0.0790
 1174DPPI    C317235  16.658   4.358   5.245 -0.0045  0.0925  0.0437
 1174DPPI   PO417236  16.249   4.761   5.281 -0.0416 -0.3339 -0.0744
 1174DPPI   GL117237  15.983   4.848   5.629  0.0745 -0.0878 -0.1180
 1174DPPI   GL217238  16.256   4.892   5.755  0.0982 -0.1702 -0.0371
 1174DPPI   C1A17239  15.752   4.662   5.993  0.0811 -0.2869  0.2126
 1174DPPI   C2A17240  15.412   4.690   6.318  0.5894  0.0136 -0.1019
 1174DPPI   C3A17241  15.104   5.044   6.290 -0.0740 -0.0444  0.1231
 1174DPPI   C4A17242  15.016   5.532   6.287  0.1369 -0.0267  0.2398
 1174DPPI   C1B17243  16.226   4.651   6.102  0.1773  0.4050  0.0913
 1174DPPI   C2B17244  16.125   4.554   6.628  0.1269  0.0664  0.0539
 1174DPPI   C3B17245  16.241   4.584   7.094 -0.0319 -0.0960 -0.0578
 1174DPPI   C4B17246  16.558   4.618   7.461 -0.2528 -0.2049  0.0470
 1175DPPI    C117247  14.217   5.654   5.538  0.1709  0.1000 -0.1645
 1175DPPI    C217248  14.044   5.738   5.187 -0.1013 -0.2862 -0.1294
 1175DPPI    C317249  13.827   5.741   5.523  0.1311 -0.0398  0.0227
 1175DPPI   PO417250  14.384   5.452   5.484 -0.2381 -0.2106  0.2385
 1175DPPI   GL117251  14.679   5.295   5.761 -0.0870  0.0901  0.0840
 1175DPPI   GL217252  14.614   5.584   5.939  0.2253 -0.1416  0.1237
 1175DPPI   C1A17253  14.632   5.052   6.114  0.1526 -0.0400 -0.0404
 1175DPPI   C2A17254  14.467   5.015   6.514  0.0338 -0.1752  0.2904
 1175DPPI   C3A17255  14.430   4.768   6.950  0.2270  0.0008  0.1334
 1175DPPI   C4A17256  14.266   4.771   7.413 -0.0121  0.5655 -0.0556
 1175DPPI   C1B17257  14.539   5.510   6.397  0.3219 -0.1719 -0.0056
 1175DPPI   C2B17258  14.366   5.431   6.803 -0.1547 -0.1733  0.2038
 1175DPPI   C3B17259  14.418   5.271   7.206 -0.1203  0.0583 -0.1022
 1175DPPI   C4B17260  14.481   5.362   7.526  0.0451 -0.1088  0.0355
 1176DPPI    C117261   1.098   6.412   4.923  0.0181  0.3016  0.0189
 1176DPPI    C217262   0.731   6.477   5.068  0.0601  0.3797  0.0911
 1176DPPI    C317263   0.798   6.503   4.675 -0.0812  0.0432  0.0412
 1176DPPI   PO417264   1.251   6.436   5.293  0.0957 -0.2498 -0.0110
 1176DPPI   GL117265   1.221   6.478   5.740 -0.0179  0.1832  0.0218
 1176DPPI   GL217266   0.845   6.434   5.680 -0.0330  0.2962  0.0177
 1176DPPI   C1A17267   1.362   6.702   6.059  0.0001  0.0034  0.1015
 1176DPPI   C2A17268   1.203   6.680   6.507  0.0081  0.1650 -0.0603
 1176DPPI   C3A17269   0.995   6.594   6.840  0.3329 -0.2221  0.3131
 1176DPPI   C4A17270   0.807   6.949   7.150 -0.0832 -0.0211 -0.1538
 1176DPPI   C1B17271   0.954   6.374   6.131  0.1099  0.0297 -0.0012
 1176DPPI   C2B17272   0.755   6.235   6.512  0.1830 -0.1169  0.1067
 1176DPPI   C3B17273   0.802   6.130   7.020 -0.1216  0.1331 -0.2836
 1176DPPI   C4B17274   0.758   6.067   7.413 -0.0297 -0.0056  0.3256
 1177DPPI    C117275  14.078  10.178   5.574  0.0007  0.0478  0.0015
 1177DPPI    C217276  14.207  10.514   5.400 -0.0321  0.0216 -0.0738
 1177DPPI    C317277  14.419  10.177   5.365 -0.1114 -0.0173 -0.1832
 1177DPPI   PO417278  14.056  10.163   5.811 -0.0775  0.0948 -0.3550
 1177DPPI   GL117279  14.212  10.252   6.262 -0.1823  0.1466 -0.0171
 1177DPPI   GL217280  14.034  10.456   6.237 -0.3478 -0.0525  0.0644
 1177DPPI   C1A17281  14.412  10.140   6.660 -0.0152 -0.2713  0.0338
 1177DPPI   C2A17282  14.657  10.101   7.040  0.1251 -0.0219 -0.1969
 1177DPPI   C3A17283  14.657   9.945   7.444  0.1448  0.0542 -0.0502
 1177DPPI   C4A17284  14.659   9.624   7.851  0.0603  0.0004  0.0657
 1177DPPI   C1B17285  13.794  10.476   6.658  0.1753 -0.0359 -0.1577
 1177DPPI   C2B17286  13.639  10.429   6.962 -0.0108  0.1590  0.0542
 1177DPPI   C3B17287  13.346  10.354   7.375 -0.1970 -0.1630 -0.2835
 1177DPPI   C4B17288  13.225  10.393   7.801  0.0559  0.0922  0.0396
 1178DPPI    C117289  12.952  10.929   5.573 -0.0675  0.1318  0.1496
 1178DPPI    C217290  12.592  10.821   5.709 -0.1073  0.0765  0.0024
 1178DPPI    C317291  12.823  10.553   5.522 -0.0408  0.1437 -0.0119
 1178DPPI   PO417292  13.053  11.026   5.769  0.1442 -0.0483  0.1531
 1178DPPI   GL117293  13.247  11.223   6.141  0.0352  0.0707 -0.1023
 1178DPPI   GL217294  13.583  11.423   6.116 -0.0122  0.0593 -0.1018
 1178DPPI   C1A17295  13.041  11.235   6.499  0.1147  0.1723 -0.0189
 1178DPPI   C2A17296  12.966  11.171   6.932 -0.0775  0.2709  0.2097
 1178DPPI   C3A17297  12.804  11.128   7.325 -0.1145 -0.0818  0.0459
 1178DPPI   C4A17298  12.623  11.023   7.728 -0.2388  0.2564 -0.1090
 1178DPPI   C1B17299  13.609  11.325   6.526 -0.2134  0.0430 -0.3624
 1178DPPI   C2B17300  13.448  11.165   6.907 -0.1496  0.3717 -0.3074
 1178DPPI   C3B17301  13.616  10.856   7.168  0.1028 -0.0235 -0.2075
 1178DPPI   C4B17302  13.813  10.542   7.458 -0.0066 -0.2299 -0.0104
 1179DPPI    C117303  16.425  15.950   5.230 -0.0436 -0.0997 -0.0670
 1179DPPI    C217304  16.745  16.075   5.025 -0.0446  0.0896  0.0442
 1179DPPI    C317305  16.379  16.105   4.865 -0.0409  0.1962  0.0554
 1179DPPI   PO417306  16.356  16.090   5.474  0.1673 -0.0440  0.0517
 1179DPPI   GL117307  16.484  16.237   5.831 -0.0630 -0.2582 -0.1358
 1179DPPI   GL217308  16.406  16.580   5.997  0.2810 -0.0007  0.1072
 1179DPPI   C1A17309  16.409  16.096   6.203 -0.1636  0.0040 -0.0043
 1179DPPI   C2A17310  16.436  16.148   6.571  0.0041 -0.2286 -0.5657
 1179DPPI   C3A17311  16.517  16.189   7.042  0.0633  0.3119  0.2594
 1179DPPI   C4A17312  16.731  15.912   7.365  0.1675 -0.2431 -0.1620
 1179DPPI   C1B17313  16.655  16.535   6.269 -0.0793  0.0536 -0.2191
 1179DPPI   C2B17314  16.733  16.640   6.720 -0.2266  0.1604  0.2556
 1179DPPI   C3B17315  16.740  16.616   7.214 -0.2798  0.0368  0.1036
 1179DPPI   C4B17316  16.992  16.694   7.643  0.1916 -0.0185  0.2544
 1180DPPI    C117317   8.807   4.830   5.553 -0.0818  0.3672 -0.0335
 1180DPPI    C217318   8.677   5.084   5.273 -0.2568 -0.0517 -0.3438
 1180DPPI    C317319   8.795   4.716   5.170 -0.2372 -0.1836  0.1256
 1180DPPI   PO417320   8.960   4.967   5.765 -0.1375  0.3817 -0.1613
 1180DPPI   GL117321   9.015   5.108   6.083 -0.2332  0.1194 -0.3939
 1180DPPI   GL217322   9.105   5.358   6.145  0.1111  0.0561  0.0284
 1180DPPI   C1A17323   9.304   5.014   6.515 -0.0933 -0.0215  0.0741
 1180DPPI   C2A17324   9.273   5.174   6.856 -0.0719  0.3039 -0.0435
 1180DPPI   C3A17325   9.240   5.243   7.294 -0.2255 -0.1396 -0.2310
 1180DPPI   C4A17326   9.126   5.633   7.503  0.0671  0.0380  0.1646
 1180DPPI   C1B17327   8.965   5.593   6.431  0.2876  0.0535 -0.0500
 1180DPPI   C2B17328   8.999   5.912   6.624 -0.1543 -0.2238 -0.0916
 1180DPPI   C3B17329   8.961   5.877   7.068 -0.0800  0.1611  0.0891
 1180DPPI   C4B17330   8.821   6.049   7.381  0.0691  0.1412 -0.3174
 1181DPPI    C117331  12.257  10.086   5.579  0.1117  0.2738  0.0067
 1181DPPI    C217332  12.460  10.259   5.281  0.0872  0.3960  0.0604
 1181DPPI    C317333  12.084  10.137   5.222  0.2042  0.0854 -0.0667
 1181DPPI   PO417334  12.404  10.057   5.763  0.2123  0.0719  0.1222
 1181DPPI   GL117335  12.510   9.860   6.251  0.1740 -0.1661  0.1284
 1181DPPI   GL217336  12.314   9.674   6.406  0.3482  0.2521 -0.2804
 1181DPPI   C1A17337  12.528  10.018   6.725 -0.1418 -0.2082  0.0315
 1181DPPI   C2A17338  12.207   9.884   6.988  0.0246 -0.1444 -0.0648
 1181DPPI   C3A17339  12.185   9.781   7.341  0.1953  0.3238 -0.0369
 1181DPPI   C4A17340  12.185   9.984   7.711  0.1829  0.1059  0.3643
 1181DPPI   C1B17341  12.527   9.512   6.687 -0.0693 -0.1045 -0.1054
 1181DPPI   C2B17342  12.532   9.411   7.145 -0.0605 -0.0430  0.2462
 1181DPPI   C3B17343  12.687   9.630   7.473 -0.3295 -0.0816  0.2702
 1181DPPI   C4B17344  12.601   9.846   7.905  0.5576 -0.1790  0.0220
 1182DPPI    C117345  13.954  11.368   5.747  0.1753 -0.1283  0.1052
 1182DPPI    C217346  14.178  11.690   5.828  0.1392 -0.1532  0.3102
 1182DPPI    C317347  13.790  11.733   5.740  0.1745 -0.1273  0.1648
 1182DPPI   PO417348  14.013  11.208   6.022 -0.4248 -0.3640 -0.0621
 1182DPPI   GL117349  14.117  11.195   6.430  0.2415  0.0131  0.0930
 1182DPPI   GL217350  14.402  11.424   6.274 -0.1708 -0.0494 -0.2212
 1182DPPI   C1A17351  14.076  11.239   6.875 -0.0023  0.0381  0.1279
 1182DPPI   C2A17352  14.167  10.910   7.200 -0.0307  0.0843 -0.1128
 1182DPPI   C3A17353  14.380  10.808   7.655  0.2789 -0.1903  0.2860
 1182DPPI   C4A17354  14.492  10.749   8.029  0.1575  0.2580  0.1226
 1182DPPI   C1B17355  14.454  11.601   6.622 -0.6885  0.0642 -0.0700
 1182DPPI   C2B17356  14.465  11.578   7.032  0.1731 -0.1552 -0.2700
 1182DPPI   C3B17357  14.326  11.435   7.391  0.1269  0.0217  0.1312
 1182DPPI   C4B17358  13.911  11.211   7.560 -0.1466 -0.0261 -0.0060
 1183DPPI    C117359   8.130  13.285   5.757 -0.4780  0.1366  0.0557
 1183DPPI    C217360   8.147  13.157   5.378 -0.2003  0.0139  0.1068
 1183DPPI    C317361   7.979  12.928   5.660 -0.2984  0.0527  0.0803
 1183DPPI   PO417362   8.367  13.396   5.771  0.3789 -0.0140  0.2508
 1183DPPI   GL117363   8.499  13.697   6.112 -0.3851 -0.1518 -0.0204
 1183DPPI   GL217364   8.259  14.025   6.251 -0.0157 -0.3332 -0.2900
 1183DPPI   C1A17365   8.480  13.460   6.479  0.1676  0.1226 -0.3086
 1183DPPI   C2A17366   8.226  13.190   6.775 -0.0931  0.1397 -0.3171
 1183DPPI   C3A17367   8.103  13.184   7.187 -0.0150 -0.0707  0.1138
 1183DPPI   C4A17368   7.934  12.813   7.357  0.1218 -0.0900 -0.0164
 1183DPPI   C1B17369   8.392  14.013   6.675  0.2218  0.1603 -0.0006
 1183DPPI   C2B17370   8.235  14.220   6.989  0.0097 -0.2233  0.1388
 1183DPPI   C3B17371   8.042  14.354   7.322  0.0448 -0.2079  0.2770
 1183DPPI   C4B17372   7.686  14.343   7.532 -0.0930  0.0910 -0.6411
 1184DPPI    C117373  13.147  17.111   5.829  0.1849 -0.0923  0.0056
 1184DPPI    C217374  13.197  17.356   6.141  0.0461 -0.0073 -0.0378
 1184DPPI    C317375  13.430  17.394   5.819  0.3366 -0.2373  0.1397
 1184DPPI   PO417376  13.117  16.861   5.990  0.2684 -0.1275 -0.1646
 1184DPPI   GL117377  13.098  16.923   6.435  0.0599  0.1897 -0.1365
 1184DPPI   GL217378  13.096  16.635   6.645 -0.0928  0.2139 -0.1449
 1184DPPI   C1A17379  13.294  17.205   6.625  0.2491 -0.1860  0.4000
 1184DPPI   C2A17380  13.413  17.399   6.982  0.0573  0.0460 -0.2068
 1184DPPI   C3A17381  13.589  17.711   6.944 -0.0348  0.0671  0.2754
 1184DPPI   C4A17382  13.734  18.108   7.106 -0.1364 -0.0743 -0.1902
 1184DPPI   C1B17383  13.107  16.634   7.123 -0.2302  0.0662  0.1767
 1184DPPI   C2B17384  13.174  16.747   7.513  0.0665 -0.0073 -0.0115
 1184DPPI   C3B17385  13.315  16.758   7.866  0.2103  0.0211 -0.1132
 1184DPPI   C4B17386  13.182  16.751   8.288 -0.0730 -0.3291  0.1840
 1185DPPI    C117387  15.693   7.898   5.489 -0.1482  0.0759  0.2749
 1185DPPI    C217388  15.635   7.502   5.488  0.6021 -0.0541 -0.2239
 1185DPPI    C317389  15.459   7.731   5.211  0.1475 -0.0228  0.0802
 1185DPPI   PO417390  15.536   7.985   5.727 -0.0242  0.1535 -0.0934
 1185DPPI   GL117391  15.372   8.118   6.172  0.0089  0.2041 -0.1303
 1185DPPI   GL217392  15.348   7.792   6.273  0.3975  0.1268 -0.0848
 1185DPPI   C1A17393  15.796   8.015   6.486  0.2778 -0.0567 -0.0578
 1185DPPI   C2A17394  15.878   7.951   6.932  0.0767 -0.0400 -0.3810
 1185DPPI   C3A17395  16.105   8.140   7.285  0.1722 -0.2099  0.0150
 1185DPPI   C4A17396  16.013   8.196   7.665 -0.0286 -0.2836 -0.2387
 1185DPPI   C1B17397  15.281   7.654   6.714 -0.0048 -0.0581  0.0545
 1185DPPI   C2B17398  15.341   7.548   7.200  0.0896 -0.1136 -0.1085
 1185DPPI   C3B17399  15.372   7.441   7.679 -0.1486  0.3429  0.2080
 1185DPPI   C4B17400  15.656   7.122   7.908  0.0714 -0.4520  0.0449
 1186DPPI    C117401  12.014   6.103   5.235  0.1782 -0.0702 -0.0978
 1186DPPI    C217402  11.885   5.868   4.937 -0.2485 -0.0461  0.0607
 1186DPPI    C317403  12.128   6.176   4.859 -0.1511 -0.1923 -0.2254
 1186DPPI   PO417404  12.058   5.983   5.438 -0.1745 -0.1410  0.0287
 1186DPPI   GL117405  11.927   6.222   5.739 -0.3193  0.1152 -0.0209
 1186DPPI   GL217406  11.742   6.102   5.997  0.0779  0.1543  0.2153
 1186DPPI   C1A17407  12.295   6.181   6.091  0.2808 -0.2626  0.5172
 1186DPPI   C2A17408  12.519   6.097   6.406 -0.1439  0.3042  0.0337
 1186DPPI   C3A17409  12.634   5.875   6.743  0.2755  0.2809  0.4189
 1186DPPI   C4A17410  12.722   5.598   7.104  0.0426  0.1160 -0.0212
 1186DPPI   C1B17411  11.600   5.958   6.442 -0.2350  0.0363  0.0967
 1186DPPI   C2B17412  11.668   6.037   6.960  0.0641 -0.0124 -0.0490
 1186DPPI   C3B17413  11.850   5.993   7.270 -0.1859  0.1547  0.1677
 1186DPPI   C4B17414  11.719   6.081   7.718 -0.3189 -0.3565 -0.2015
 1187PYPI    C117415   2.002   4.972   5.257 -0.0082  0.0786  0.1013
 1187PYPI    C217416   2.048   5.284   5.011  0.0184  0.1029  0.1369
 1187PYPI    C317417   2.369   5.109   5.174  0.0164 -0.0726 -0.0442
 1187PYPI   PO417418   1.865   4.967   5.427 -0.2225 -0.0898  0.2030
 1187PYPI   GL117419   1.867   4.831   5.979 -0.0651 -0.0029  0.0001
 1187PYPI   GL217420   1.811   5.135   5.937 -0.0929 -0.1297 -0.2968
 1187PYPI   C1A17421   2.132   4.580   6.216  0.2147  0.0523  0.1050
 1187PYPI   C2A17422   2.220   4.608   6.624  0.5737 -0.1303  0.2807
 1187PYPI   D3A17423   2.235   4.721   7.097 -0.1740  0.4063  0.1510
 1187PYPI   C4A17424   2.066   4.745   7.491  0.1111 -0.2862  0.0582
 1187PYPI   C1B17425   1.531   5.024   6.332 -0.0103 -0.1566  0.0760
 1187PYPI   C2B17426   1.440   5.268   6.694  0.2227  0.0219  0.3348
 1187PYPI   C3B17427   1.653   5.524   7.052  0.0352 -0.1226  0.0900
 1187PYPI   C4B17428   1.681   5.445   7.553  0.0101 -0.1463 -0.1443
 1188PYPI    C117429  11.965   2.911   5.119 -0.0094  0.1590  0.0992
 1188PYPI    C217430  12.239   3.203   5.120  0.2070 -0.0406 -0.0506
 1188PYPI    C317431  11.977   3.175   4.819  0.0848  0.0907  0.0424
 1188PYPI   PO417432  11.848   2.900   5.397  0.0106 -0.0653  0.0979
 1188PYPI   GL117433  11.952   3.132   5.770  0.1056  0.0937  0.0395
 1188PYPI   GL217434  11.977   3.470   5.602  0.0646 -0.5223  0.1652
 1188PYPI   C1A17435  11.727   3.422   6.010 -0.4162 -0.1681  0.2644
 1188PYPI   C2A17436  11.938   3.670   6.329  0.0309 -0.1819  0.0974
 1188PYPI   D3A17437  12.000   3.897   6.667 -0.1437  0.1144 -0.0187
 1188PYPI   C4A17438  11.990   4.257   6.669  0.3947  0.0137 -0.2856
 1188PYPI   C1B17439  12.106   3.843   5.776  0.0827  0.2489  0.0472
 1188PYPI   C2B17440  12.407   4.261   5.847  0.1108  0.0791  0.1046
 1188PYPI   C3B17441  12.605   4.442   6.079 -0.3453  0.2578 -0.0737
 1188PYPI   C4B17442  12.521   4.556   6.492  0.1670  0.0306 -0.0559
 1189PYPI    C117443   7.879   7.695   5.085 -0.0715  0.0275  0.1989
 1189PYPI    C217444   7.840   8.084   5.000  0.1000 -0.0344 -0.1826
 1189PYPI    C317445   7.677   7.809   4.759 -0.0007 -0.2020  0.0727
 1189PYPI   PO417446   7.849   7.651   5.325 -0.0538  0.2336 -0.2505
 1189PYPI   GL117447   7.960   7.920   5.637 -0.1248 -0.0445  0.3193
 1189PYPI   GL217448   8.077   7.745   5.849 -0.2709  0.0401 -0.1449
 1189PYPI   C1A17449   7.773   8.047   6.098 -0.1315  0.1869  0.0983
 1189PYPI   C2A17450   7.795   8.180   6.488 -0.0855 -0.1280 -0.0993
 1189PYPI   D3A17451   7.734   8.112   6.915  0.3329 -0.0619 -0.4433
 1189PYPI   C4A17452   7.869   8.488   7.195  0.1289  0.3552  0.0541
 1189PYPI   C1B17453   8.152   7.814   6.291 -0.2652 -0.0539  0.0917
 1189PYPI   C2B17454   8.120   7.924   6.698 -0.0603  0.0018 -0.0996
 1189PYPI   C3B17455   8.127   7.817   7.160  0.0662  0.0845 -0.2552
 1189PYPI   C4B17456   7.848   7.913   7.563  0.0578  0.0488  0.0603
 1190PYPI    C117457   2.641   1.162   5.255  0.0935  0.2517 -0.0322
 1190PYPI    C217458   2.909   1.308   4.997 -0.0781 -0.1235 -0.4345
 1190PYPI    C317459   2.523   1.292   4.896 -0.1370 -0.3475 -0.1843
 1190PYPI   PO417460   2.666   1.298   5.484 -0.2111 -0.0865 -0.1137
 1190PYPI   GL117461   2.879   1.163   5.911 -0.1738  0.0063 -0.0625
 1190PYPI   GL217462   2.849   1.480   5.889 -0.0299 -0.0205  0.1377
 1190PYPI   C1A17463   2.903   0.982   6.344  0.0680  0.2037 -0.1987
 1190PYPI   C2A17464   2.719   0.791   6.758  0.2229  0.3516 -0.3942
 1190PYPI   D3A17465   2.818   0.950   7.196  0.0775 -0.2392 -0.0897
 1190PYPI   C4A17466   2.508   1.044   7.515  0.2569  0.3011  0.0435
 1190PYPI   C1B17467   3.064   1.519   6.152 -0.0574  0.0722  0.1994
 1190PYPI   C2B17468   3.084   1.789   6.426 -0.2470 -0.0787  0.0935
 1190PYPI   C3B17469   3.194   2.015   6.792 -0.2476  0.0084  0.3676
 1190PYPI   C4B17470   3.132   2.357   7.134 -0.0656  0.1911  0.0376
 1191PYPI    C117471  15.479  11.935   5.757  0.1533  0.0018 -0.0413
 1191PYPI    C217472  15.170  12.156   5.632  0.1270  0.0404  0.0903
 1191PYPI    C317473  15.512  12.153   5.423  0.1243  0.1978  0.0826
 1191PYPI   PO417474  15.462  11.966   6.040  0.1355  0.1680  0.0635
 1191PYPI   GL117475  15.650  11.926   6.358  0.3678 -0.3373  0.3260
 1191PYPI   GL217476  15.428  11.780   6.513 -0.1607  0.1182  0.0961
 1191PYPI   C1A17477  15.755  11.941   6.814 -0.1605 -0.1815  0.1026
 1191PYPI   C2A17478  15.764  11.961   7.169 -0.2096  0.0096 -0.0143
 1191PYPI   D3A17479  15.589  12.108   7.590  0.0638 -0.2837 -0.0260
 1191PYPI   C4A17480  15.338  11.893   7.867  0.0969 -0.0180 -0.1072
 1191PYPI   C1B17481  15.346  11.756   6.986  0.2194  0.0314  0.2126
 1191PYPI   C2B17482  15.197  11.735   7.405 -0.0277  0.1038  0.0202
 1191PYPI   C3B17483  15.028  11.558   7.749 -0.3206  0.1940 -0.0879
 1191PYPI   C4B17484  14.855  11.597   8.199 -0.0760 -0.0177 -0.0401
 1192PYPI    C117485   7.597  12.023   5.331  0.0674 -0.0287  0.1432
 1192PYPI    C217486   7.454  11.698   5.147  0.3523 -0.1018  0.0451
 1192PYPI    C317487   7.412  12.058   4.978  0.3351 -0.1296 -0.0099
 1192PYPI   PO417488   7.683  11.976   5.522 -0.2815 -0.0071 -0.1208
 1192PYPI   GL117489   7.576  11.841   5.982 -0.0199  0.3333 -0.2081
 1192PYPI   GL217490   7.284  11.922   6.090 -0.1737 -0.1441  0.0224
 1192PYPI   C1A17491   7.854  11.857   6.353  0.0994 -0.1972 -0.2113
 1192PYPI   C2A17492   8.029  11.712   6.650 -0.3124  0.3220 -0.0316
 1192PYPI   D3A17493   8.119  11.979   7.078 -0.0347 -0.2609 -0.1688
 1192PYPI   C4A17494   8.449  12.222   7.074 -0.1616 -0.0679  0.2055
 1192PYPI   C1B17495   7.394  11.644   6.456 -0.0669  0.0792  0.2286
 1192PYPI   C2B17496   7.313  11.590   6.979  0.0773  0.0785 -0.2953
 1192PYPI   C3B17497   7.319  11.780   7.285 -0.1667 -0.2804  0.0736
 1192PYPI   C4B17498   7.198  11.876   7.705  0.1448 -0.2781 -0.1480
 1193PYPI    C117499  12.481   1.336   5.374 -0.3613  0.2063  0.0082
 1193PYPI    C217500  12.239   1.302   5.057 -0.2129 -0.1899 -0.0681
 1193PYPI    C317501  12.632   1.354   5.004 -0.2189 -0.0154  0.0531
 1193PYPI   PO417502  12.423   1.287   5.629  0.0835 -0.0543  0.1163
 1193PYPI   GL117503  12.507   1.502   5.960 -0.1447 -0.0609 -0.1126
 1193PYPI   GL217504  12.249   1.721   6.087 -0.4120 -0.3194 -0.1009
 1193PYPI   C1A17505  12.421   1.365   6.420  0.2081 -0.0122  0.0736
 1193PYPI   C2A17506  12.127   1.095   6.471 -0.2099 -0.1761  0.1193
 1193PYPI   D3A17507  11.960   0.870   6.826  0.3440  0.2853  0.1337
 1193PYPI   C4A17508  12.244   0.664   7.106 -0.0301  0.2492  0.0835
 1193PYPI   C1B17509  12.302   1.839   6.546 -0.0790  0.0639  0.2491
 1193PYPI   C2B17510  12.267   1.858   6.947  0.0916 -0.3737 -0.2399
 1193PYPI   C3B17511  12.405   1.949   7.416 -0.0434 -0.2288  0.2788
 1193PYPI   C4B17512  12.757   1.958   7.697 -0.0996 -0.1397 -0.0401
 1194PYPI    C117513   6.611   4.972   5.221 -0.0863 -0.0713 -0.3934
 1194PYPI    C217514   6.807   5.300   5.104 -0.0549 -0.0730 -0.3460
 1194PYPI    C317515   6.513   5.152   4.878 -0.1320  0.0417 -0.3217
 1194PYPI   PO417516   6.516   5.020   5.452 -0.1382  0.0497 -0.2386
 1194PYPI   GL117517   6.649   5.170   5.906 -0.0332 -0.0092  0.0571
 1194PYPI   GL217518   6.568   4.809   5.919 -0.4058 -0.3088  0.1545
 1194PYPI   C1A17519   6.342   5.225   6.201  0.0647 -0.2720 -0.0274
 1194PYPI   C2A17520   6.119   5.306   6.572  0.0292  0.4116 -0.1876
 1194PYPI   D3A17521   5.848   5.178   6.953 -0.0091  0.1201 -0.0698
 1194PYPI   C4A17522   5.550   5.198   7.343 -0.1939 -0.1575 -0.2539
 1194PYPI   C1B17523   6.558   4.893   6.383  0.0482 -0.0851  0.1276
 1194PYPI   C2B17524   6.472   5.025   6.760  0.1900  0.3582  0.1677
 1194PYPI   C3B17525   6.351   5.014   7.251 -0.2158  0.1361 -0.1625
 1194PYPI   C4B17526   6.063   5.147   7.520  0.0397  0.1217 -0.1484
 1195PYPI    C117527   2.620  15.843   5.087 -0.0889  0.2173 -0.0487
 1195PYPI    C217528   2.226  15.781   5.054 -0.1423  0.3852  0.2361
 1195PYPI    C317529   2.448  15.836   4.726 -0.4087  0.6035  0.0882
 1195PYPI   PO417530   2.674  15.887   5.413  0.1515 -0.2449 -0.0048
 1195PYPI   GL117531   2.593  15.750   5.878 -0.0549 -0.1433 -0.0004
 1195PYPI   GL217532   2.809  15.733   5.978  0.0703 -0.0895  0.3500
 1195PYPI   C1A17533   2.450  15.603   6.328  0.0311 -0.0346  0.2545
 1195PYPI   C2A17534   2.214  15.530   6.847  0.1389 -0.1806 -0.1087
 1195PYPI   D3A17535   2.205  15.674   7.254  0.0430 -0.2438  0.1014
 1195PYPI   C4A17536   2.009  15.789   7.600  0.0231 -0.1202 -0.0321
 1195PYPI   C1B17537   2.870  15.728   6.487  0.2156 -0.0271 -0.0386
 1195PYPI   C2B17538   2.696  15.633   6.830 -0.1566  0.2356  0.2639
 1195PYPI   C3B17539   2.698  15.442   7.245 -0.0595  0.1932 -0.0971
 1195PYPI   C4B17540   2.437  15.383   7.563 -0.3173  0.2416 -0.2313
 1196PYPI    C117541  14.237   8.910   5.675  0.0027 -0.0201  0.1813
 1196PYPI    C217542  14.412   8.557   5.744  0.1300  0.0615  0.2792
 1196PYPI    C317543  14.023   8.573   5.650  0.1775 -0.1226  0.0424
 1196PYPI   PO417544  14.458   9.050   5.741  0.2701 -0.0118 -0.0635
 1196PYPI   GL117545  14.591   9.390   5.965  0.1926 -0.0720 -0.0020
 1196PYPI   GL217546  14.825   9.260   6.031  0.0498  0.0866 -0.0212
 1196PYPI   C1A17547  14.479   9.251   6.387  0.0508  0.0424  0.1808
 1196PYPI   C2A17548  14.459   9.218   6.769 -0.0557  0.0360 -0.0145
 1196PYPI   D3A17549  14.401   9.082   7.210  0.0591  0.2034 -0.1132
 1196PYPI   C4A17550  14.306   9.341   7.635  0.2043 -0.1839  0.1532
 1196PYPI   C1B17551  14.991   9.297   6.424 -0.0528 -0.2049 -0.0399
 1196PYPI   C2B17552  14.964   9.253   6.864  0.0266 -0.1501 -0.4104
 1196PYPI   C3B17553  14.923   9.056   7.227 -0.2857 -0.1162 -0.4732
 1196PYPI   C4B17554  14.738   9.152   7.639  0.0299  0.1231 -0.0643
 1197PYPI    C117555  17.273   1.352   5.327  0.3245  0.1189 -0.1477
 1197PYPI    C217556  17.065   1.691   5.286  0.1245  0.0111 -0.0421
 1197PYPI    C317557  17.407   1.640   5.084  0.1480  0.2679 -0.0703
 1197PYPI   PO417558  17.158   1.256   5.542 -0.0322  0.0798  0.0536
 1197PYPI   GL117559  17.228   1.284   6.028 -0.0009 -0.1344  0.0552
 1197PYPI   GL217560  17.454   1.522   6.115  0.2115 -0.2594  0.0406
 1197PYPI   C1A17561  17.051   1.428   6.384 -0.2821  0.4980  0.0302
 1197PYPI   C2A17562  17.038   1.392   6.817  0.1858  0.2035  0.1317
 1197PYPI   D3A17563  16.925   1.155   7.093  0.2227  0.2365 -0.0910
 1197PYPI   C4A17564  16.692   1.186   7.505 -0.1166 -0.0700  0.0275
 1197PYPI   C1B17565  17.482   1.456   6.591 -0.0906 -0.0081 -0.1216
 1197PYPI   C2B17566  17.423   1.596   7.047 -0.0382 -0.0140 -0.3565
 1197PYPI   C3B17567  17.176   1.521   7.379  0.1287 -0.2625 -0.2391
 1197PYPI   C4B17568  17.306   1.315   7.765  0.0548 -0.0209 -0.0552
 1198PYPI    C117569  13.861   0.732   5.627 -0.1034 -0.0119  0.2440
 1198PYPI    C217570  13.602   0.431   5.576 -0.2317  0.1515 -0.0957
 1198PYPI    C317571  13.901   0.485   5.315 -0.0403  0.1520  0.1209
 1198PYPI   PO417572  13.931   0.719   5.877  0.3620 -0.1306 -0.1609
 1198PYPI   GL117573  14.210   0.703   6.188  0.0091 -0.2649  0.1135
 1198PYPI   GL217574  14.399   1.025   6.240 -0.1370  0.0172 -0.3435
 1198PYPI   C1A17575  13.794   0.736   6.469  0.0297 -0.0551 -0.0138
 1198PYPI   C2A17576  13.743   0.878   6.854  0.1736  0.4333 -0.1547
 1198PYPI   D3A17577  13.729   1.034   7.262 -0.1027  0.2545  0.2911
 1198PYPI   C4A17578  13.597   0.686   7.547 -0.3324 -0.2732  0.1242
 1198PYPI   C1B17579  14.227   0.866   6.689 -0.2853 -0.2320  0.0786
 1198PYPI   C2B17580  14.286   0.959   7.160 -0.0394  0.1463  0.0839
 1198PYPI   C3B17581  14.139   1.161   7.567  0.0209  0.2496 -0.0134
 1198PYPI   C4B17582  13.876   1.006   7.910  0.1841  0.1090 -0.1397
 1199PYPI    C117583  18.255   0.197   5.174  0.2139  0.2241 -0.0363
 1199PYPI    C217584  18.559  -0.037   5.060  0.0011 -0.1309  0.1106
 1199PYPI    C317585  18.188  -0.110   4.927 -0.1074 -0.0267  0.3501
 1199PYPI   PO417586  18.357   0.205   5.478 -0.0676  0.1947 -0.1615
 1199PYPI   GL117587  18.263   0.079   5.835  0.0051  0.3472 -0.0578
 1199PYPI   GL217588  18.375  -0.272   5.840 -0.0722  0.0959 -0.1521
 1199PYPI   C1A17589  18.362   0.435   6.181  0.2724 -0.3956 -0.0924
 1199PYPI   C2A17590  18.457   0.532   6.657  0.0363 -0.1085  0.2249
 1199PYPI   D3A17591  18.650   0.429   7.035  0.0512  0.0306  0.1763
 1199PYPI   C4A17592  19.021   0.404   7.337  0.2334 -0.0831 -0.1089
 1199PYPI   C1B17593  18.407  -0.059   6.306 -0.1745 -0.2569  0.0862
 1199PYPI   C2B17594  18.155   0.104   6.707  0.2237 -0.3612 -0.0732
 1199PYPI   C3B17595  18.195   0.233   7.100  0.0336 -0.1134 -0.3084
 1199PYPI   C4B17596  18.263   0.618   7.326  0.1028 -0.0354 -0.4248
 1200PYPI    C117597  13.496   5.511   5.213  0.0273  0.0342  0.1981
 1200PYPI    C217598  13.335   5.570   4.851 -0.0539 -0.0230  0.2246
 1200PYPI    C317599  13.728   5.507   4.887 -0.0196  0.1521  0.1629
 1200PYPI   PO417600  13.348   5.513   5.357  0.3438 -0.2178 -0.0075
 1200PYPI   GL117601  13.351   5.451   5.841 -0.0267  0.1299  0.0735
 1200PYPI   GL217602  13.739   5.440   5.902 -0.1128 -0.4340  0.2943
 1200PYPI   C1A17603  13.317   5.391   6.310 -0.2315  0.3711 -0.3892
 1200PYPI   C2A17604  13.484   5.469   6.742  0.4743 -0.0454 -0.1977
 1200PYPI   D3A17605  13.437   5.354   7.137 -0.2379 -0.0604 -0.2929
 1200PYPI   C4A17606  13.452   5.042   7.449 -0.0881 -0.0795  0.0285
 1200PYPI   C1B17607  13.928   5.324   6.355 -0.1522 -0.3733  0.1084
 1200PYPI   C2B17608  13.977   5.154   6.773 -0.2090 -0.0338  0.2457
 1200PYPI   C3B17609  13.796   4.879   7.066  0.2070  0.2933  0.2468
 1200PYPI   C4B17610  13.837   4.577   7.365 -0.0015  0.2989  0.1883
 1201PYPI    C117611  12.743   8.456   5.574  0.0352  0.2086 -0.2284
 1201PYPI    C217612  12.814   8.200   5.275  0.1387  0.2142 -0.2088
 1201PYPI    C317613  12.762   8.589   5.197 -0.1990  0.1619 -0.2580
 1201PYPI   PO417614  12.514   8.325   5.714  0.0664 -0.2539 -0.0922
 1201PYPI   GL117615  12.526   8.201   6.212 -0.2483  0.0589  0.3064
 1201PYPI   GL217616  12.868   8.221   6.266 -0.0984 -0.0363  0.2169
 1201PYPI   C1A17617  12.390   8.097   6.739  0.0640  0.0229 -0.2837
 1201PYPI   C2A17618  12.400   7.776   7.102 -0.0236  0.0344  0.0366
 1201PYPI   D3A17619  12.270   7.424   7.381 -0.0835 -0.1351  0.0603
 1201PYPI   C4A17620  12.613   7.114   7.334  0.2104  0.2420 -0.1087
 1201PYPI   C1B17621  12.936   8.127   6.691 -0.0368  0.0504 -0.1664
 1201PYPI   C2B17622  12.800   8.124   7.129  0.0935  0.3626  0.2746
 1201PYPI   C3B17623  12.544   8.040   7.494 -0.2487 -0.0126  0.2923
 1201PYPI   C4B17624  12.291   8.006   7.859 -0.1209  0.0576 -0.1266
 1202PYPI    C117625   9.057   3.350   5.317 -0.1761 -0.1879 -0.0489
 1202PYPI    C217626   8.826   3.540   5.051 -0.0535  0.0500  0.0117
 1202PYPI    C317627   9.169   3.370   4.934 -0.0298  0.1016  0.0060
 1202PYPI   PO417628   9.061   3.582   5.585  0.1598  0.1344 -0.0111
 1202PYPI   GL117629   9.259   3.627   5.948 -0.0435  0.0776  0.0594
 1202PYPI   GL217630   9.543   3.613   6.022 -0.3419  0.0235  0.0050
 1202PYPI   C1A17631   9.172   3.588   6.352  0.1572  0.0263 -0.0119
 1202PYPI   C2A17632   9.094   3.699   6.722  0.1356 -0.0336 -0.1911
 1202PYPI   D3A17633   9.186   3.348   7.059  0.1404  0.2644  0.3726
 1202PYPI   C4A17634   9.300   3.386   7.452  0.0095  0.0849 -0.0494
 1202PYPI   C1B17635   9.535   3.882   6.453  0.0790 -0.0774 -0.0905
 1202PYPI   C2B17636   9.640   4.018   6.831 -0.0201  0.0845 -0.1395
 1202PYPI   C3B17637   9.589   4.207   7.242 -0.0762 -0.0420  0.2317
 1202PYPI   C4B17638   9.561   4.291   7.732 -0.3843 -0.2063  0.0429
 1203PYPI    C117639   0.665   6.905   5.331  0.1906  0.0814 -0.1761
 1203PYPI    C217640   1.045   6.887   5.454  0.2305 -0.0340 -0.3131
 1203PYPI    C317641   0.963   6.949   5.068  0.1080  0.1471 -0.2594
 1203PYPI   PO417642   0.631   7.132   5.556  0.0043  0.0584 -0.3250
 1203PYPI   GL117643   0.446   7.289   5.858 -0.1426 -0.1563 -0.1613
 1203PYPI   GL217644   0.745   7.402   5.997 -0.0979  0.2838  0.0190
 1203PYPI   C1A17645   0.161   7.105   6.209 -0.1719  0.3163 -0.2426
 1203PYPI   C2A17646   0.167   7.248   6.651  0.0894  0.0457 -0.1038
 1203PYPI   D3A17647   0.316   6.988   7.041  0.0296  0.0593  0.2024
 1203PYPI   C4A17648   0.235   6.926   7.562  0.1294  0.4975 -0.1117
 1203PYPI   C1B17649   0.666   7.354   6.396 -0.3590  0.0981 -0.0552
 1203PYPI   C2B17650   0.643   7.288   6.768  0.0688 -0.1954  0.0115
 1203PYPI   C3B17651   0.605   7.375   7.198 -0.3944 -0.1240 -0.1918
 1203PYPI   C4B17652   0.666   7.144   7.623  0.3968 -0.1905  0.0742
 1204PYPI    C117653  12.639  15.606   6.169 -0.0252 -0.0745 -0.2444
 1204PYPI    C217654  12.877  15.774   5.895 -0.0852 -0.0457 -0.2790
 1204PYPI    C317655  12.677  15.439   5.807 -0.0377 -0.0839 -0.2413
 1204PYPI   PO417656  12.730  15.497   6.340  0.0197 -0.0355  0.0982
 1204PYPI   GL117657  12.837  15.397   6.790  0.2064  0.0023 -0.0088
 1204PYPI   GL217658  13.125  15.413   6.636 -0.3387 -0.0644 -0.2389
 1204PYPI   C1A17659  12.675  15.485   7.196 -0.0178  0.2221 -0.1490
 1204PYPI   C2A17660  12.605  15.448   7.621  0.0163  0.2995  0.0319
 1204PYPI   D3A17661  12.385  15.400   7.945 -0.2483  0.2268 -0.1306
 1204PYPI   C4A17662  11.925  15.552   7.839  0.0805  0.0408 -0.0749
 1204PYPI   C1B17663  13.310  15.375   7.113 -0.1131 -0.0088 -0.0485
 1204PYPI   C2B17664  13.544  15.323   7.475  0.1028 -0.0989 -0.1173
 1204PYPI   C3B17665  13.928  15.062   7.532 -0.1761  0.0241 -0.0780
 1204PYPI   C4B17666  14.325  15.288   7.846  0.1884 -0.0238 -0.0234
 1205PYPI    C117667  12.576  14.650   5.805 -0.1726  0.0361  0.1304
 1205PYPI    C217668  12.780  14.964   5.667 -0.0922 -0.0689  0.0077
 1205PYPI    C317669  12.393  14.923   5.577 -0.0772 -0.0589 -0.0624
 1205PYPI   PO417670  12.719  14.715   6.112 -0.0234  0.1320 -0.0891
 1205PYPI   GL117671  12.637  14.459   6.502  0.1448 -0.0512 -0.2389
 1205PYPI   GL217672  12.310  14.674   6.459 -0.0818 -0.0622 -0.1189
 1205PYPI   C1A17673  12.400  14.320   6.941 -0.0806 -0.1972  0.2167
 1205PYPI   C2A17674  12.445  14.253   7.349 -0.1525  0.1439  0.0098
 1205PYPI   D3A17675  12.203  13.881   7.510 -0.2023 -0.1664  0.1465
 1205PYPI   C4A17676  12.213  13.807   7.954 -0.1499 -0.1113 -0.0625
 1205PYPI   C1B17677  12.473  14.866   6.885 -0.0475 -0.0993  0.0719
 1205PYPI   C2B17678  12.537  14.942   7.253  0.1095 -0.3230  0.0377
 1205PYPI   C3B17679  12.649  14.951   7.726 -0.1669 -0.1309 -0.0124
 1205PYPI   C4B17680  12.382  15.003   8.271 -0.1975  0.5355 -0.3114
 1206PYPI    C117681   7.449  14.721   5.387  0.1625 -0.0164 -0.0972
 1206PYPI    C217682   7.373  14.669   4.998  0.0131  0.1573 -0.0929
 1206PYPI    C317683   7.745  14.751   5.120  0.0237  0.3029 -0.2205
 1206PYPI   PO417684   7.272  14.966   5.520  0.1528 -0.3395 -0.0542
 1206PYPI   GL117685   7.242  15.060   5.905 -0.4638 -0.2010  0.2201
 1206PYPI   GL217686   7.388  15.204   6.117  0.0908  0.1059  0.1705
 1206PYPI   C1A17687   7.042  14.923   6.258 -0.0376  0.0244  0.0813
 1206PYPI   C2A17688   6.829  14.981   6.735  0.0144 -0.1779 -0.0202
 1206PYPI   D3A17689   6.629  15.058   7.111  0.0158 -0.0707 -0.0830
 1206PYPI   C4A17690   6.361  14.904   7.439 -0.2568 -0.1457  0.0145
 1206PYPI   C1B17691   7.448  15.210   6.595  0.1148 -0.0517 -0.0501
 1206PYPI   C2B17692   7.349  15.105   7.024 -0.0342 -0.2840  0.0143
 1206PYPI   C3B17693   7.076  15.126   7.338 -0.0815 -0.0325 -0.1714
 1206PYPI   C4B17694   6.897  14.984   7.668  0.0970 -0.0259  0.1815
 1207PYPI    C117695   6.951   8.325   5.166  0.0239  0.0743 -0.2431
 1207PYPI    C217696   7.111   8.611   4.937 -0.0118  0.1280 -0.2013
 1207PYPI    C317697   6.720   8.617   5.020  0.0156  0.1544 -0.0726
 1207PYPI   PO417698   7.108   8.280   5.344 -0.1113  0.2632 -0.1461
 1207PYPI   GL117699   7.285   8.515   5.707 -0.1365 -0.0448 -0.0028
 1207PYPI   GL217700   6.970   8.607   5.910  0.2270  0.0989  0.1989
 1207PYPI   C1A17701   7.770   8.559   5.873 -0.1696  0.4309 -0.0516
 1207PYPI   C2A17702   7.884   8.770   6.245 -0.0258  0.1367  0.0022
 1207PYPI   D3A17703   7.737   9.086   6.596  0.0591  0.2117 -0.1239
 1207PYPI   C4A17704   7.336   9.141   6.807  0.0825 -0.0848 -0.4180
 1207PYPI   C1B17705   6.856   8.267   6.144 -0.4061 -0.2012  0.1797
 1207PYPI   C2B17706   6.765   8.222   6.548 -0.2620 -0.2087  0.2061
 1207PYPI   C3B17707   6.942   8.283   6.927 -0.0453 -0.0599 -0.0509
 1207PYPI   C4B17708   7.344   8.332   7.113  0.1287  0.0324  0.0154
 1208PYPI    C117709   1.492   4.319   5.096 -0.0507  0.1410 -0.0177
 1208PYPI    C217710   1.799   4.560   5.008  0.2489 -0.3284 -0.3027
 1208PYPI    C317711   1.472   4.559   4.777  0.1304 -0.0061 -0.1421
 1208PYPI   PO417712   1.393   4.406   5.402  0.0333  0.2575  0.1313
 1208PYPI   GL117713   1.453   4.311   5.841 -0.1081  0.3687 -0.0108
 1208PYPI   GL217714   1.087   4.299   5.894 -0.0385 -0.0040  0.0007
 1208PYPI   C1A17715   1.560   4.538   6.212 -0.1571  0.1336 -0.0579
 1208PYPI   C2A17716   1.685   4.609   6.583  0.1396  0.1494 -0.2440
 1208PYPI   D3A17717   1.772   4.602   7.018  0.0878  0.0660 -0.1365
 1208PYPI   C4A17718   1.480   4.355   7.094 -0.0980 -0.1666 -0.0262
 1208PYPI   C1B17719   1.068   4.333   6.331  0.5062 -0.1685  0.2451
 1208PYPI   C2B17720   1.276   4.247   6.674 -0.0467 -0.0510 -0.1732
 1208PYPI   C3B17721   1.108   4.071   7.065  0.1460  0.0923  0.0585
 1208PYPI   C4B17722   0.921   4.180   7.405  0.0111  0.0875 -0.0351
 1209PYPI    C117723  16.186   8.647   5.494 -0.2307 -0.0168 -0.1611
 1209PYPI    C217724  15.900   8.668   5.215 -0.0301  0.2493 -0.3511
 1209PYPI    C317725  16.284   8.650   5.107  0.0243 -0.2486 -0.1008
 1209PYPI   PO417726  16.161   8.814   5.664 -0.0473 -0.1500 -0.0871
 1209PYPI   GL117727  16.369   8.686   6.085 -0.1868  0.0247  0.1361
 1209PYPI   GL217728  16.484   8.482   5.856  0.1035  0.0569 -0.1617
 1209PYPI   C1A17729  16.076   8.488   6.422  0.0435 -0.0786  0.0030
 1209PYPI   C2A17730  15.866   8.467   6.841  0.1464 -0.1211  0.2817
 1209PYPI   D3A17731  15.617   8.351   7.142 -0.2857 -0.3202  0.0615
 1209PYPI   C4A17732  15.622   8.028   7.398 -0.2254 -0.2730  0.0521
 1209PYPI   C1B17733  16.568   8.295   6.347 -0.0832 -0.1020  0.0380
 1209PYPI   C2B17734  16.494   8.256   6.724  0.3592 -0.1872  0.1033
 1209PYPI   C3B17735  16.710   7.958   7.034  0.0045 -0.0908  0.0544
 1209PYPI   C4B17736  16.832   7.782   7.538  0.0535  0.1987  0.0960
 1210PYPI    C117737  13.790   9.163   5.676 -0.1211 -0.0138  0.0358
 1210PYPI    C217738  13.557   8.838   5.659 -0.1261  0.0023 -0.2450
 1210PYPI    C317739  13.734   8.975   5.328  0.1128  0.1154 -0.0735
 1210PYPI   PO417740  13.636   9.330   5.790 -0.2760 -0.0057 -0.1533
 1210PYPI   GL117741  13.625   9.409   6.226  0.1755 -0.1876  0.1889
 1210PYPI   GL217742  13.889   9.460   6.188  0.1931  0.1226  0.1919
 1210PYPI   C1A17743  13.586   9.559   6.715 -0.2217 -0.2592  0.3457
 1210PYPI   C2A17744  13.624   9.573   7.161  0.3010  0.2459  0.1870
 1210PYPI   D3A17745  13.679   9.633   7.521  0.1078 -0.0650 -0.3700
 1210PYPI   C4A17746  13.655   9.727   8.004 -0.0168 -0.1406  0.3028
 1210PYPI   C1B17747  14.016   9.230   6.550  0.0684 -0.2553  0.1264
 1210PYPI   C2B17748  13.999   9.233   6.892  0.2638 -0.1121  0.1897
 1210PYPI   C3B17749  13.927   9.244   7.298 -0.1496 -0.0081 -0.2359
 1210PYPI   C4B17750  13.793   9.132   7.651 -0.1711 -0.1499  0.2434
 1211PYPI    C117751  12.519  12.376   5.615  0.3823 -0.0822 -0.1653
 1211PYPI    C217752  12.723  12.697   5.494  0.1700  0.0824 -0.0940
 1211PYPI    C317753  12.503  12.489   5.232  0.1717  0.0962 -0.1063
 1211PYPI   PO417754  12.709  12.419   5.913 -0.1639  0.3109  0.1703
 1211PYPI   GL117755  12.662  12.457   6.254  0.2580  0.1244  0.1165
 1211PYPI   GL217756  12.337  12.279   6.430  0.0594  0.0658  0.3179
 1211PYPI   C1A17757  12.628  12.626   6.638  0.0297  0.2747 -0.1274
 1211PYPI   C2A17758  12.490  12.589   6.976 -0.1626 -0.5275 -0.2162
 1211PYPI   D3A17759  12.152  12.553   7.193 -0.1226  0.1650  0.0362
 1211PYPI   C4A17760  12.043  12.831   7.423  0.3665 -0.3974  0.3520
 1211PYPI   C1B17761  12.313  12.084   6.781  0.1100 -0.4718 -0.4368
 1211PYPI   C2B17762  12.386  12.026   7.240  0.1074 -0.0369  0.1668
 1211PYPI   C3B17763  12.212  12.187   7.560 -0.1165  0.1607  0.1203
 1211PYPI   C4B17764  12.093  12.517   7.823  0.0304  0.1918  0.0796
 1212PYPI    C117765   4.316  14.139   5.097  0.1666  0.1597 -0.0226
 1212PYPI    C217766   4.386  13.781   4.933  0.1475  0.0549  0.1938
 1212PYPI    C317767   4.127  14.032   4.762 -0.0527 -0.1491  0.1936
 1212PYPI   PO417768   4.264  14.122   5.333 -0.3580 -0.0399 -0.0704
 1212PYPI   GL117769   4.311  14.287   5.711 -0.1939 -0.0436  0.0751
 1212PYPI   GL217770   4.522  14.012   5.753 -0.1759  0.0971  0.2049
 1212PYPI   C1A17771   4.168  14.516   6.066  0.2045  0.0911 -0.0469
 1212PYPI   C2A17772   4.387  14.726   6.459  0.1213  0.4252 -0.0334
 1212PYPI   D3A17773   4.643  15.102   6.708  0.0289 -0.1282  0.0507
 1212PYPI   C4A17774   4.574  15.016   7.220  0.2490 -0.2710  0.3048
 1212PYPI   C1B17775   4.725  13.873   6.130 -0.1794  0.0198  0.1289
 1212PYPI   C2B17776   4.786  13.752   6.472 -0.1755  0.2281 -0.0752
 1212PYPI   C3B17777   4.815  13.872   6.833  0.0822 -0.0833  0.0188
 1212PYPI   C4B17778   4.830  13.610   7.223  0.1736 -0.1159 -0.3514
 1213PYPI    C117779   6.485   7.501   5.608  0.1094 -0.0624 -0.1344
 1213PYPI    C217780   6.556   7.503   5.214 -0.0905 -0.0874 -0.1716
 1213PYPI    C317781   6.313   7.777   5.375 -0.1968 -0.2214 -0.1018
 1213PYPI   PO417782   6.481   7.216   5.663  0.1001  0.2671  0.1862
 1213PYPI   GL117783   6.283   7.012   5.927  0.1840 -0.2010  0.0939
 1213PYPI   GL217784   6.382   6.720   5.832 -0.1974 -0.0865  0.0676
 1213PYPI   C1A17785   6.277   7.092   6.400 -0.2214 -0.2359  0.0409
 1213PYPI   C2A17786   6.311   7.064   6.781 -0.0073 -0.0767 -0.3717
 1213PYPI   D3A17787   6.193   6.992   7.128  0.0159 -0.1262  0.2862
 1213PYPI   C4A17788   5.953   6.880   7.491 -0.3746  0.0186 -0.0928
 1213PYPI   C1B17789   6.513   6.649   6.265  0.0534 -0.0455  0.1715
 1213PYPI   C2B17790   6.504   6.608   6.701  0.3057 -0.0156 -0.1392
 1213PYPI   C3B17791   6.534   6.688   7.088 -0.3206 -0.1459 -0.0952
 1213PYPI   C4B17792   6.721   6.729   7.547  0.0796 -0.0806  0.3804
 1214ERGO   ROH17793   4.124  16.875   5.933  0.1211  0.1741 -0.0175
 1214ERGO    R117794   3.947  16.901   6.152  0.0561  0.3092 -0.0853
 1214ERGO    R217795   4.001  16.792   6.401 -0.2457  0.0232 -0.1394
 1214ERGO    R317796   3.958  17.047   6.486  0.1489  0.0401  0.0323
 1214ERGO    R417797   3.996  16.892   6.731 -0.2159 -0.2137 -0.0647
 1214ERGO    R517798   3.828  17.022   6.685  0.0193  0.1100 -0.0428
 1214ERGO    C117799   3.953  17.189   7.004  0.1719 -0.3358  0.1401
 1214ERGO    C217800   3.965  17.233   7.395 -0.0685  0.0457  0.1592
 1215ERGO   ROH17801   3.755   6.211   9.731 -0.1326 -0.2275  0.0980
 1215ERGO    R117802   3.937   6.134   9.528 -0.0699 -0.0717  0.0926
 1215ERGO    R217803   3.914   5.896   9.390  0.1352 -0.1011  0.0955
 1215ERGO    R317804   3.920   6.059   9.172 -0.0203 -0.0937  0.0964
 1215ERGO    R417805   3.973   5.790   9.066  0.0398 -0.0595  0.0648
 1215ERGO    R517806   4.095   5.968   9.036 -0.0462 -0.0153  0.0178
 1215ERGO    C117807   4.013   5.881   8.673 -0.1618 -0.0284  0.0479
 1215ERGO    C217808   4.150   5.822   8.439  0.2373 -0.5789  0.0501
 1216ERGO   ROH17809   7.251   7.155   9.837  0.1089 -0.2755  0.0333
 1216ERGO    R117810   7.276   6.988   9.610  0.2740 -0.1312 -0.0566
 1216ERGO    R217811   7.072   6.957   9.425  0.2351 -0.3704  0.0291
 1216ERGO    R317812   7.265   7.030   9.248  0.0388  0.0246 -0.0355
 1216ERGO    R417813   7.057   6.906   9.084  0.2671 -0.5143  0.0479
 1216ERGO    R517814   7.268   6.853   9.087  0.4055 -0.0317  0.0196
 1216ERGO    C117815   7.230   6.945   8.719  0.1015 -0.2273 -0.0019
 1216ERGO    C217816   7.004   7.033   8.474  0.1980 -0.4085 -0.1943
 1217ERGO   ROH17817   8.298   3.000   9.813 -0.1786 -0.0786  0.0806
 1217ERGO    R117818   8.429   3.020   9.563 -0.2575 -0.0428  0.0422
 1217ERGO    R217819   8.702   2.985   9.535 -0.2421  0.1392 -0.0202
 1217ERGO    R317820   8.627   2.801   9.350 -0.1611  0.0464  0.0378
 1217ERGO    R417821   8.847   2.947   9.224 -0.2969  0.1857 -0.0522
 1217ERGO    R517822   8.649   2.915   9.140 -0.3006  0.0248  0.0082
 1217ERGO    C117823   8.861   2.752   8.869 -0.2529  0.1257 -0.0165
 1217ERGO    C217824   8.915   2.637   8.572  0.0678  0.2187 -0.1776
 1218ERGO   ROH17825   0.850   6.868   5.923 -0.1867 -0.1429  0.0160
 1218ERGO    R117826   0.720   6.904   6.172 -0.2798 -0.2092 -0.0222
 1218ERGO    R217827   0.519   6.737   6.260 -0.0414 -0.4729  0.0348
 1218ERGO    R317828   0.679   6.714   6.479 -0.0330 -0.1146  0.0717
 1218ERGO    R417829   0.415   6.623   6.570  0.0694 -0.3949  0.1008
 1218ERGO    R517830   0.539   6.777   6.662 -0.1385 -0.1680  0.0105
 1218ERGO    C117831   0.505   6.536   6.956  0.1418 -0.0132  0.1739
 1218ERGO    C217832   0.385   6.520   7.213 -0.1635 -0.2445 -0.0575
 1219ERGO   ROH17833  15.933  16.333   6.097 -0.0185 -0.0469 -0.0393
 1219ERGO    R117834  15.989  16.537   6.284 -0.3413 -0.0632  0.0775
 1219ERGO    R217835  15.901  16.527   6.546  0.0313 -0.5744  0.1810
 1219ERGO    R317836  16.165  16.563   6.602  0.0246  0.1232 -0.1280
 1219ERGO    R417837  16.024  16.653   6.844  0.0115 -0.8844  0.3260
 1219ERGO    R517838  16.170  16.767   6.729 -0.4775 -0.1184  0.3500
 1219ERGO    C117839  16.342  16.760   7.069 -0.0061 -0.4101  0.1202
 1219ERGO    C217840  16.200  16.813   7.320 -0.1989 -0.2277  0.0690
 1220ERGO   ROH17841   1.400  11.707   5.954 -0.1760  0.2406  0.0445
 1220ERGO    R117842   1.463  11.794   6.216 -0.0652  0.0778  0.0734
 1220ERGO    R217843   1.285  11.937   6.372  0.0570  0.1164  0.1780
 1220ERGO    R317844   1.334  11.739   6.551 -0.0286  0.0002  0.0749
 1220ERGO    R417845   1.244  11.966   6.714  0.2374  0.0117  0.2102
 1220ERGO    R517846   1.427  11.852   6.741  0.1545 -0.1565  0.0803
 1220ERGO    C117847   1.265  11.796   7.081  0.2621 -0.1583  0.1322
 1220ERGO    C217848   1.234  11.738   7.478 -0.0761 -0.4002 -0.3079
 1221ERGO   ROH17849   2.280   5.086   9.652  0.0053  0.1056 -0.2235
 1221ERGO    R117850   2.512   5.109   9.491  0.0068  0.0948 -0.2218
 1221ERGO    R217851   2.621   4.893   9.356  0.1205  0.0438 -0.0476
 1221ERGO    R317852   2.596   5.058   9.141  0.0598 -0.1318 -0.1781
 1221ERGO    R417853   2.814   4.875   9.069  0.1814 -0.0612 -0.0014
 1221ERGO    R517854   2.821   5.093   9.066  0.0539 -0.0563 -0.1644
 1221ERGO    C117855   2.902   5.019   8.701  0.1599 -0.2871 -0.0971
 1221ERGO    C217856   3.009   5.167   8.370 -0.2234  0.0263  0.1367
 1222ERGO   ROH17857  11.777  15.940  10.224  0.1107  0.0948  0.0817
 1222ERGO    R117858  11.983  15.979  10.034  0.1002  0.0702  0.0648
 1222ERGO    R217859  12.084  15.772   9.880  0.0711  0.0547  0.0626
 1222ERGO    R317860  12.023  15.939   9.674  0.0683  0.0544  0.0637
 1222ERGO    R417861  12.214  15.749   9.561 -0.0046  0.0041  0.0353
 1222ERGO    R517862  12.229  15.966   9.556  0.0469 -0.0024  0.0167
 1222ERGO    C117863  12.233  15.892   9.182 -0.0513 -0.0256  0.0203
 1222ERGO    C217864  12.358  15.584   9.062  0.2304 -0.0639  0.3687
 1223ERGO   ROH17865   1.318   2.029   5.894 -0.1141 -0.0749 -0.0935
 1223ERGO    R117866   1.311   1.926   6.158 -0.0525 -0.0949 -0.0996
 1223ERGO    R217867   1.204   2.067   6.370  0.0680 -0.0779 -0.0488
 1223ERGO    R317868   1.055   1.841   6.402  0.0075 -0.0334 -0.0152
 1223ERGO    R417869   1.112   1.934   6.675  0.1515 -0.0869 -0.0273
 1223ERGO    R517870   1.151   1.735   6.595  0.0525 -0.0893 -0.0687
 1223ERGO    C117871   0.919   1.645   6.884  0.1433 -0.0503  0.0167
 1223ERGO    C217872   0.864   1.525   7.128 -0.1351 -0.0375 -0.0961
 1224ERGO   ROH17873   7.464   2.473   5.724  0.0646 -0.0519  0.0140
 1224ERGO    R117874   7.469   2.419   6.002  0.1010 -0.0252  0.0181
 1224ERGO    R217875   7.474   2.619   6.193  0.1906 -0.0082 -0.0044
 1224ERGO    R317876   7.256   2.488   6.289  0.1728  0.0610  0.0519
 1224ERGO    R417877   7.341   2.663   6.509  0.1851  0.1633 -0.0292
 1224ERGO    R517878   7.308   2.447   6.519  0.1621  0.1692  0.0755
 1224ERGO    C117879   7.059   2.565   6.783  0.1652  0.3282  0.0093
 1224ERGO    C217880   7.122   2.622   7.110 -0.0179 -0.1819  0.3235
 1225ERGO   ROH17881   0.936  16.125   9.877 -0.2730  0.3183  0.0598
 1225ERGO    R117882   0.862  16.255   9.637 -0.0203  0.1884 -0.0928
 1225ERGO    R217883   1.002  16.221   9.401  0.0356 -0.2031 -0.0125
 1225ERGO    R317884   0.757  16.154   9.303 -0.0121  0.0040 -0.0404
 1225ERGO    R417885   0.929  16.174   9.066  0.0878 -0.3533 -0.0032
 1225ERGO    R517886   0.739  16.277   9.098  0.1906 -0.1157 -0.1325
 1225ERGO    C117887   0.657  16.083   8.780  0.0735 -0.2463 -0.0241
 1225ERGO    C217888   0.595  15.983   8.420 -0.1565 -0.2028 -0.1619
 1226ERGO   ROH17889  12.284   6.284   9.886 -0.0853 -0.0674 -0.0687
 1226ERGO    R117890  12.417   6.370   9.651 -0.0865 -0.0041 -0.0460
 1226ERGO    R217891  12.434   6.214   9.424 -0.0918  0.0604 -0.0882
 1226ERGO    R317892  12.327   6.434   9.305 -0.0879  0.0952 -0.0283
 1226ERGO    R417893  12.438   6.277   9.084 -0.1159  0.1333 -0.0754
 1226ERGO    R517894  12.480   6.486   9.128 -0.0971  0.1232 -0.0307
 1226ERGO    C117895  12.340   6.520   8.774 -0.1261  0.2084 -0.0116
 1226ERGO    C217896  12.282   6.410   8.474  0.1460 -0.1353  0.0250
 1227ERGO   ROH17897   3.910   2.263   5.946 -0.1432  0.2254 -0.0353
 1227ERGO    R117898   3.878   2.144   6.202 -0.0307  0.1052 -0.0749
 1227ERGO    R217899   4.055   2.188   6.409 -0.0859  0.2292 -0.0475
 1227ERGO    R317900   3.830   2.261   6.543 -0.1764 -0.0550 -0.0406
 1227ERGO    R417901   4.006   2.151   6.749 -0.0222  0.1962 -0.0426
 1227ERGO    R517902   3.801   2.090   6.708  0.0552 -0.0774 -0.0243
 1227ERGO    C117903   3.766   2.197   7.073 -0.0701 -0.0898 -0.0332
 1227ERGO    C217904   3.849   2.109   7.355 -0.2281  0.2379  0.1172
 1228ERGO   ROH17905  17.626  11.827   9.826  0.0205 -0.0744 -0.1942
 1228ERGO    R117906  17.494  11.860   9.578  0.0305  0.0254 -0.1867
 1228ERGO    R217907  17.392  12.103   9.494  0.1047  0.0760 -0.1285
 1228ERGO    R317908  17.545  12.055   9.275  0.0896  0.0827 -0.1404
 1228ERGO    R417909  17.283  12.129   9.168  0.0533 -0.0057 -0.1180
 1228ERGO    R517910  17.396  11.949   9.120  0.0971  0.0168 -0.1037
 1228ERGO    C117911  17.363  12.099   8.771  0.0091 -0.0472 -0.1230
 1228ERGO    C217912  17.072  12.230   8.545  0.0504 -0.2646  0.1298
 1229ERGO   ROH17913   9.501  16.590  10.247 -0.0341  0.0208 -0.1521
 1229ERGO    R117914   9.561  16.375  10.073 -0.0380 -0.0389 -0.0803
 1229ERGO    R217915   9.384  16.169  10.025 -0.0301 -0.0702  0.0134
 1229ERGO    R317916   9.425  16.237   9.765 -0.0624 -0.1602 -0.0154
 1229ERGO    R417917   9.295  15.975   9.753 -0.2710 -0.0611  0.0843
 1229ERGO    R517918   9.482  16.031   9.658 -0.2587 -0.2286  0.0095
 1229ERGO    C117919   9.281  15.926   9.351 -0.4418 -0.1399  0.0983
 1229ERGO    C217920   9.098  16.083   9.114  0.2266 -0.1374  0.0369
 1230ERGO   ROH17921   3.343  13.730   9.517 -0.0572  0.0209 -0.0296
 1230ERGO    R117922   3.278  13.830   9.261 -0.0979 -0.0285 -0.0383
 1230ERGO    R217923   3.439  14.010   9.126 -0.2392  0.1310  0.0066
 1230ERGO    R317924   3.427  13.824   8.928 -0.0196  0.1284 -0.0077
 1230ERGO    R417925   3.531  14.066   8.798 -0.1546  0.2188  0.0441
 1230ERGO    R517926   3.358  13.948   8.735 -0.0423  0.0863 -0.0284
 1230ERGO    C117927   3.573  13.923   8.421  0.1007  0.2676  0.0524
 1230ERGO    C217928   3.610  13.981   8.080  0.1563  0.1338  0.0584
 1231ERGO   ROH17929   8.882   7.676   9.795 -0.0037 -0.2286  0.1805
 1231ERGO    R117930   8.838   7.690   9.516  0.0454 -0.2560  0.1710
 1231ERGO    R217931   8.667   7.518   9.383 -0.1476 -0.0918  0.2023
 1231ERGO    R317932   8.554   7.750   9.296  0.1379  0.0215  0.1220
 1231ERGO    R417933   8.614   7.599   9.051 -0.4475 -0.3484  0.1841
 1231ERGO    R517934   8.675   7.803   9.096 -0.0250 -0.3978 -0.1033
 1231ERGO    C117935   8.476   7.863   8.776 -0.3540 -0.3914  0.0981
 1231ERGO    C217936   8.425   8.061   8.518  0.2873  0.0180  0.0222
 1232ERGO   ROH17937  18.042  17.392   6.325  0.0760 -0.1512  0.1148
 1232ERGO    R117938  18.034  17.388   6.607  0.2042 -0.2072  0.1182
 1232ERGO    R217939  18.228  17.265   6.760  0.4082 -0.0167  0.0121
 1232ERGO    R317940  18.242  17.509   6.880  0.1908 -0.0189  0.0477
 1232ERGO    R417941  18.353  17.321   7.078  0.5172  0.0620 -0.0437
 1232ERGO    R517942  18.191  17.464   7.111  0.3639 -0.1268  0.0696
 1232ERGO    C117943  18.439  17.582   7.375  0.3767  0.1059 -0.0429
 1232ERGO    C217944  18.620  17.606   7.703 -0.1032 -0.0810 -0.1842
 1233ERGO   ROH17945   7.093  15.204   9.885  0.1192 -0.1916 -0.2219
 1233ERGO    R117946   6.982  15.210   9.624  0.1300 -0.2061 -0.2268
 1233ERGO    R217947   6.974  15.440   9.472 -0.0751 -0.1604 -0.1479
 1233ERGO    R317948   7.101  15.285   9.288  0.0832  0.0205 -0.1947
 1233ERGO    R417949   6.923  15.460   9.131 -0.0660 -0.0795 -0.1449
 1233ERGO    R517950   6.932  15.241   9.123  0.1338 -0.0719 -0.2239
 1233ERGO    C117951   7.013  15.325   8.759  0.0878  0.1375 -0.1870
 1233ERGO    C217952   6.985  15.504   8.478 -0.0354  0.0579  0.1030
 1234ERGO   ROH17953  17.552   9.474   9.839  0.0297  0.2019 -0.1390
 1234ERGO    R117954  17.482   9.560   9.578  0.0127  0.0555 -0.1837
 1234ERGO    R217955  17.583   9.442   9.350 -0.0393 -0.1042 -0.1245
 1234ERGO    R317956  17.320   9.415   9.286 -0.0525 -0.0935 -0.0749
 1234ERGO    R417957  17.458   9.431   9.028 -0.0897 -0.1788 -0.1027
 1234ERGO    R517958  17.291   9.554   9.094 -0.0669 -0.1420 -0.1092
 1234ERGO    C117959  17.138   9.400   8.781 -0.1316 -0.2122 -0.0434
 1234ERGO    C217960  16.962   9.378   8.559 -0.0913 -0.1807  0.1617
 1235ERGO   ROH17961  14.594   6.885   9.819 -0.1903  0.0295 -0.1140
 1235ERGO    R117962  14.645   6.924   9.543 -0.0591  0.0299 -0.0904
 1235ERGO    R217963  14.527   6.770   9.347  0.0040  0.0548 -0.1500
 1235ERGO    R317964  14.452   7.011   9.248  0.0880  0.0703 -0.1757
 1235ERGO    R417965  14.425   6.826   9.022 -0.0855  0.0319 -0.1255
 1235ERGO    R517966  14.537   7.013   9.024  0.0083 -0.0227 -0.2076
 1235ERGO    C117967  14.294   7.086   8.739 -0.0590  0.0331 -0.1354
 1235ERGO    C217968  14.260   7.027   8.324 -0.0354 -0.3269 -0.2994
 1236ERGO   ROH17969  17.411   6.272   5.654  0.1366 -0.2603  0.1365
 1236ERGO    R117970  17.466   6.349   5.922  0.1218 -0.0516  0.0820
 1236ERGO    R217971  17.456   6.612   6.006 -0.1633 -0.0121 -0.0567
 1236ERGO    R317972  17.285   6.511   6.192  0.0027 -0.1165  0.0412
 1236ERGO    R417973  17.425   6.729   6.330 -0.2386  0.1417 -0.1187
 1236ERGO    R517974  17.408   6.522   6.398  0.0349  0.1585  0.0086
 1236ERGO    C117975  17.247   6.703   6.693 -0.1263  0.1332 -0.0629
 1236ERGO    C217976  17.131   6.667   6.962  0.0568  0.0578  0.0014
 1237ERGO   ROH17977  14.443  12.918   6.172  0.1322  0.0549 -0.1252
 1237ERGO    R117978  14.557  13.010   6.414  0.1073  0.0644 -0.1194
 1237ERGO    R217979  14.404  13.073   6.636  0.0882  0.0821 -0.1488
 1237ERGO    R317980  14.571  12.897   6.760  0.0677  0.0886 -0.1072
 1237ERGO    R417981  14.438  13.041   6.978 -0.1455 -0.0379 -0.1330
 1237ERGO    R517982  14.653  13.017   6.950 -0.1073  0.0505  0.0033
 1237ERGO    C117983  14.614  12.857   7.294 -0.3009 -0.1016 -0.0847
 1237ERGO    C217984  14.788  12.870   7.610 -0.0673 -0.1665  0.0413
 1238ERGO   ROH17985   7.940  15.102   6.442 -0.3268 -0.0377  0.3249
 1238ERGO    R117986   8.060  15.129   6.697 -0.2281  0.0686  0.2705
 1238ERGO    R217987   8.332  15.167   6.731 -0.1914 -0.0137  0.1571
 1238ERGO    R317988   8.251  15.383   6.874 -0.0700  0.1032  0.0467
 1238ERGO    R417989   8.492  15.291   7.011 -0.1818  0.0032  0.1420
 1238ERGO    R517990   8.297  15.326   7.101 -0.1688  0.1785  0.0779
 1238ERGO    C117991   8.509  15.566   7.308 -0.0621  0.1228  0.0296
 1238ERGO    C217992   8.546  15.848   7.450 -0.0676  0.0623  0.0107
 1239ERGO   ROH17993   8.542   6.729   5.993 -0.2047 -0.0476  0.2325
 1239ERGO    R117994   8.565   6.888   6.226 -0.0537 -0.1223  0.2697
 1239ERGO    R217995   8.688   6.798   6.457  0.2927 -0.1211  0.0927
 1239ERGO    R317996   8.837   7.024   6.428  0.0839  0.0073  0.0025
 1239ERGO    R417997   8.875   6.946   6.707  0.4135 -0.0301 -0.0498
 1239ERGO    R517998   8.810   7.140   6.635  0.1861 -0.0642  0.0568
 1239ERGO    C117999   9.124   7.244   6.825  0.2880  0.1432 -0.2174
 1239ERGO    C218000   9.276   7.277   7.093 -0.0207  0.0164  0.1331
 1240ERGO   ROH18001  14.349   7.591   6.410  0.0062 -0.1765  0.0568
 1240ERGO    R118002  14.447   7.813   6.556  0.0272 -0.2022  0.0813
 1240ERGO    R218003  14.296   8.041   6.598  0.0972 -0.1408 -0.0065
 1240ERGO    R318004  14.353   7.992   6.859 -0.0392 -0.1396  0.0248
 1240ERGO    R418005  14.196   8.239   6.862 -0.0577 -0.1478 -0.0587
 1240ERGO    R518006  14.392   8.209   6.953 -0.1027 -0.1366  0.0468
 1240ERGO    C118007  14.191   8.308   7.262 -0.2761 -0.1508 -0.0596
 1240ERGO    C218008  14.122   8.298   7.620 -0.0265 -0.2107 -0.2028
 1241ERGO   ROH18009   0.935  14.755   9.458 -0.0693 -0.0212 -0.0539
 1241ERGO    R118010   0.972  14.642   9.201 -0.0562  0.0083 -0.0644
 1241ERGO    R218011   0.829  14.726   8.980 -0.0113  0.0635 -0.0681
 1241ERGO    R318012   1.077  14.760   8.873  0.0074  0.0333 -0.0366
 1241ERGO    R418013   0.918  14.644   8.656  0.1207 -0.3422  0.0639
 1241ERGO    R518014   1.108  14.569   8.732  0.1370 -0.1537  0.2306
 1241ERGO    C118015   1.202  14.629   8.367  0.2150 -0.6069  0.1703
 1241ERGO    C218016   1.526  14.746   8.170  0.0711 -0.2070 -0.0459
 1242ERGO   ROH18017   9.892  17.198   9.990  0.1557 -0.3385 -0.0770
 1242ERGO    R118018   9.718  17.097   9.791  0.0650 -0.2844 -0.0265
 1242ERGO    R218019   9.531  17.256   9.663  0.0158 -0.2436  0.0861
 1242ERGO    R318020   9.653  17.162   9.439 -0.0797 -0.1994  0.0159
 1242ERGO    R418021   9.395  17.264   9.346 -0.0909 -0.1363  0.1346
 1242ERGO    R518022   9.476  17.064   9.311 -0.1354 -0.1355  0.0498
 1242ERGO    C118023   9.430  17.180   8.951 -0.2427 -0.0325  0.0968
 1242ERGO    C218024   9.410  17.328   8.779  0.0927 -0.1800  0.0610
 1243ERGO   ROH18025  12.159  14.843  10.637  0.0689 -0.1708  0.0286
 1243ERGO    R118026  12.205  14.902  10.364  0.1585 -0.0447  0.0706
 1243ERGO    R218027  12.459  14.935  10.259  0.2061 -0.2792  0.1133
 1243ERGO    R318028  12.376  14.744  10.084 -0.0104 -0.0670 -0.0222
 1243ERGO    R418029  12.556  14.915   9.928  0.2144 -0.1731  0.1088
 1243ERGO    R518030  12.351  14.861   9.877  0.1480  0.1061  0.0511
 1243ERGO    C118031  12.535  14.725   9.571  0.0160  0.0877 -0.0213
 1243ERGO    C218032  12.542  14.739   9.300 -0.1186 -0.1774 -0.0059
 1244ERGO   ROH18033   6.887   6.246   6.006 -0.0920  0.0821 -0.2056
 1244ERGO    R118034   6.997   6.262   6.266 -0.0607  0.1006 -0.2202
 1244ERGO    R218035   6.962   6.482   6.430 -0.0465  0.1085 -0.2302
 1244ERGO    R318036   6.870   6.296   6.605 -0.0194  0.1174 -0.2059
 1244ERGO    R418037   7.001   6.496   6.773 -0.0183  0.1431 -0.2344
 1244ERGO    R518038   7.040   6.282   6.773 -0.0033  0.1445 -0.2186
 1244ERGO    C118039   6.937   6.330   7.137  0.0234  0.1715 -0.2141
 1244ERGO    C218040   7.028   6.392   7.448  0.1325 -0.0036  0.2533
 1245ERGO   ROH18041  10.721   1.500   8.968  0.0344 -0.0301 -0.0309
 1245ERGO    R118042  10.562   1.289   8.866  0.1517 -0.0547 -0.1678
 1245ERGO    R218043  10.294   1.261   8.929  0.1825 -0.2854 -0.1261
 1245ERGO    R318044  10.265   1.258   8.658  0.1233 -0.0805 -0.1235
 1245ERGO    R418045  10.014   1.148   8.761  0.1664 -0.2079 -0.1517
 1245ERGO    R518046  10.145   1.056   8.614  0.1512 -0.0693 -0.2537
 1245ERGO    C118047   9.823   1.078   8.410  0.1014  0.0297 -0.1641
 1245ERGO    C218048   9.448   1.052   8.390  0.1345  0.1368  0.1306
 1246ERGO   ROH18049  16.409   8.773   7.776  0.3223 -0.0445  0.3752
 1246ERGO    R118050  16.487   8.821   7.508  0.0712 -0.0320  0.3016
 1246ERGO    R218051  16.691   8.995   7.442  0.0200 -0.0431  0.1195
 1246ERGO    R318052  16.789   8.779   7.310 -0.1184 -0.0394  0.0073
 1246ERGO    R418053  16.958   9.002   7.222  0.0393 -0.1007  0.1400
 1246ERGO    R518054  16.850   8.863   7.094 -0.0488  0.0406  0.0556
 1246ERGO    C118055  17.205   8.803   6.970 -0.0792 -0.1307  0.0467
 1246ERGO    C218056  17.491   9.126   6.931  0.0980 -0.0761 -0.0377
 1247ERGO   ROH18057  11.493  11.510  10.290  0.0738  0.0183  0.0600
 1247ERGO    R118058  11.483  11.428  10.020  0.0873 -0.1767  0.1164
 1247ERGO    R218059  11.464  11.608   9.811 -0.3034 -0.3374  0.0018
 1247ERGO    R318060  11.685  11.478   9.721 -0.1220 -0.0334 -0.0026
 1247ERGO    R418061  11.576  11.612   9.484 -0.5051 -0.4559 -0.0704
 1247ERGO    R518062  11.624  11.400   9.503 -0.1163 -0.3568  0.1091
 1247ERGO    C118063  11.849  11.493   9.209 -0.4522 -0.2395 -0.1167
 1247ERGO    C218064  11.855  11.684   8.892  0.0375  0.0332 -0.2690
 1248ERGO   ROH18065   6.600  15.738   5.868 -0.0126  0.1833 -0.0138
 1248ERGO    R118066   6.659  15.685   6.140  0.0235  0.1384 -0.0307
 1248ERGO    R218067   6.828  15.844   6.288  0.0671  0.0942 -0.0378
 1248ERGO    R318068   6.616  15.857   6.458  0.0974  0.0997  0.0009
 1248ERGO    R418069   6.844  15.965   6.611  0.0743  0.3494 -0.1310
 1248ERGO    R518070   6.711  15.803   6.672  0.1809  0.3149  0.0229
 1248ERGO    C118071   6.655  16.048   6.959  0.1071  0.5030 -0.1489
 1248ERGO    C218072   6.591  16.221   7.282  0.0049  0.1173  0.0977
 1249ERGO   ROH18073   0.671  16.742   5.887  0.1379 -0.1180  0.0256
 1249ERGO    R118074   0.666  16.661   6.158  0.2530 -0.2439 -0.0099
 1249ERGO    R218075   0.435  16.660   6.309  0.3998  0.1626  0.2244
 1249ERGO    R318076   0.503  16.401   6.354 -0.0868 -0.0128  0.0239
 1249ERGO    R418077   0.294  16.459   6.552  0.3561  0.3988  0.3995
 1249ERGO    R518078   0.492  16.378   6.592  0.2623 -0.0533  0.0424
 1249ERGO    C118079   0.275  16.099   6.736 -0.1262  0.3719  0.3134
 1249ERGO    C218080   0.037  15.891   6.903 -0.1854  0.4900 -0.2050
 1250ERGO   ROH18081  11.946   1.660   9.884  0.1007 -0.0599  0.0543
 1250ERGO    R118082  11.835   1.807   9.669  0.3657  0.1134  0.0320
 1250ERGO    R218083  11.974   1.858   9.436  0.3700 -0.4303 -0.0926
 1250ERGO    R318084  11.756   1.745   9.320 -0.0366  0.0900  0.1206
 1250ERGO    R418085  11.881   1.903   9.107  0.4398 -0.5681 -0.1327
 1250ERGO    R518086  11.673   1.915   9.172  0.4639  0.1799 -0.0830
 1250ERGO    C118087  11.622   1.824   8.805  0.0985 -0.1599  0.0442
 1250ERGO    C218088  11.535   1.677   8.550  0.1558 -0.0490  0.1506
 1251ERGO   ROH18089  13.560   0.498   6.164 -0.1022 -0.1655  0.0403
 1251ERGO    R118090  13.450   0.404   6.408 -0.0990 -0.0857  0.0738
 1251ERGO    R218091  13.560   0.193   6.549 -0.0662 -0.0084  0.1706
 1251ERGO    R318092  13.562   0.374   6.753 -0.1120  0.0789  0.0928
 1251ERGO    R418093  13.508   0.117   6.882  0.1555  0.0894  0.2287
 1251ERGO    R518094  13.389   0.298   6.901  0.0194  0.0025  0.2074
 1251ERGO    C118095  13.479   0.241   7.267  0.2416  0.2283  0.1894
 1251ERGO    C218096  13.692   0.134   7.483 -0.1115  0.0229 -0.3043
 1252ERGO   ROH18097  16.693   8.272   9.889 -0.1653 -0.0627 -0.0208
 1252ERGO    R118098  16.756   8.307   9.615 -0.2904  0.1480 -0.0249
 1252ERGO    R218099  16.886   8.113   9.468 -0.0759  0.3863 -0.1502
 1252ERGO    R318100  16.673   8.142   9.301 -0.1649  0.1797 -0.0767
 1252ERGO    R418101  16.851   7.955   9.162 -0.1104  0.2074 -0.0559
 1252ERGO    R518102  16.768   8.140   9.082 -0.2522  0.1229 -0.1178
 1252ERGO    C118103  16.631   7.890   8.828 -0.2142 -0.0909  0.0682
 1252ERGO    C218104  16.583   7.579   8.585 -0.1662  0.0604  0.0497
 1253ERGO   ROH18105  13.762  15.678   6.417 -0.3363 -0.1086 -0.0031
 1253ERGO    R118106  13.746  15.814   6.664 -0.3640 -0.0387 -0.0424
 1253ERGO    R218107  13.519  15.811   6.821 -0.2879 -0.2374  0.0742
 1253ERGO    R318108  13.692  15.725   7.013 -0.0903  0.0173  0.0159
 1253ERGO    R418109  13.488  15.876   7.159 -0.2280 -0.2362  0.0791
 1253ERGO    R518110  13.704  15.906   7.168 -0.2643  0.0524 -0.0143
 1253ERGO    C118111  13.632  15.833   7.536 -0.0076  0.0036  0.0271
 1253ERGO    C218112  13.463  15.735   7.811  0.1014 -0.3816  0.0884
 1254ERGO   ROH18113   7.762  13.517   9.710  0.2129  0.1286 -0.0573
 1254ERGO    R118114   7.744  13.593   9.438  0.0066 -0.0359 -0.0920
 1254ERGO    R218115   7.967  13.632   9.279 -0.0943  0.3301 -0.1533
 1254ERGO    R318116   7.843  13.452   9.117  0.2233 -0.0010 -0.0422
 1254ERGO    R418117   7.999  13.622   8.935 -0.3374  0.3982 -0.1799
 1254ERGO    R518118   7.785  13.579   8.921 -0.2541 -0.1451 -0.0090
 1254ERGO    C118119   7.902  13.448   8.582 -0.1810  0.1271 -0.0911
 1254ERGO    C218120   8.137  13.365   8.455  0.1368 -0.0187 -0.1535
 1255ERGO   ROH18121   5.429   3.872   9.748  0.0147  0.0375 -0.0437
 1255ERGO    R118122   5.263   3.781   9.537 -0.0852  0.0728  0.0193
 1255ERGO    R218123   5.135   3.953   9.364 -0.0387  0.0983  0.0114
 1255ERGO    R318124   5.260   3.805   9.174 -0.1632 -0.0122  0.0138
 1255ERGO    R418125   5.011   3.893   9.047 -0.0136  0.3424 -0.0474
 1255ERGO    R518126   5.083   3.688   9.064 -0.2798  0.2420 -0.0776
 1255ERGO    C118127   5.056   3.718   8.684 -0.1158  0.3806 -0.0797
 1255ERGO    C218128   5.116   3.729   8.353 -0.0576  0.0373 -0.0022
 1256ERGO   ROH18129  17.055  10.333   9.708  0.3528 -0.0041 -0.1188
 1256ERGO    R118130  16.907  10.406   9.479  0.1650  0.2081  0.0642
 1256ERGO    R218131  17.005  10.579   9.287  0.1656  0.0928 -0.0480
 1256ERGO    R318132  16.944  10.375   9.118 -0.3137  0.1755  0.0124
 1256ERGO    R418133  17.060  10.583   8.946  0.2462 -0.1677 -0.0396
 1256ERGO    R518134  16.867  10.484   8.919 -0.0034  0.3019 -0.0400
 1256ERGO    C118135  17.034  10.394   8.588 -0.1566 -0.2416  0.0218
 1256ERGO    C218136  16.979  10.257   8.261 -0.1312 -0.0066 -0.0764
 1257ERGO   ROH18137   2.170   7.103   9.598  0.2540  0.0120 -0.1287
 1257ERGO    R118138   2.017   6.954   9.413  0.0700  0.0227  0.0117
 1257ERGO    R218139   1.858   7.073   9.221  0.0576  0.0352  0.0307
 1257ERGO    R318140   2.001   6.917   9.051 -0.1229 -0.1381  0.0339
 1257ERGO    R418141   1.785   7.027   8.887 -0.0813  0.0006  0.0654
 1257ERGO    R518142   1.836   6.817   8.909 -0.2532 -0.0398  0.1117
 1257ERGO    C118143   1.877   6.854   8.532 -0.3317 -0.1822  0.0886
 1257ERGO    C218144   1.869   6.826   8.225 -0.0518 -0.2675 -0.1188
 1258ERGO   ROH18145   8.678   0.736   6.309 -0.2045 -0.1876  0.0597
 1258ERGO    R118146   8.607   0.786   6.579  0.0319 -0.3476  0.1570
 1258ERGO    R218147   8.711   0.640   6.790  0.5202 -0.2285  0.0244
 1258ERGO    R318148   8.779   0.886   6.883  0.2441 -0.1289 -0.0350
 1258ERGO    R418149   8.701   0.737   7.121  0.1957 -0.0574 -0.0321
 1258ERGO    R518150   8.623   0.929   7.059  0.0871 -0.1627 -0.1772
 1258ERGO    C118151   8.759   1.024   7.402 -0.2524  0.1357 -0.1208
 1258ERGO    C218152   8.817   1.213   7.707 -0.2890 -0.2447  0.3854
 1259ERGO   ROH18153   2.857   2.001   5.947  0.2152  0.2214 -0.1320
 1259ERGO    R118154   2.864   2.177   6.169  0.0224  0.1688 -0.0831
 1259ERGO    R218155   2.635   2.279   6.285 -0.0820 -0.0014 -0.1473
 1259ERGO    R318156   2.743   2.175   6.512 -0.1099  0.0102 -0.1275
 1259ERGO    R418157   2.595   2.412   6.601  0.0644  0.1581 -0.1938
 1259ERGO    R518158   2.805   2.367   6.641  0.0476  0.0266 -0.2161
 1259ERGO    C118159   2.673   2.392   6.999  0.1234  0.2618 -0.2024
 1259ERGO    C218160   2.559   2.515   7.245  0.0971 -0.1965 -0.1441
 1260ERGO   ROH18161   4.529   9.137   9.920 -0.2296  0.1249 -0.1182
 1260ERGO    R118162   4.516   9.076   9.644 -0.1574  0.0707 -0.1102
 1260ERGO    R218163   4.494   9.271   9.449  0.0335  0.0424 -0.1652
 1260ERGO    R318164   4.714   9.148   9.347  0.0033 -0.1117 -0.0482
 1260ERGO    R418165   4.547   9.207   9.113  0.1571 -0.0394 -0.1309
 1260ERGO    R518166   4.629   9.013   9.168  0.0064 -0.0813 -0.0682
 1260ERGO    C118167   4.785   9.054   8.822  0.2007 -0.2317 -0.0010
 1260ERGO    C218168   4.921   9.158   8.495  0.0810  0.0085  0.0265
 1261ERGO   ROH18169  17.365   2.449   9.867 -0.1575  0.1419  0.0682
 1261ERGO    R118170  17.288   2.679   9.721 -0.1773  0.0959  0.0076
 1261ERGO    R218171  17.315   2.698   9.447 -0.1531  0.0352  0.0092
 1261ERGO    R318172  17.050   2.757   9.457 -0.1635  0.0011 -0.0341
 1261ERGO    R418173  17.127   2.802   9.177 -0.1157  0.0351 -0.0181
 1261ERGO    R518174  17.026   2.944   9.309 -0.1586  0.0125 -0.0231
 1261ERGO    C118175  16.768   2.919   9.029 -0.1040  0.0030 -0.0748
 1261ERGO    C218176  16.757   2.952   8.696  0.0149 -0.0650  0.0758
 1262ERGO   ROH18177   8.375  18.166  10.135  0.1567  0.0999 -0.0671
 1262ERGO    R118178   8.291  18.128   9.867 -0.0025 -0.0090 -0.0019
 1262ERGO    R218179   8.070  18.255   9.760  0.0915  0.1518  0.0053
 1262ERGO    R318180   8.248  18.334   9.571  0.0947 -0.1818 -0.1406
 1262ERGO    R418181   7.986  18.401   9.458  0.1016  0.1095 -0.0188
 1262ERGO    R518182   8.142  18.282   9.363 -0.1039 -0.1534 -0.0535
 1262ERGO    C118183   8.104  18.560   9.105  0.1104 -0.2285 -0.1698
 1262ERGO    C218184   7.956  18.690   8.809  0.1193  0.1088 -0.0304
 1263ERGO   ROH18185   4.021  13.869   5.695 -0.2244  0.2919 -0.1153
 1263ERGO    R118186   4.099  13.756   5.942 -0.1893  0.1446 -0.1927
 1263ERGO    R218187   4.215  13.906   6.144 -0.0494  0.0007 -0.1663
 1263ERGO    R318188   4.013  13.802   6.293 -0.0447  0.0280 -0.1404
 1263ERGO    R418189   4.208  13.896   6.489 -0.0659  0.1257 -0.1624
 1263ERGO    R518190   4.122  13.696   6.477 -0.0397  0.1086 -0.0954
 1263ERGO    C118191   4.014  13.792   6.830 -0.0711  0.2240 -0.1358
 1263ERGO    C218192   3.874  13.785   7.172  0.1606 -0.1984  0.2265
 1264ERGO   ROH18193  16.346   6.622   5.945  0.0363 -0.3554 -0.0567
 1264ERGO    R118194  16.328   6.492   6.196 -0.0684 -0.1860  0.0240
 1264ERGO    R218195  16.397   6.616   6.433  0.0296 -0.0945 -0.0541
 1264ERGO    R318196  16.146   6.544   6.507 -0.0296  0.1511 -0.0051
 1264ERGO    R418197  16.312   6.489   6.743 -0.0058 -0.1445 -0.0837
 1264ERGO    R518198  16.178   6.349   6.643 -0.1988  0.0487 -0.1067
 1264ERGO    C118199  16.026   6.348   6.993 -0.0821  0.0570 -0.0551
 1264ERGO    C218200  15.821   6.269   7.240 -0.0472 -0.0463  0.0438
 1265ERGO   ROH18201  12.993   7.722   6.279  0.0233  0.3868  0.0434
 1265ERGO    R118202  12.908   7.618   6.529  0.0974  0.3503  0.0529
 1265ERGO    R218203  13.080   7.489   6.702  0.1482  0.3316 -0.0174
 1265ERGO    R318204  12.989   7.674   6.879  0.1948  0.3015  0.0399
 1265ERGO    R418205  12.974   7.420   7.024 -0.0545  0.2213 -0.1047
 1265ERGO    R518206  12.812   7.563   6.997  0.0560  0.3553 -0.1070
 1265ERGO    C118207  12.828   7.554   7.378 -0.1287  0.1288 -0.1017
 1265ERGO    C218208  12.661   7.619   7.758  0.2629 -0.0648  0.2674
 1266ERGO   ROH18209  15.500   7.417   5.954  0.1096  0.1691  0.0604
 1266ERGO    R118210  15.627   7.328   6.192 -0.1159  0.0980  0.1548
 1266ERGO    R218211  15.849   7.453   6.298 -0.0641 -0.0936  0.2565
 1266ERGO    R318212  15.696   7.466   6.521 -0.1800  0.0978  0.1709
 1266ERGO    R418213  15.971   7.468   6.621 -0.2094 -0.3838  0.3292
 1266ERGO    R518214  15.812   7.332   6.682 -0.4807 -0.1493  0.2030
 1266ERGO    C118215  15.897   7.488   7.019 -0.4027 -0.3731  0.2912
 1266ERGO    C218216  15.858   7.587   7.344  0.3689 -0.3624 -0.0296
 1267ERGO   ROH18217   2.658  13.054   5.817  0.1540 -0.0629  0.0150
 1267ERGO    R118218   2.553  13.058   6.080 -0.0369 -0.1718 -0.0574
 1267ERGO    R218219   2.642  12.887   6.278 -0.0315 -0.1145 -0.0071
 1267ERGO    R318220   2.681  13.118   6.415 -0.3231 -0.0890  0.0393
 1267ERGO    R418221   2.618  12.918   6.621  0.1720 -0.2736  0.0236
 1267ERGO    R518222   2.519  13.111   6.591 -0.1826 -0.4277  0.1621
 1267ERGO    C118223   2.641  13.154   6.950  0.0167 -0.3423  0.0851
 1267ERGO    C218224   2.875  13.237   7.246 -0.1520  0.2928 -0.0589
 1268ERGO   ROH18225   0.984   7.839   5.893 -0.2281 -0.0796  0.0633
 1268ERGO    R118226   0.913   7.803   6.164 -0.1121 -0.1671  0.0828
 1268ERGO    R218227   1.082   7.684   6.348  0.0802  0.0281  0.0356
 1268ERGO    R318228   1.039   7.914   6.487 -0.1522 -0.0217  0.0489
 1268ERGO    R418229   1.063   7.707   6.692 -0.1724 -0.0440  0.0279
 1268ERGO    R518230   0.898   7.848   6.669 -0.2406 -0.1371 -0.0595
 1268ERGO    C118231   1.010   7.936   7.023 -0.5377 -0.1328  0.0359
 1268ERGO    C218232   1.037   8.020   7.374  0.2297  0.2470  0.6200
 1269ERGO   ROH18233  11.369   8.135  10.050 -0.0657 -0.0198 -0.0580
 1269ERGO    R118234  11.409   8.236   9.789  0.0380 -0.0129 -0.0396
 1269ERGO    R218235  11.659   8.298   9.689  0.0834 -0.0861  0.0352
 1269ERGO    R318236  11.585   8.130   9.489  0.0863 -0.0461 -0.0011
 1269ERGO    R418237  11.790   8.303   9.370  0.2989 -0.2019  0.1191
 1269ERGO    R518238  11.590   8.267   9.292  0.3167 -0.0572 -0.0096
 1269ERGO    C118239  11.797   8.148   8.995  0.4271 -0.2318  0.1341
 1269ERGO    C218240  11.732   8.107   8.696  0.1400 -0.0709 -0.1929
 1270ERGO   ROH18241   4.676   6.529   5.915 -0.1089  0.2006 -0.0881
 1270ERGO    R118242   4.767   6.480   6.179 -0.0867  0.1517 -0.1046
 1270ERGO    R218243   4.944   6.648   6.309 -0.1046  0.1480 -0.0750
 1270ERGO    R318244   4.750   6.652   6.500 -0.0949  0.0736 -0.0634
 1270ERGO    R418245   4.991   6.749   6.636 -0.1496  0.2646 -0.1037
 1270ERGO    R518246   4.863   6.584   6.700 -0.0393  0.1988 -0.0525
 1270ERGO    C118247   4.837   6.811   7.005 -0.1668  0.2625 -0.1095
 1270ERGO    C218248   5.093   6.919   7.171  0.2739 -0.0975  0.4116
 1271ERGO   ROH18249   5.534   1.731   6.089  0.2109  0.0504  0.1082
 1271ERGO    R118250   5.549   1.920   6.299  0.2145 -0.0883  0.2334
 1271ERGO    R218251   5.336   2.081   6.369  0.3281  0.1232  0.0966
 1271ERGO    R318252   5.380   1.976   6.616 -0.0576 -0.0743  0.0899
 1271ERGO    R418253   5.265   2.242   6.667  0.5813  0.2201  0.1079
 1271ERGO    R518254   5.452   2.164   6.748  0.3561 -0.2846  0.1821
 1271ERGO    C118255   5.265   2.237   7.072  0.3667  0.0911  0.1084
 1271ERGO    C218256   5.128   2.328   7.512 -0.0709  0.1468  0.0036
 1272ERGO   ROH18257  15.526  15.383   6.283 -0.1184  0.1655  0.0668
 1272ERGO    R118258  15.603  15.320   6.547 -0.0257  0.1209  0.0305
 1272ERGO    R218259  15.793  15.465   6.686  0.0553  0.0770 -0.0211
 1272ERGO    R318260  15.596  15.484   6.872  0.1251  0.0860  0.0501
 1272ERGO    R418261  15.847  15.497   7.025  0.1747  0.4567 -0.0718
 1272ERGO    R518262  15.680  15.360   7.059  0.3137  0.3447  0.1373
 1272ERGO    C118263  15.694  15.533   7.399  0.3097  0.6862 -0.0344
 1272ERGO    C218264  15.767  15.600   7.663 -0.2106 -0.1332 -0.1285
 1273ERGO   ROH18265   3.756   4.106   9.838  0.0871  0.1888 -0.1477
 1273ERGO    R118266   3.767   3.903   9.641  0.1554  0.1313 -0.0864
 1273ERGO    R218267   3.544   3.816   9.504  0.1556 -0.0909  0.0414
 1273ERGO    R318268   3.694   3.876   9.286  0.0123 -0.0391 -0.0436
 1273ERGO    R418269   3.593   3.605   9.235  0.2295 -0.1402  0.0940
 1273ERGO    R518270   3.801   3.669   9.229  0.1689  0.0376 -0.0167
 1273ERGO    C118271   3.763   3.538   8.873  0.1380 -0.1203  0.0448
 1273ERGO    C218272   3.730   3.260   8.601 -0.1889  0.5622 -0.0204
 1274ERGO   ROH18273   0.325   2.470   5.954 -0.0804 -0.2852  0.0147
 1274ERGO    R118274   0.201   2.515   6.204 -0.0823 -0.2642  0.0091
 1274ERGO    R218275   0.196   2.325   6.404  0.1005 -0.1707  0.0998
 1274ERGO    R318276   0.305   2.525   6.553 -0.0421 -0.0097 -0.0069
 1274ERGO    R418277   0.223   2.323   6.749  0.4531 -0.1514  0.0763
 1274ERGO    R518278   0.168   2.534   6.750  0.1363 -0.2239  0.1349
 1274ERGO    C118279   0.341   2.509   7.089  0.5245  0.0111 -0.0375
 1274ERGO    C218280   0.392   2.255   7.355 -0.1413 -0.1219  0.2482
 1275ERGO   ROH18281   0.133  13.948   9.462 -0.0409 -0.0323  0.1408
 1275ERGO    R118282   0.075  13.951   9.185 -0.0893  0.0654  0.1525
 1275ERGO    R218283   0.227  14.092   9.003 -0.1106  0.1129  0.1747
 1275ERGO    R318284   0.242  13.851   8.878 -0.1527  0.1538  0.0881
 1275ERGO    R418285   0.309  14.047   8.670 -0.1599  0.2198  0.1467
 1275ERGO    R518286   0.156  13.892   8.658 -0.1785  0.2395  0.1131
 1275ERGO    C118287   0.371  13.794   8.359 -0.2281  0.3203  0.0491
 1275ERGO    C218288   0.503  13.689   8.033  0.4153 -0.0464 -0.2031
 1276ERGO   ROH18289   4.070  11.006   5.964  0.0742  0.1577  0.1700
 1276ERGO    R118290   4.170  10.957   6.224  0.2272  0.0462  0.0905
 1276ERGO    R218291   4.042  10.792   6.405  0.1395  0.2551  0.2182
 1276ERGO    R318292   4.283  10.667   6.414 -0.0269 -0.0969  0.0292
 1276ERGO    R418293   4.137  10.565   6.647 -0.0348  0.0453  0.0942
 1276ERGO    R518294   4.335  10.656   6.647  0.1043 -0.2358 -0.0029
 1276ERGO    C118295   4.420  10.315   6.796 -0.2925 -0.4073 -0.1554
 1276ERGO    C218296   4.474  10.088   7.086 -0.1224 -0.1417  0.1200
 1277ERGO   ROH18297   3.047  10.712   6.497 -0.0705  0.2637  0.0273
 1277ERGO    R118298   3.039  10.622   6.765 -0.0520  0.1805  0.0008
 1277ERGO    R218299   3.105  10.784   6.979  0.0277  0.0967  0.0451
 1277ERGO    R318300   2.859  10.711   7.069  0.0208  0.1357  0.0559
 1277ERGO    R418301   2.988  10.838   7.300  0.1086 -0.0456  0.0992
 1277ERGO    R518302   2.897  10.640   7.295  0.0374 -0.0062  0.0060
 1277ERGO    C118303   2.689  10.802   7.571  0.1493 -0.0921  0.1410
 1277ERGO    C218304   2.496  11.069   7.671  0.1924  0.0646  0.1751
 1278ERGO   ROH18305   4.081   4.532   6.279 -0.0013  0.0959 -0.0152
 1278ERGO    R118306   4.159   4.378   6.503  0.0736  0.1370 -0.0143
 1278ERGO    R218307   4.411   4.394   6.615  0.0203  0.3578  0.0617
 1278ERGO    R318308   4.272   4.443   6.843 -0.0912  0.1918  0.0338
 1278ERGO    R418309   4.493   4.271   6.927  0.1253  0.4595  0.0758
 1278ERGO    R518310   4.282   4.237   6.965  0.1474  0.1934  0.0356
 1278ERGO    C118311   4.411   4.246   7.323  0.0817  0.3629  0.0577
 1278ERGO    C218312   4.428   4.056   7.577 -0.1403 -0.1343  0.4094
 1279ERGO   ROH18313  12.737  13.076   6.525 -0.1039  0.2528  0.1790
 1279ERGO    R118314  12.562  13.190   6.716 -0.2041  0.0290  0.2238
 1279ERGO    R218315  12.361  13.045   6.839  0.1030 -0.2701  0.3835
 1279ERGO    R318316  12.480  13.135   7.066  0.0690  0.0232  0.2899
 1279ERGO    R418317  12.193  13.166   7.115  0.0227 -0.4617  0.4201
 1279ERGO    R518318  12.345  13.321   7.134 -0.2290 -0.1803  0.2843
 1279ERGO    C118319  12.206  13.321   7.490 -0.0560 -0.2979  0.3536
 1279ERGO    C218320  12.062  13.420   7.756  0.1446 -0.4221  0.1293
 1280ERGO   ROH18321   3.397  16.624   9.634  0.0661  0.0040 -0.0145
 1280ERGO    R118322   3.401  16.722   9.369  0.1076 -0.0729 -0.0411
 1280ERGO    R218323   3.272  16.593   9.162 -0.1360  0.0448  0.0447
 1280ERGO    R318324   3.155  16.836   9.125  0.1775  0.1967  0.0074
 1280ERGO    R418325   3.125  16.697   8.867 -0.1851  0.0869  0.0828
 1280ERGO    R518326   3.213  16.895   8.900  0.1214 -0.0051 -0.0706
 1280ERGO    C118327   2.930  16.986   8.660  0.0806  0.2542  0.0701
 1280ERGO    C218328   2.899  16.990   8.275  0.2694  0.1543  0.1663
 1281ERGO   ROH18329  18.377   9.333   5.950 -0.1668 -0.0583  0.1858
 1281ERGO    R118330  18.393   9.235   6.215 -0.0395 -0.0770  0.1719
 1281ERGO    R218331  18.634   9.205   6.348  0.0235 -0.0605  0.0654
 1281ERGO    R318332  18.513   9.359   6.536  0.0878 -0.0882  0.1292
 1281ERGO    R418333  18.723   9.216   6.681  0.1723 -0.0692  0.0265
 1281ERGO    R518334  18.511   9.222   6.732  0.1944 -0.0999  0.1220
 1281ERGO    C118335  18.660   9.367   7.052  0.3194 -0.1003  0.0638
 1281ERGO    C218336  18.704   9.573   7.239  0.1168  0.0334 -0.2131
 1282ERGO   ROH18337  15.444  13.775   6.073 -0.2747  0.1536 -0.0461
 1282ERGO    R118338  15.495  13.750   6.350 -0.2420  0.1264 -0.0550
 1282ERGO    R218339  15.736  13.823   6.464 -0.1936  0.0180 -0.0929
 1282ERGO    R318340  15.578  13.974   6.625 -0.1003  0.0850 -0.0620
 1282ERGO    R418341  15.758  13.836   6.809 -0.2465 -0.1443 -0.0819
 1282ERGO    R518342  15.541  13.838   6.818 -0.2501  0.0320 -0.1242
 1282ERGO    C118343  15.623  13.986   7.160 -0.1898 -0.1759 -0.0464
 1282ERGO    C218344  15.912  13.924   7.472  0.2613 -0.1489  0.0517
 1283ERGO   ROH18345   9.651   1.829  10.068 -0.0000 -0.0633  0.0134
 1283ERGO    R118346   9.610   1.681   9.831 -0.0060 -0.0441  0.0020
 1283ERGO    R218347   9.359   1.641   9.722 -0.0114 -0.0471  0.0115
 1283ERGO    R318348   9.475   1.746   9.499 -0.0281 -0.0201  0.0159
 1283ERGO    R418349   9.280   1.551   9.397 -0.0427  0.0019  0.0058
 1283ERGO    R518350   9.492   1.560   9.348 -0.0478  0.0015 -0.0119
 1283ERGO    C118351   9.343   1.597   9.000 -0.0765  0.0558  0.0067
 1283ERGO    C218352   9.113   1.541   8.758  0.0117  0.0830  0.2142
 1284ERGO   ROH18353   7.375   9.672   9.790  0.0295  0.1106 -0.0831
 1284ERGO    R118354   7.238   9.742   9.552 -0.0557 -0.1115 -0.1009
 1284ERGO    R218355   7.369   9.790   9.313 -0.1238 -0.1160 -0.1324
 1284ERGO    R318356   7.197   9.602   9.219  0.0172 -0.2981 -0.0344
 1284ERGO    R418357   7.316   9.720   8.979 -0.3439 -0.0507 -0.1138
 1284ERGO    R518358   7.104   9.699   9.021 -0.2906 -0.3305  0.0834
 1284ERGO    C118359   7.125   9.502   8.696 -0.3398 -0.1837 -0.0110
 1284ERGO    C218360   7.047   9.443   8.401 -0.3025  0.1459  0.3451
 1285ERGO   ROH18361   6.775  16.561   5.761  0.0122  0.3487 -0.1896
 1285ERGO    R118362   6.688  16.731   5.970 -0.1368  0.3059 -0.2162
 1285ERGO    R218363   6.426  16.814   5.994 -0.2425 -0.0363 -0.1475
 1285ERGO    R318364   6.450  16.711   6.245 -0.0098  0.0809 -0.1191
 1285ERGO    R418365   6.290  16.956   6.279 -0.3907 -0.1522 -0.1588
 1285ERGO    R518366   6.474  16.904   6.386 -0.2738  0.1709 -0.1905
 1285ERGO    C118367   6.234  16.942   6.680 -0.2585 -0.1097 -0.1388
 1285ERGO    C218368   5.982  16.962   6.967  0.1326  0.2232 -0.1999
 1286ERGO   ROH18369   2.400   5.741   5.800 -0.2972 -0.1303 -0.1578
 1286ERGO    R118370   2.365   5.596   6.040 -0.1971 -0.0242 -0.0777
 1286ERGO    R218371   2.511   5.649   6.269 -0.0136 -0.0029 -0.1955
 1286ERGO    R318372   2.264   5.671   6.382  0.0722  0.1511 -0.0345
 1286ERGO    R418373   2.438   5.580   6.600  0.1290 -0.1029 -0.1847
 1286ERGO    R518374   2.252   5.487   6.535  0.0095  0.0865 -0.1182
 1286ERGO    C118375   2.165   5.561   6.899  0.2926 -0.0166 -0.0274
 1286ERGO    C218376   2.117   5.627   7.266 -0.0585  0.2014  0.1184
 1287ERGO   ROH18377  16.235   0.841   6.365 -0.0664  0.1244 -0.1098
 1287ERGO    R118378  16.033   0.908   6.551 -0.0241  0.1204 -0.0614
 1287ERGO    R218379  15.904   0.719   6.707 -0.0772  0.0999 -0.1234
 1287ERGO    R318380  15.985   0.880   6.911  0.0044 -0.0106 -0.0685
 1287ERGO    R418381  15.810   0.683   7.037  0.1773 -0.1618 -0.0757
 1287ERGO    R518382  15.792   0.899   7.051  0.1012 -0.1812  0.0866
 1287ERGO    C118383  15.830   0.813   7.421  0.4022 -0.4179  0.0038
 1287ERGO    C218384  15.714   0.816   7.650 -0.0349 -0.3615 -0.0777
 1288ERGO   ROH18385  16.300  17.379   9.868  0.0727 -0.0077  0.0019
 1288ERGO    R118386  16.099  17.372   9.668  0.0684  0.0986  0.0018
 1288ERGO    R218387  16.068  17.574   9.482  0.2220  0.0834 -0.0457
 1288ERGO    R318388  16.088  17.370   9.304  0.0715  0.0253  0.0027
 1288ERGO    R418389  16.020  17.604   9.141  0.1618  0.0145 -0.0434
 1288ERGO    R518390  15.915  17.413   9.144  0.0603  0.0734  0.0305
 1288ERGO    C118391  16.012  17.430   8.776 -0.0144 -0.0802  0.0035
 1288ERGO    C218392  15.852  17.460   8.477 -0.0638 -0.2263  0.0278
 1289ERGO   ROH18393  13.304   7.291  10.067 -0.0275  0.0596  0.1290
 1289ERGO    R118394  13.186   7.426   9.848 -0.0543 -0.0712  0.0614
 1289ERGO    R218395  13.304   7.644   9.725 -0.2163  0.0558  0.1193
 1289ERGO    R318396  13.272   7.493   9.501  0.0647  0.0097  0.1073
 1289ERGO    R418397  13.228   7.769   9.412 -0.3979 -0.0599  0.1159
 1289ERGO    R518398  13.094   7.600   9.383 -0.1076 -0.2899  0.0917
 1289ERGO    C118399  13.154   7.700   9.020 -0.2398 -0.1705  0.1024
 1289ERGO    C218400  13.118   7.797   8.696 -0.1317  0.2118  0.1054
 1290ERGO   ROH18401   4.258  11.152   9.829  0.1391 -0.3509 -0.1240
 1290ERGO    R118402   4.263  11.270   9.572  0.2532 -0.1172 -0.0164
 1290ERGO    R218403   4.498  11.354   9.452  0.3618 -0.4082 -0.0137
 1290ERGO    R318404   4.412  11.195   9.249  0.0121 -0.0779 -0.1393
 1290ERGO    R418405   4.589  11.390   9.120  0.4255 -0.3370  0.0110
 1290ERGO    R518406   4.383  11.344   9.064  0.3154  0.1366 -0.0228
 1290ERGO    C118407   4.561  11.261   8.737  0.1344  0.0147 -0.0925
 1290ERGO    C218408   4.464  11.341   8.386  0.0843 -0.2938 -0.3092
 1291ERGO   ROH18409  11.679  17.721   6.429  0.1546  0.1683 -0.0073
 1291ERGO    R118410  11.558  17.809   6.669  0.0963 -0.0428  0.0423
 1291ERGO    R218411  11.585  17.673   6.908  0.2750 -0.0991 -0.0098
 1291ERGO    R318412  11.669  17.915   6.999  0.0337 -0.0391  0.0627
 1291ERGO    R418413  11.595  17.766   7.240  0.2653 -0.2244  0.0263
 1291ERGO    R518414  11.523  17.964   7.182  0.0284 -0.2761  0.1261
 1291ERGO    C118415  11.680  18.048   7.519  0.0333 -0.2410  0.1154
 1291ERGO    C218416  11.700  18.076   7.860  0.2526 -0.0978 -0.1618
 1292ERGO   ROH18417   9.192  12.739   6.325  0.0495  0.0396 -0.0671
 1292ERGO    R118418   9.083  12.642   6.567 -0.0571  0.0347 -0.1171
 1292ERGO    R218419   9.237  12.598   6.792 -0.1421 -0.0551 -0.0801
 1292ERGO    R318420   9.053  12.760   6.910 -0.1235 -0.0161 -0.1038
 1292ERGO    R418421   9.204  12.644   7.133 -0.2020 -0.0926 -0.0803
 1292ERGO    R518422   8.988  12.642   7.108 -0.2016 -0.0273 -0.1320
 1292ERGO    C118423   9.014  12.823   7.443 -0.2195 -0.0779 -0.1026
 1292ERGO    C218424   8.922  13.174   7.781 -0.0050 -0.0624  0.1122
 1293ERGO   ROH18425  17.866  15.126   6.132 -0.0696  0.0726 -0.1028
 1293ERGO    R118426  17.769  14.980   6.355 -0.1539  0.2207 -0.0403
 1293ERGO    R218427  17.936  14.843   6.527 -0.2454 -0.0181 -0.1324
 1293ERGO    R318428  17.808  14.991   6.716  0.0778  0.1820 -0.0632
 1293ERGO    R418429  17.906  14.755   6.860 -0.3635 -0.0629 -0.1547
 1293ERGO    R518430  17.701  14.829   6.856 -0.2231  0.3482 -0.0966
 1293ERGO    C118431  17.768  14.843   7.231 -0.1290  0.0990 -0.1028
 1293ERGO    C218432  17.865  14.843   7.572  0.1833  0.1680 -0.1462
 1294ERGO   ROH18433  15.071  17.737   6.226  0.1099  0.1837  0.0626
 1294ERGO    R118434  14.972  17.849   6.466 -0.0187  0.0586  0.0675
 1294ERGO    R218435  14.721  17.791   6.565 -0.0505 -0.0223 -0.0800
 1294ERGO    R318436  14.859  17.725   6.789 -0.1541 -0.1014 -0.0369
 1294ERGO    R418437  14.581  17.752   6.878 -0.1386  0.3723 -0.0641
 1294ERGO    R518438  14.755  17.853   6.963  0.0201  0.1673 -0.1153
 1294ERGO    C118439  14.629  17.667   7.271 -0.2869  0.5279 -0.0143
 1294ERGO    C218440  14.588  17.428   7.662 -0.0062 -0.1859  0.0655
 1295ERGO   ROH18441  12.739   1.185   9.955  0.0705  0.0304 -0.1101
 1295ERGO    R118442  12.852   1.278   9.713  0.0814 -0.1287 -0.1686
 1295ERGO    R218443  12.858   1.126   9.483 -0.1910 -0.1669 -0.1587
 1295ERGO    R318444  12.736   1.343   9.374  0.0126 -0.0347 -0.1266
 1295ERGO    R418445  12.871   1.212   9.148 -0.2065 -0.1892 -0.1643
 1295ERGO    R518446  12.891   1.421   9.208  0.0432 -0.2096 -0.1785
 1295ERGO    C118447  12.764   1.466   8.851 -0.0244 -0.0780 -0.1373
 1295ERGO    C218448  12.602   1.501   8.523 -0.0808 -0.4429  0.0849
 1296ERGO   ROH18449  10.061  11.616  10.125 -0.0137 -0.0811 -0.0775
 1296ERGO    R118450   9.990  11.816   9.938  0.0474 -0.0883 -0.1089
 1296ERGO    R218451  10.176  11.982   9.820  0.0792 -0.0492 -0.0040
 1296ERGO    R318452  10.064  11.891   9.590  0.2186 -0.0621 -0.0681
 1296ERGO    R418453  10.182  12.149   9.517 -0.1508  0.1676  0.1069
 1296ERGO    R518454   9.976  12.087   9.485 -0.0651 -0.1134  0.0615
 1296ERGO    C118455  10.081  12.161   9.125 -0.1539  0.2816  0.1115
 1296ERGO    C218456  10.053  12.032   8.779 -0.2316 -0.0864 -0.0743
 1297ERGO   ROH18457   1.852  11.956   6.065  0.1821  0.0703  0.1400
 1297ERGO    R118458   1.953  12.085   6.296 -0.0061  0.1241  0.1938
 1297ERGO    R218459   1.877  12.340   6.370 -0.1953  0.0714  0.1656
 1297ERGO    R318460   1.817  12.218   6.606 -0.2330  0.0329  0.1373
 1297ERGO    R418461   1.877  12.495   6.679  0.0509 -0.0350  0.2227
 1297ERGO    R518462   1.967  12.316   6.764 -0.0829 -0.1599  0.1264
 1297ERGO    C118463   1.820  12.471   7.080  0.1589 -0.1331  0.2294
 1297ERGO    C218464   1.817  12.693   7.388 -0.3616  0.1213 -0.2139
 1298ERGO   ROH18465  15.474   3.748   9.819  0.2048  0.2935  0.0424
 1298ERGO    R118466  15.402   3.824   9.556 -0.0252  0.0588  0.0342
 1298ERGO    R218467  15.555   3.997   9.403 -0.3775  0.2652 -0.0935
 1298ERGO    R318468  15.546   3.793   9.223 -0.0898  0.1688 -0.0052
 1298ERGO    R418469  15.654   4.021   9.073 -0.3311  0.2422 -0.0815
 1298ERGO    R518470  15.482   3.899   9.018 -0.1748  0.0042 -0.0677
 1298ERGO    C118471  15.703   3.844   8.711 -0.0341  0.1383  0.0083
 1298ERGO    C218472  15.841   3.835   8.333 -0.0780  0.5064 -0.0806
 1299ERGO   ROH18473   2.528   3.625   5.652 -0.1470 -0.0273 -0.0320
 1299ERGO    R118474   2.352   3.746   5.838 -0.1503 -0.0344 -0.0330
 1299ERGO    R218475   2.132   3.616   5.942 -0.0788 -0.0775  0.0448
 1299ERGO    R318476   2.245   3.683   6.180 -0.0633  0.0313  0.0092
 1299ERGO    R418477   1.975   3.593   6.249  0.0843 -0.3930  0.1109
 1299ERGO    R518478   2.066   3.782   6.304 -0.1658 -0.2605  0.1149
 1299ERGO    C118479   1.989   3.643   6.651  0.1939 -0.4746  0.1160
 1299ERGO    C218480   1.977   3.641   6.996 -0.2413  0.2980  0.0084
 1300ERGO   ROH18481   1.215  10.541   5.927  0.1681 -0.0706  0.0372
 1300ERGO    R118482   1.248  10.435   6.188  0.0875  0.0552  0.1007
 1300ERGO    R218483   1.129  10.547   6.411 -0.1080  0.0749 -0.0080
 1300ERGO    R318484   1.033  10.295   6.446  0.0261  0.0299  0.0352
 1300ERGO    R418485   1.016  10.419   6.711 -0.0985  0.0867 -0.0004
 1300ERGO    R518486   1.113  10.230   6.662  0.0170  0.1293  0.0677
 1300ERGO    C118487   0.860  10.108   6.919  0.0328  0.0513  0.0447
 1300ERGO    C218488   0.663   9.947   6.917 -0.0095 -0.1777 -0.0306
 1301ERGO   ROH18489  10.742   3.047   9.830  0.1851 -0.1392 -0.0421
 1301ERGO    R118490  10.677   2.867   9.621  0.0625 -0.0407 -0.0898
 1301ERGO    R218491  10.646   2.948   9.359  0.2409  0.0319 -0.0874
 1301ERGO    R318492  10.832   2.755   9.311  0.0503 -0.1644 -0.0524
 1301ERGO    R418493  10.685   2.780   9.059  0.2787  0.1712 -0.1616
 1301ERGO    R518494  10.719   2.597   9.171 -0.0326  0.0556 -0.2429
 1301ERGO    C118495  10.882   2.502   8.840  0.1218  0.0681 -0.1719
 1301ERGO    C218496  10.864   2.537   8.456 -0.2198 -0.1065 -0.2194
 1302ERGO   ROH18497  12.653  13.772  10.320 -0.2386 -0.0710 -0.0439
 1302ERGO    R118498  12.733  13.847  10.059 -0.1123 -0.0970 -0.0155
 1302ERGO    R218499  12.798  13.662   9.865  0.0946 -0.1224  0.0581
 1302ERGO    R318500  12.611  13.796   9.720  0.1126 -0.2408 -0.0729
 1302ERGO    R418501  12.779  13.661   9.520  0.3152 -0.1172  0.0456
 1302ERGO    R518502  12.730  13.874   9.527  0.1790 -0.1617  0.0128
 1302ERGO    C118503  12.592  13.787   9.183  0.4607 -0.2255 -0.0847
 1302ERGO    C218504  12.541  13.787   8.859 -0.1211 -0.0648 -0.1234
 1303ERGO   ROH18505  10.616  11.205   6.177 -0.0189  0.0155  0.1700
 1303ERGO    R118506  10.488  11.029   6.357  0.0792 -0.0661  0.1567
 1303ERGO    R218507  10.613  10.931   6.584  0.0235  0.2532  0.3132
 1303ERGO    R318508  10.394  11.033   6.709 -0.2430 -0.0028  0.0778
 1303ERGO    R418509  10.493  10.824   6.890  0.1527  0.4325  0.4304
 1303ERGO    R518510  10.291  10.843   6.812  0.1175 -0.0976  0.3124
 1303ERGO    C118511  10.219  10.857   7.186 -0.0223  0.2966  0.2776
 1303ERGO    C218512  10.116  10.841   7.557 -0.2261 -0.1189 -0.0277
 1304ERGO   ROH18513  11.414   0.402   6.257  0.0963  0.2569  0.0266
 1304ERGO    R118514  11.512   0.410   6.523  0.1207  0.3007  0.0174
 1304ERGO    R218515  11.529   0.644   6.668 -0.0386  0.3021  0.0442
 1304ERGO    R318516  11.383   0.505   6.850  0.0828  0.1686  0.0400
 1304ERGO    R418517  11.513   0.717   7.006  0.0471  0.1519  0.0808
 1304ERGO    R518518  11.519   0.503   7.047  0.1487  0.1411 -0.0093
 1304ERGO    C118519  11.366   0.628   7.372  0.2109 -0.0609  0.0982
 1304ERGO    C218520  11.446   0.844   7.771  0.2315 -0.0578  0.2226
 1305ERGO   ROH18521  13.844   1.993   6.221 -0.2515  0.0267 -0.0046
 1305ERGO    R118522  13.866   2.136   6.465 -0.1420  0.0190 -0.0099
 1305ERGO    R218523  13.687   2.333   6.539 -0.0284  0.1128  0.0140
 1305ERGO    R318524  13.663   2.182   6.763 -0.0740  0.1291  0.0195
 1305ERGO    R418525  13.648   2.458   6.859  0.1395  0.1405  0.0251
 1305ERGO    R518526  13.783   2.304   6.931  0.0529  0.0477 -0.0108
 1305ERGO    C118527  13.602   2.388   7.256  0.1944  0.1720  0.0367
 1305ERGO    C218528  13.664   2.397   7.531 -0.2528  0.0904  0.1756
 1306ERGO   ROH18529   8.219   2.986   5.917 -0.1572 -0.1476 -0.1881
 1306ERGO    R118530   8.292   3.116   6.158 -0.0147 -0.0499 -0.2820
 1306ERGO    R218531   8.106   3.237   6.323  0.0765 -0.0195 -0.2001
 1306ERGO    R318532   8.218   3.077   6.512  0.2287  0.0650 -0.2165
 1306ERGO    R418533   8.161   3.328   6.652 -0.1116 -0.0379 -0.1627
 1306ERGO    R518534   8.353   3.225   6.644  0.0189  0.1969 -0.1456
 1306ERGO    C118535   8.297   3.231   7.021 -0.0783  0.0306 -0.1564
 1306ERGO    C218536   8.414   3.276   7.297 -0.0727 -0.1228  0.0173
 1307ERGO   ROH18537   6.064   0.795   6.308  0.2223 -0.0610 -0.1717
 1307ERGO    R118538   5.919   0.743   6.545  0.0655 -0.0017 -0.2535
 1307ERGO    R218539   6.039   0.652   6.777 -0.1306 -0.2597 -0.2467
 1307ERGO    R318540   5.916   0.868   6.887  0.0849 -0.1608 -0.1946
 1307ERGO    R418541   5.941   0.676   7.107  0.1433 -0.1212 -0.1719
 1307ERGO    R518542   5.758   0.775   7.040  0.1493 -0.0283 -0.0473
 1307ERGO    C118543   5.768   0.893   7.403  0.5051  0.0523 -0.0794
 1307ERGO    C218544   5.706   0.901   7.698 -0.1160 -0.0522  0.2453
 1308ERGO   ROH18545  18.044  11.761   6.117  0.0245 -0.0132  0.0870
 1308ERGO    R118546  18.209  11.633   6.308 -0.1328 -0.0256  0.2167
 1308ERGO    R218547  18.463  11.722   6.369  0.0767 -0.4064 -0.0541
 1308ERGO    R318548  18.366  11.721   6.624  0.1851  0.1929  0.0029
 1308ERGO    R418549  18.658  11.715   6.654  0.2014 -0.4697 -0.1404
 1308ERGO    R518550  18.515  11.576   6.743 -0.1049 -0.0067  0.1333
 1308ERGO    C118551  18.682  11.710   7.059  0.3756  0.0560 -0.1372
 1308ERGO    C218552  18.702  11.905   7.409  0.0369 -0.1369 -0.2445
 1309ERGO   ROH18553  14.769  16.109   6.353 -0.1768  0.0675  0.0247
 1309ERGO    R118554  14.971  16.179   6.539 -0.2035  0.3274 -0.0368
 1309ERGO    R218555  14.933  16.369   6.735 -0.4448  0.1760  0.0892
 1309ERGO    R318556  15.014  16.169   6.900 -0.0248  0.2126 -0.0650
 1309ERGO    R418557  15.089  16.416   7.040 -0.2125  0.2206 -0.0362
 1309ERGO    R518558  15.220  16.248   6.992 -0.0462  0.4220 -0.2240
 1309ERGO    C118559  15.256  16.255   7.372  0.3171  0.2807 -0.2539
 1309ERGO    C218560  15.009  16.550   7.518 -0.0158  0.0949 -0.1162
 1310ERGO   ROH18561   5.741   8.586   5.655  0.1976 -0.1888 -0.0482
 1310ERGO    R118562   5.771   8.522   5.929  0.0878  0.1292  0.0420
 1310ERGO    R218563   5.648   8.667   6.130 -0.3059  0.1368 -0.1976
 1310ERGO    R318564   5.553   8.423   6.202  0.0284  0.0471 -0.0338
 1310ERGO    R418565   5.510   8.592   6.438 -0.4427  0.2300 -0.2340
 1310ERGO    R518566   5.614   8.400   6.433 -0.1219  0.3835  0.0470
 1310ERGO    C118567   5.341   8.319   6.685 -0.2085  0.2002 -0.1014
 1310ERGO    C218568   5.323   8.255   7.053  0.1615 -0.1586  0.2422
 1311ERGO   ROH18569  11.704   1.766   7.898 -0.1891  0.1248  0.1806
 1311ERGO    R118570  11.920   1.897   8.025 -0.0378  0.0389  0.0171
 1311ERGO    R218571  12.157   1.954   7.894 -0.1418  0.0226 -0.1916
 1311ERGO    R318572  12.105   2.207   7.979 -0.0119  0.0091 -0.0697
 1311ERGO    R418573  12.386   2.213   7.897  0.0330 -0.1304  0.0956
 1311ERGO    R518574  12.306   2.276   8.089 -0.0291 -0.1920  0.0846
 1311ERGO    C118575  12.470   2.602   7.978  0.2568 -0.2321  0.3773
 1311ERGO    C218576  12.754   2.696   7.870  0.0078 -0.1454  0.1378
 1312ERGO   ROH18577   9.238   3.092   5.959  0.1808  0.0311 -0.0576
 1312ERGO    R118578   9.181   3.062   6.234  0.0896  0.0034 -0.0791
 1312ERGO    R218579   9.104   2.821   6.345  0.1122 -0.0223 -0.1179
 1312ERGO    R318580   9.313   2.867   6.512  0.0407  0.0244 -0.0411
 1312ERGO    R418581   9.119   2.718   6.674  0.1271 -0.2539 -0.1893
 1312ERGO    R518582   9.211   2.910   6.724 -0.0382 -0.2152 -0.0289
 1312ERGO    C118583   9.325   2.702   7.023  0.0687 -0.3449 -0.1587
 1312ERGO    C218584   9.214   2.425   7.262 -0.4357  0.3177  0.0180
 1313ERGO   ROH18585   7.557  17.324  10.263 -0.0391  0.0187  0.1531
 1313ERGO    R118586   7.716  17.371  10.034 -0.2485  0.1648  0.0341
 1313ERGO    R218587   7.858  17.171   9.907  0.1495  0.3542  0.1671
 1313ERGO    R318588   7.723  17.258   9.688 -0.1587 -0.1565  0.1366
 1313ERGO    R418589   7.962  17.124   9.581  0.2303  0.4506  0.1782
 1313ERGO    R518590   7.895  17.327   9.536 -0.3697  0.2546  0.0652
 1313ERGO    C118591   7.896  17.178   9.185 -0.0119  0.0271  0.1563
 1313ERGO    C218592   7.920  16.866   9.017 -0.3658  0.1744  0.5622
 1314ERGO   ROH18593  17.021   4.312   5.610 -0.1556  0.2318 -0.0751
 1314ERGO    R118594  16.914   4.278   5.870 -0.0646  0.1847 -0.0437
 1314ERGO    R218595  17.017   4.098   6.052 -0.0052  0.1494 -0.1174
 1314ERGO    R318596  17.032   4.317   6.212  0.0556  0.1162 -0.0757
 1314ERGO    R418597  17.066   4.090   6.394 -0.0422  0.0628 -0.1133
 1314ERGO    R518598  16.920   4.251   6.414  0.0093  0.1134 -0.0985
 1314ERGO    C118599  17.107   4.291   6.744 -0.0068 -0.0187 -0.0719
 1314ERGO    C218600  17.254   4.496   6.903 -0.2779 -0.2967 -0.3686
 1315ERGO   ROH18601  16.308   5.558   5.852 -0.1571  0.0048 -0.0429
 1315ERGO    R118602  16.226   5.670   6.099 -0.0356 -0.0278  0.0127
 1315ERGO    R218603  15.990   5.599   6.223 -0.0297  0.0442  0.0592
 1315ERGO    R318604  16.153   5.547   6.434  0.0052 -0.0882  0.0008
 1315ERGO    R418605  15.883   5.510   6.540 -0.0063  0.2919  0.1392
 1315ERGO    R518606  16.038   5.638   6.623  0.2003  0.1302  0.0233
 1315ERGO    C118607  15.975   5.409   6.922  0.0401  0.3119  0.1311
 1315ERGO    C218608  15.682   5.294   7.095  0.0603 -0.0944  0.1189
 1316ERGO   ROH18609   6.619  13.431   5.769  0.1470  0.0528 -0.0035
 1316ERGO    R118610   6.594  13.441   6.050  0.0621 -0.1509 -0.0023
 1316ERGO    R218611   6.427  13.619   6.179  0.3109  0.0216  0.0870
 1316ERGO    R318612   6.328  13.394   6.294 -0.1111  0.0791 -0.1420
 1316ERGO    R418613   6.364  13.583   6.517  0.3402 -0.2292  0.0675
 1316ERGO    R518614   6.444  13.380   6.504 -0.0684 -0.3882 -0.1843
 1316ERGO    C118615   6.235  13.351   6.822 -0.0390 -0.3213 -0.1589
 1316ERGO    C218616   6.170  13.421   7.116 -0.2324 -0.0376  0.1992
 1317ERGO   ROH18617  10.057   3.506   5.833  0.1347  0.0065  0.1133
 1317ERGO    R118618  10.121   3.489   6.108  0.0921  0.1073  0.1294
 1317ERGO    R218619  10.215   3.705   6.253 -0.0612  0.1942  0.0969
 1317ERGO    R318620  10.007   3.645   6.417 -0.0570  0.1119  0.0735
 1317ERGO    R418621  10.210   3.763   6.593 -0.1335  0.2284  0.0905
 1317ERGO    R518622  10.111   3.570   6.620 -0.0469  0.1816  0.0962
 1317ERGO    C118623  10.011   3.741   6.946 -0.1715  0.1710  0.0646
 1317ERGO    C218624  10.048   3.866   7.307  0.1364 -0.2026 -0.0433
 1318ERGO   ROH18625  17.476  13.124   9.988 -0.1824 -0.0063 -0.0061
 1318ERGO    R118626  17.516  13.010   9.732  0.0165  0.0878 -0.0178
 1318ERGO    R218627  17.315  12.994   9.542  0.1022 -0.0474 -0.0956
 1318ERGO    R318628  17.497  13.123   9.387  0.0481  0.1498 -0.0004
 1318ERGO    R418629  17.269  13.076   9.210  0.1471 -0.0101 -0.0934
 1318ERGO    R518630  17.476  13.020   9.172  0.2134  0.1784 -0.0337
 1318ERGO    C118631  17.413  13.244   8.870  0.1222  0.1968 -0.0026
 1318ERGO    C218632  17.296  13.430   8.466  0.3474  0.1855 -0.1725
 1319ERGO   ROH18633  16.652  15.668   6.128  0.2324 -0.2217 -0.0588
 1319ERGO    R118634  16.809  15.576   6.345  0.1475 -0.1758  0.0227
 1319ERGO    R218635  16.829  15.713   6.583  0.0853 -0.1050 -0.0132
 1319ERGO    R318636  16.750  15.476   6.690  0.0187 -0.0620  0.0348
 1319ERGO    R418637  16.800  15.649   6.922  0.1051 -0.0409  0.0011
 1319ERGO    R518638  16.886  15.451   6.886  0.0349 -0.0755  0.0223
 1319ERGO    C118639  16.710  15.388   7.218  0.0540  0.0369  0.0545
 1319ERGO    C218640  16.621  15.179   7.405  0.3884  0.0616  0.0242
 1320ERGO   ROH18641  17.227   7.544   6.003 -0.0461  0.0954  0.0339
 1320ERGO    R118642  17.268   7.649   6.263 -0.0932  0.0871  0.0439
 1320ERGO    R218643  17.059   7.731   6.425 -0.1338 -0.0834  0.0751
 1320ERGO    R318644  17.172   7.559   6.602  0.0058 -0.0287  0.0427
 1320ERGO    R418645  17.062   7.774   6.768 -0.1740 -0.1447  0.0839
 1320ERGO    R518646  17.267   7.700   6.770 -0.1099  0.0198  0.0710
 1320ERGO    C118647  17.169   7.637   7.134 -0.0664 -0.1291  0.0586
 1320ERGO    C218648  17.280   7.544   7.540 -0.0141 -0.1283  0.2881
 1321ERGO   ROH18649  14.072   3.581   9.738 -0.0232 -0.2940  0.1139
 1321ERGO    R118650  14.071   3.468   9.479 -0.1665 -0.1377  0.0443
 1321ERGO    R218651  13.950   3.591   9.264  0.1308  0.2350  0.0784
 1321ERGO    R318652  14.195   3.561   9.149  0.1160 -0.1707  0.1381
 1321ERGO    R418653  14.009   3.588   8.923  0.2529  0.6358  0.0915
 1321ERGO    R518654  14.153   3.427   8.955 -0.1373  0.2272 -0.0968
 1321ERGO    C118655  14.274   3.559   8.618  0.3102  0.4882  0.1552
 1321ERGO    C218656  14.273   3.671   8.246 -0.0502  0.1680  0.2531
 1322ERGO   ROH18657   2.416  14.980   5.856  0.0063 -0.1605 -0.0211
 1322ERGO    R118658   2.517  15.138   6.068 -0.2087 -0.1570  0.0797
 1322ERGO    R218659   2.420  15.121   6.326 -0.1509 -0.4986  0.0783
 1322ERGO    R318660   2.681  15.079   6.388 -0.0702 -0.1389  0.0146
 1322ERGO    R418661   2.554  15.149   6.643 -0.2043 -0.6843  0.1197
 1322ERGO    R518662   2.730  15.243   6.554 -0.3543 -0.2630  0.2349
 1322ERGO    C118663   2.878  15.125   6.886 -0.1597 -0.4550  0.0839
 1322ERGO    C218664   3.045  15.018   7.226  0.1567  0.2533  0.4408
 1323ERGO   ROH18665  15.585  14.275  10.119  0.1225  0.2394  0.1049
 1323ERGO    R118666  15.636  14.246   9.842  0.1842 -0.1740  0.1533
 1323ERGO    R218667  15.734  14.453   9.687 -0.2499 -0.2424 -0.2282
 1323ERGO    R318668  15.925  14.270   9.622  0.1452  0.0272  0.1212
 1323ERGO    R418669  15.934  14.468   9.405 -0.1202 -0.2317 -0.1372
 1323ERGO    R518670  15.911  14.252   9.383  0.3073 -0.3172  0.1310
 1323ERGO    C118671  16.230  14.306   9.181  0.3265  0.0278  0.2438
 1323ERGO    C218672  16.335  14.596   9.120  0.1081 -0.1847  0.0434
 1324ERGO   ROH18673  10.443  13.720   6.378  0.0503 -0.1880  0.0449
 1324ERGO    R118674  10.385  13.799   6.643 -0.0050 -0.1414  0.0196
 1324ERGO    R218675  10.246  13.638   6.819  0.1283 -0.1946  0.0803
 1324ERGO    R318676  10.463  13.678   6.978  0.1037  0.0354  0.0589
 1324ERGO    R418677  10.261  13.562   7.156  0.2282 -0.1241  0.0922
 1324ERGO    R518678  10.371  13.747   7.188  0.0563 -0.0159  0.0534
 1324ERGO    C118679  10.474  13.555   7.501  0.2634  0.1329  0.0789
 1324ERGO    C218680  10.457  13.651   7.859  0.1346  0.2774 -0.0305
 1325ERGO   ROH18681  13.917  11.723   6.341  0.0004 -0.1675  0.1385
 1325ERGO    R118682  13.987  11.667   6.610  0.1398  0.1538  0.1730
 1325ERGO    R218683  13.985  11.860   6.807 -0.3579  0.2672  0.0636
 1325ERGO    R318684  13.823  11.683   6.934  0.0826 -0.0869  0.1593
 1325ERGO    R418685  13.908  11.869   7.144 -0.4861  0.3590  0.0335
 1325ERGO    R518686  13.925  11.652   7.149  0.1182  0.3855  0.2262
 1325ERGO    C118687  13.711  11.708   7.460 -0.1473  0.0799  0.1058
 1325ERGO    C218688  13.641  11.993   7.755  0.1628  0.1581  0.0755
 1326ERGO   ROH18689  16.776   5.479   9.662  0.0102 -0.3718  0.0721
 1326ERGO    R118690  16.786   5.527   9.383  0.2684 -0.0893  0.1256
 1326ERGO    R218691  17.013   5.483   9.233  0.2475 -0.4662  0.2127
 1326ERGO    R318692  16.845   5.329   9.083 -0.0445  0.0855 -0.0602
 1326ERGO    R418693  17.068   5.394   8.903  0.3833 -0.4392  0.2263
 1326ERGO    R518694  16.856   5.426   8.864  0.4908  0.1978 -0.0059
 1326ERGO    C118695  16.944   5.198   8.571  0.1884  0.0944 -0.0218
 1326ERGO    C218696  16.965   5.032   8.235  0.2568  0.0402  0.0914
 1327ERGO   ROH18697  16.997   2.231   5.928  0.2771  0.2632  0.0160
 1327ERGO    R118698  16.980   2.070   6.160  0.1720  0.1793 -0.0496
 1327ERGO    R218699  17.200   2.010   6.317  0.1093  0.0793 -0.0027
 1327ERGO    R318700  17.045   2.111   6.516  0.0659  0.0322 -0.0115
 1327ERGO    R418701  17.201   1.898   6.643  0.1971  0.1412  0.0193
 1327ERGO    R518702  16.984   1.919   6.646  0.1825  0.0203  0.0296
 1327ERGO    C118703  17.056   1.926   7.021  0.2075  0.1329  0.0239
 1327ERGO    C218704  17.013   2.040   7.387  0.3389 -0.1058 -0.2475
 1328ERGO   ROH18705  14.134  15.985  10.479 -0.0083  0.2796  0.0274
 1328ERGO    R118706  14.147  16.069  10.209 -0.0838  0.1336 -0.0239
 1328ERGO    R218707  14.380  16.056  10.060 -0.0775  0.2191 -0.0292
 1328ERGO    R318708  14.224  15.916   9.888  0.0143  0.0005  0.0632
 1328ERGO    R418709  14.457  15.993   9.729 -0.0014 -0.0352  0.0357
 1328ERGO    R518710  14.248  16.029   9.678 -0.0055 -0.1722 -0.0303
 1328ERGO    C118711  14.354  15.824   9.375  0.1291 -0.3883  0.1601
 1328ERGO    C218712  14.465  15.726   9.022 -0.0338 -0.0077  0.1644
 1329ERGO   ROH18713  12.353  11.278   7.162 -0.2889  0.2040 -0.3125
 1329ERGO    R118714  12.238  11.397   7.392 -0.1897 -0.0331 -0.1356
 1329ERGO    R218715  12.381  11.442   7.623 -0.0535 -0.1528 -0.1964
 1329ERGO    R318716  12.293  11.698   7.590 -0.1973 -0.1652  0.0703
 1329ERGO    R418717  12.356  11.675   7.878  0.3305 -0.2752 -0.0394
 1329ERGO    R518718  12.166  11.741   7.790  0.1429 -0.2943  0.3262
 1329ERGO    C118719  12.258  12.049   7.996  0.4193 -0.3582  0.3023
 1329ERGO    C218720  12.166  12.308   8.259 -0.0829 -0.0006 -0.4420
 1330ERGO   ROH18721  17.159  11.545   6.143 -0.0266 -0.1929  0.0816
 1330ERGO    R118722  17.106  11.520   6.420 -0.1212 -0.0485  0.0769
 1330ERGO    R218723  17.308  11.505   6.609 -0.1841 -0.1607  0.1315
 1330ERGO    R318724  17.174  11.715   6.720 -0.0280 -0.0018  0.0270
 1330ERGO    R418725  17.316  11.589   6.944 -0.3071 -0.1471  0.1322
 1330ERGO    R518726  17.103  11.633   6.934 -0.2582  0.0890 -0.0102
 1330ERGO    C118727  17.196  11.834   7.244 -0.2323  0.0100  0.0345
 1330ERGO    C218728  17.192  11.826   7.680 -0.2770 -0.0380  0.3351
 1331ERGO   ROH18729   2.248   4.228   9.859  0.1541  0.2399  0.0700
 1331ERGO    R118730   2.269   4.066   9.628  0.2033  0.1240  0.1570
 1331ERGO    R218731   2.107   4.101   9.406  0.0321 -0.1949  0.2353
 1331ERGO    R318732   2.345   4.116   9.276 -0.0618 -0.0029  0.0761
 1331ERGO    R418733   2.147   4.085   9.063 -0.2019 -0.1121  0.2016
 1331ERGO    R518734   2.324   3.962   9.093 -0.0841  0.0035  0.0648
 1331ERGO    C118735   2.393   4.090   8.741 -0.4263  0.1165  0.0325
 1331ERGO    C218736   2.472   3.921   8.443  0.3178  0.1267 -0.2896
 1332ERGO   ROH18737   0.936   3.741   5.753 -0.0233 -0.0804  0.0241
 1332ERGO    R118738   1.073   3.720   6.000  0.0657 -0.0947 -0.0263
 1332ERGO    R218739   1.009   3.876   6.219  0.1182 -0.1364  0.0162
 1332ERGO    R318740   0.986   3.635   6.344  0.1992 -0.1566 -0.0066
 1332ERGO    R418741   1.066   3.821   6.556 -0.1732 -0.0774  0.0778
 1332ERGO    R518742   1.165   3.634   6.504  0.0442  0.0026  0.1755
 1332ERGO    C118743   1.078   3.564   6.869 -0.2667 -0.0621  0.0923
 1332ERGO    C218744   0.966   3.612   7.160 -0.1278  0.0427  0.2115
 1333ERGO   ROH18745  11.502  11.642   6.411 -0.2652 -0.0695  0.0214
 1333ERGO    R118746  11.525  11.487   6.646 -0.0729  0.0250  0.0683
 1333ERGO    R218747  11.561  11.599   6.896 -0.1476  0.1432  0.0367
 1333ERGO    R318748  11.342  11.450   6.959  0.0055 -0.0568  0.1015
 1333ERGO    R418749  11.460  11.521   7.217 -0.1309  0.2393  0.0650
 1333ERGO    R518750  11.411  11.320   7.148  0.1037  0.1448  0.1964
 1333ERGO    C118751  11.197  11.335   7.463  0.0224  0.1074  0.1422
 1333ERGO    C218752  11.055  11.246   7.806  0.1199 -0.2385  0.1769
 1334ERGO   ROH18753   0.609   7.861   9.583  0.0016 -0.1353 -0.0503
 1334ERGO    R118754   0.578   7.996   9.336  0.0021 -0.0494 -0.0027
 1334ERGO    R218755   0.567   7.863   9.094 -0.1304  0.0263 -0.0347
 1334ERGO    R318756   0.335   8.001   9.066 -0.0694  0.1526  0.0621
 1334ERGO    R418757   0.396   7.905   8.796 -0.3624 -0.1123  0.0757
 1334ERGO    R518758   0.355   8.111   8.854 -0.1796 -0.0322 -0.0510
 1334ERGO    C118759   0.078   8.058   8.597 -0.4403 -0.0744  0.2310
 1334ERGO    C218760  -0.049   8.082   8.258  0.2035 -0.1413  0.0947
 1335ERGO   ROH18761   2.288   2.952   9.609  0.0102  0.0484  0.0036
 1335ERGO    R118762   2.238   2.747   9.420  0.0265  0.0502 -0.0021
 1335ERGO    R218763   1.985   2.646   9.374  0.0428 -0.0011  0.0300
 1335ERGO    R318764   2.041   2.711   9.115 -0.0111  0.0267  0.0245
 1335ERGO    R418765   1.815   2.523   9.099 -0.0235  0.0376  0.0530
 1335ERGO    R518766   2.007   2.506   8.995 -0.0463  0.0413  0.0084
 1335ERGO    C118767   1.769   2.512   8.697 -0.1128  0.0863  0.0613
 1335ERGO    C218768   1.544   2.391   8.575 -0.2664 -0.2836  0.0474
 1336ERGO   ROH18769  12.223   2.711   5.983 -0.1356 -0.0199 -0.0198
 1336ERGO    R118770  12.054   2.720   6.209 -0.0779 -0.3006  0.0398
 1336ERGO    R218771  12.100   2.568   6.436  0.3570 -0.1031  0.1015
 1336ERGO    R318772  12.087   2.809   6.560 -0.1386 -0.0602 -0.0152
 1336ERGO    R418773  12.023   2.614   6.769  0.1406 -0.0772  0.0484
 1336ERGO    R518774  11.904   2.788   6.713 -0.1604 -0.3219 -0.0787
 1336ERGO    C118775  11.966   2.868   7.081 -0.4509 -0.0219 -0.0921
 1336ERGO    C218776  11.870   3.067   7.394 -0.2377 -0.2388  0.5760
 1337ERGO   ROH18777  15.846  12.375   6.414 -0.0507 -0.1138  0.0510
 1337ERGO    R118778  15.852  12.502   6.667 -0.3694 -0.0438  0.0278
 1337ERGO    R218779  15.666  12.448   6.865 -0.1576 -0.6002  0.0900
 1337ERGO    R318780  15.888  12.397   7.014  0.0668  0.1135  0.0369
 1337ERGO    R418781  15.709  12.541   7.195 -0.2808 -0.2626  0.0142
 1337ERGO    R518782  15.915  12.592   7.149 -0.4257  0.2947 -0.1014
 1337ERGO    C118783  15.941  12.548   7.527 -0.1418  0.6040 -0.0798
 1337ERGO    C218784  16.125  12.472   7.880 -0.0889  0.1722  0.1115
 1338ERGO   ROH18785  17.228  14.701   9.906  0.2765 -0.1965 -0.0033
 1338ERGO    R118786  17.354  14.693   9.653  0.1632 -0.2473 -0.0596
 1338ERGO    R218787  17.291  14.505   9.460 -0.1204 -0.1166 -0.1003
 1338ERGO    R318788  17.253  14.725   9.305  0.0490 -0.0193 -0.0065
 1338ERGO    R418789  17.277  14.503   9.115 -0.2365  0.0270 -0.0972
 1338ERGO    R518790  17.392  14.688   9.114 -0.0510 -0.0885 -0.0656
 1338ERGO    C118791  17.233  14.708   8.768 -0.1452  0.2020 -0.0075
 1338ERGO    C218792  17.459  14.713   8.411 -0.0026 -0.4633 -0.0091
 1339ERGO   ROH18793  12.564   8.741   6.098 -0.1846 -0.2434 -0.2105
 1339ERGO    R118794  12.332   8.772   6.258 -0.0651  0.0318 -0.0842
 1339ERGO    R218795  12.238   8.572   6.424 -0.2604  0.1105 -0.0981
 1339ERGO    R318796  12.254   8.766   6.614  0.1056  0.0364 -0.0454
 1339ERGO    R418797  12.087   8.557   6.734 -0.3535  0.3370 -0.1306
 1339ERGO    R518798  12.036   8.768   6.715  0.0823  0.4560 -0.0863
 1339ERGO    C118799  12.014   8.730   7.094 -0.0643  0.3994 -0.0999
 1339ERGO    C218800  11.739   8.650   7.325  0.0965 -0.1316  0.0592
 1340ERGO   ROH18801  15.306  13.936  10.011  0.0188  0.0347  0.1094
 1340ERGO    R118802  15.228  13.718   9.848  0.0185  0.0329  0.1135
 1340ERGO    R218803  15.096  13.751   9.608  0.0459  0.0303  0.1033
 1340ERGO    R318804  15.301  13.599   9.512  0.0403  0.0073  0.1257
 1340ERGO    R418805  15.126  13.641   9.281  0.1205  0.1295  0.0753
 1340ERGO    R518806  15.197  13.449   9.357  0.0471  0.0823  0.0418
 1340ERGO    C118807  15.335  13.434   9.002  0.1589  0.1656  0.0799
 1340ERGO    C218808  15.399  13.577   8.685 -0.0139 -0.0111  0.0159
 1341ERGO   ROH18809   4.476   7.554   7.754 -0.1972 -0.2335  0.1177
 1341ERGO    R118810   4.714   7.418   7.682 -0.0570 -0.0046  0.1391
 1341ERGO    R218811   4.942   7.423   7.839 -0.1612 -0.0061  0.2972
 1341ERGO    R318812   4.920   7.153   7.821  0.0250 -0.0065  0.0148
 1341ERGO    R418813   5.208   7.204   7.830 -0.0122  0.1768  0.1986
 1341ERGO    R518814   5.101   7.087   7.680  0.1355  0.2545  0.0318
 1341ERGO    C118815   5.343   6.822   7.809  0.2495  0.2828 -0.1238
 1341ERGO    C218816   5.667   6.739   7.975  0.2443  0.0170  0.2979
 1342ERGO   ROH18817  15.571   9.042  10.234  0.2349 -0.0449  0.1379
 1342ERGO    R118818  15.645   9.131   9.976  0.0743 -0.0138  0.1019
 1342ERGO    R218819  15.601   8.981   9.748 -0.0074 -0.0144  0.1195
 1342ERGO    R318820  15.475   9.206   9.663 -0.1115 -0.0438  0.1939
 1342ERGO    R418821  15.466   9.025   9.433  0.1419  0.0932  0.0688
 1342ERGO    R518822  15.541   9.230   9.435  0.0051  0.1468  0.2435
 1342ERGO    C118823  15.268   9.262   9.170  0.1312  0.1282  0.1090
 1342ERGO    C218824  15.201   9.281   8.849 -0.0365 -0.1224 -0.1468
 1343ERGO   ROH18825   2.816  12.818   9.685 -0.0743  0.0127  0.1251
 1343ERGO    R118826   3.006  12.839   9.476 -0.0879  0.0090  0.1126
 1343ERGO    R218827   3.002  12.675   9.254 -0.1109  0.0153  0.1098
 1343ERGO    R318828   3.000  12.911   9.119 -0.1082  0.0182  0.1145
 1343ERGO    R418829   3.084  12.711   8.920  0.0582  0.0441  0.1535
 1343ERGO    R518830   3.189  12.896   8.972 -0.0228  0.0754  0.2148
 1343ERGO    C118831   3.131  12.954   8.599  0.1591  0.0636  0.1835
 1343ERGO    C218832   3.060  13.089   8.286  0.0690 -0.0104  0.2264
 1344ERGO   ROH18833   4.814  14.176   9.679  0.0324  0.1572 -0.1107
 1344ERGO    R118834   5.011  14.277   9.503  0.0116  0.1088 -0.1630
 1344ERGO    R218835   5.234  14.130   9.429  0.0760  0.1366 -0.0420
 1344ERGO    R318836   5.147  14.186   9.178  0.0719 -0.0697 -0.0874
 1344ERGO    R418837   5.430  14.118   9.145  0.0437 -0.1628 -0.0536
 1344ERGO    R518838   5.331  14.298   9.074  0.0839 -0.2068 -0.2082
 1344ERGO    C118839   5.462  14.162   8.743  0.0210 -0.5309 -0.1029
 1344ERGO    C218840   5.593  13.914   8.550 -0.2001  0.1204  0.0238
 1345ERGO   ROH18841  18.082   3.798   6.165 -0.1558 -0.0841 -0.0069
 1345ERGO    R118842  17.981   3.675   6.398  0.1309 -0.1172  0.1028
 1345ERGO    R218843  18.103   3.700   6.645  0.0444  0.4497  0.0937
 1345ERGO    R318844  17.856   3.784   6.722 -0.1973 -0.1050 -0.0219
 1345ERGO    R418845  17.985   3.693   6.970  0.1154  0.6356  0.1254
 1345ERGO    R518846  17.792   3.629   6.893  0.2623 -0.0356  0.2382
 1345ERGO    C118847  17.685   3.768   7.232 -0.0701  0.2231  0.0353
 1345ERGO    C218848  17.497   3.723   7.589 -0.2277  0.0160 -0.0182
 1346ERGO   ROH18849  17.444   1.216   9.631  0.0583  0.0463  0.1139
 1346ERGO    R118850  17.392   1.338   9.381 -0.0423 -0.0583  0.0840
 1346ERGO    R218851  17.589   1.380   9.192 -0.0718  0.0858  0.0920
 1346ERGO    R318852  17.418   1.244   9.031  0.0671 -0.1104  0.1037
 1346ERGO    R418853  17.628   1.340   8.851 -0.1555  0.3390  0.0496
 1346ERGO    R518854  17.414   1.370   8.828 -0.2303  0.0057  0.1702
 1346ERGO    C118855  17.490   1.188   8.501 -0.0741  0.3023  0.0360
 1346ERGO    C218856  17.336   1.113   8.208 -0.0187  0.1750  0.2770
 1347ERGO   ROH18857  18.322   9.930   9.632 -0.0473 -0.0344  0.0212
 1347ERGO    R118858  18.393  10.012   9.370 -0.0819 -0.0129  0.0198
 1347ERGO    R218859  18.210  10.025   9.163 -0.1531  0.2095  0.1011
 1347ERGO    R318860  18.299  10.281   9.143  0.0593  0.1417  0.1393
 1347ERGO    R418861  18.270  10.190   8.866 -0.1084  0.2271  0.1185
 1347ERGO    R518862  18.448  10.277   8.956  0.0003  0.0554  0.0877
 1347ERGO    C118863  18.389  10.526   8.673  0.1168  0.1737  0.1646
 1347ERGO    C218864  18.454  10.476   8.353 -0.1863 -0.0185 -0.1524
 1348ERGO   ROH18865   2.884  18.344   9.870 -0.3207  0.2176 -0.1100
 1348ERGO    R118866   2.853  18.252   9.604 -0.0586  0.0822 -0.0974
 1348ERGO    R218867   2.791  18.420   9.395 -0.1791 -0.0686 -0.1892
 1348ERGO    R318868   3.014  18.311   9.283  0.0326  0.1906 -0.0316
 1348ERGO    R418869   2.854  18.406   9.055 -0.0648 -0.2675 -0.1611
 1348ERGO    R518870   2.933  18.205   9.083  0.2575 -0.1189  0.0371
 1348ERGO    C118871   3.100  18.296   8.752  0.2005 -0.1402  0.0033
 1348ERGO    C218872   3.050  18.307   8.320  0.4953 -0.1883  0.2497
 1349W        W18873   7.317   5.413  13.201 -0.1236 -0.1527  0.1835
 1350W        W18874  12.699   2.499   0.681  0.0563 -0.1219  0.0471
 1351W        W18875  15.178  17.982   2.610 -0.1551  0.2137 -0.1353
 1352W        W18876   3.943  10.994   0.354 -0.0901 -0.1259  0.2328
 1353W        W18877  16.328   7.382  13.372  0.2155  0.0175 -0.0024
 1354W        W18878   5.520  13.096  11.621 -0.1212 -0.2212  0.0369
 1355W        W18879  16.355   6.312  14.532 -0.0538  0.2949  0.0642
 1356W        W18880  15.524  14.831  13.842  0.0711  0.0487  0.1489
 1357W        W18881  15.071  11.695  12.902 -0.2245  0.0317  0.1962
 1358W        W18882  10.971   9.780   1.301 -0.0903  0.1222 -0.2516
 1359W        W18883   2.829   0.635   1.827  0.1062  0.0019 -0.0905
 1360W        W18884   2.414  11.445  10.937 -0.2848 -0.2861 -0.1661
 1361W        W18885  13.583   6.014  11.384 -0.3621 -0.2071 -0.0519
 1362W        W18886   7.928  17.442   4.605  0.2206  0.0924  0.2871
 1363W        W18887  11.550  12.436   5.416 -0.1981 -0.1651 -0.1677
 1364W        W18888  16.703   6.951  13.913  0.2239  0.0818  0.0587
 1365W        W18889   1.491  15.555  13.065 -0.1141 -0.2065  0.0551
 1366W        W18890  14.312   5.580   2.941  0.0204  0.0563 -0.2618
 1367W        W18891  16.130  13.290   0.183  0.0518  0.2247 -0.1669
 1368W        W18892   3.840   7.259   3.341  0.2247  0.4815  0.0815
 1369W        W18893  11.580   6.952   4.885  0.0604 -0.1956 -0.3206
 1370W        W18894   8.415   1.618   2.903 -0.0234  0.1270  0.1682
 1371W        W18895   9.262  16.049   3.976  0.1644 -0.0406 -0.2808
 1372W        W18896   4.200  17.312   3.727 -0.2689 -0.1879 -0.1801
 1373W        W18897   4.778   2.522   1.628  0.2341  0.0452  0.2791
 1374W        W18898   8.583   4.769  14.382 -0.0973 -0.4090 -0.2895
 1375W        W18899  10.339   4.289  13.066 -0.2386 -0.0124  0.1558
 1376W        W18900   7.825   4.416  13.998 -0.1169  0.1383 -0.0240
 1377W        W18901   8.471   7.828  13.587 -0.0410  0.1594 -0.3629
 1378W        W18902   1.034   0.954  13.953  0.0343 -0.1601  0.3396
 1379W        W18903  13.412  11.121   4.437 -0.0427 -0.1226  0.0296
 1380W        W18904   3.660  14.866   2.538 -0.3392  0.0974 -0.1338
 1381W        W18905   1.874   6.515  15.819  0.3134  0.1448  0.0513
 1382W        W18906   7.027  11.054   3.615 -0.2171 -0.3313 -0.1749
 1383W        W18907   6.806  13.654   2.344 -0.0560  0.1951  0.0983
 1384W        W18908  16.780   8.339  14.382 -0.1071 -0.0874  0.1368
 1385W        W18909   1.375   7.162   0.840  0.1490 -0.0307 -0.1937
 1386W        W18910  16.579   2.318   0.999 -0.0985 -0.0255 -0.0584
 1387W        W18911  16.528   1.529  14.337 -0.0447  0.0489 -0.3382
 1388W        W18912  12.661   8.943   2.968 -0.2539 -0.1404 -0.1556
 1389W        W18913   0.089   7.088   1.134 -0.0005  0.0063  0.1903
 1390W        W18914   6.938   9.432  11.154  0.0878  0.3085  0.0047
 1391W        W18915   6.465  14.078  15.670 -0.1134  0.1627  0.0867
 1392W        W18916   0.254   0.958  13.643 -0.0552 -0.1516  0.1714
 1393W        W18917   0.677  15.626  11.022  0.0142  0.2851 -0.0177
 1394W        W18918   6.776   8.773   3.910  0.1950  0.1596  0.1977
 1395W        W18919   5.016   0.838  11.471 -0.1291 -0.1748  0.0753
 1396W        W18920   6.439  13.365   4.835 -0.1652 -0.2174 -0.0145
 1397W        W18921  17.783  12.288   3.780 -0.0573 -0.1483  0.1675
 1398W        W18922  15.036  15.306   2.498 -0.1378 -0.1969  0.2215
 1399W        W18923  15.737  13.163  10.500  0.0839 -0.1684  0.2489
 1400W        W18924  16.069   6.175  12.377  0.0344  0.1432  0.1957
 1401W        W18925  17.929   4.910   0.462 -0.0300  0.0432 -0.2004
 1402W        W18926  13.791  11.664   3.750  0.0739 -0.1331 -0.1642
 1403W        W18927  13.924   8.377   0.485  0.0245 -0.1076 -0.3093
 1404W        W18928   4.777   0.045   4.011  0.1487  0.0033 -0.1469
 1405W        W18929  17.579   3.922   0.798 -0.2117 -0.2454  0.1344
 1406W        W18930   3.597   1.488   0.562 -0.1485 -0.3447  0.1134
 1407W        W18931  12.580   6.559   1.090  0.3951 -0.0566  0.0119
 1408W        W18932  15.049   1.535  13.844  0.3488 -0.2821  0.0679
 1409W        W18933  10.221   9.682   3.131 -0.0920 -0.1999  0.1364
 1410W        W18934   8.193   6.146   0.431 -0.4868  0.0990  0.1298
 1411W        W18935  12.989  11.320   2.021  0.3806 -0.0094 -0.0187
 1412W        W18936  17.350  10.323   2.023  0.3049 -0.2720 -0.0413
 1413W        W18937  16.276  13.273  14.564 -0.0173  0.2791 -0.5693
 1414W        W18938  10.007  14.849  15.077  0.4280  0.0205 -0.2411
 1415W        W18939  17.749   2.359   2.677 -0.0057  0.3970  0.1407
 1416W        W18940   8.692  16.651  12.777  0.0558  0.3042 -0.1790
 1417W        W18941   4.366  16.024  11.308  0.0502 -0.2427 -0.0567
 1418W        W18942  14.356  17.485   4.313  0.0696 -0.1307  0.1274
 1419W        W18943   3.647   3.590   4.954 -0.2454  0.1453 -0.0147
 1420W        W18944  18.356   8.042   3.161 -0.1020  0.2215  0.2005
 1421W        W18945   3.739  11.249   0.041  0.0714 -0.0600  0.1839
 1422W        W18946   1.186   5.400   0.889  0.3128 -0.1783  0.1196
 1423W        W18947   0.842   4.580  11.844 -0.1037  0.0956 -0.0494
 1424W        W18948  16.676  18.236   4.000 -0.2088 -0.2436 -0.3068
 1425W        W18949   6.810  10.095   1.761 -0.2863  0.4834 -0.3441
 1426W        W18950   1.568  16.372  11.318 -0.1003 -0.1749  0.0697
 1427W        W18951  12.554   3.360   0.834  0.1920  0.1261 -0.2236
 1428W        W18952   1.296   3.625   3.913 -0.2942 -0.1794 -0.0338
 1429W        W18953  15.741   9.172   4.239 -0.2096 -0.1443 -0.1865
 1430W        W18954  18.193   7.871  11.529 -0.0187 -0.2206 -0.3052
 1431W        W18955  10.382   0.129  14.594  0.0961 -0.2647 -0.3791
 1432W        W18956  10.695  14.389   4.117 -0.1935  0.1125  0.1192
 1433W        W18957   2.568  10.310   1.072 -0.1402 -0.4207 -0.1039
 1434W        W18958  11.768   6.169  13.026  0.2430 -0.0754  0.3214
 1435W        W18959   7.660   2.594  15.139 -0.1776 -0.2042  0.3325
 1436W        W18960   5.839   4.786   2.205 -0.1523 -0.0404 -0.3202
 1437W        W18961  15.132   9.036  15.101 -0.0207 -0.1153  0.0939
 1438W        W18962   9.381  13.066  12.006 -0.2377 -0.0211  0.0832
 1439W        W18963  17.746  13.533   2.116  0.3744  0.1239 -0.1423
 1440W        W18964   0.928   1.003   0.112 -0.2421  0.0624  0.1368
 1441W        W18965  14.034  11.984   2.235  0.3474 -0.1898 -0.1009
 1442W        W18966   1.348   9.692   3.493 -0.1875 -0.1241 -0.0472
 1443W        W18967  11.183   5.099   3.193 -0.1398  0.0119 -0.0041
 1444W        W18968  15.167  17.223   4.272 -0.1712 -0.0346  0.1758
 1445W        W18969  17.489  14.619  13.316  0.1069 -0.1031 -0.0130
 1446W        W18970  10.674   7.414  15.191  0.1750  0.1454  0.0702
 1447W        W18971   3.773  10.025   2.522  0.1740  0.2022  0.1012
 1448W        W18972  11.923   7.562   4.263  0.4259  0.1057  0.0305
 1449W        W18973  17.578   8.686   5.211 -0.2589 -0.0905 -0.1570
 1450W        W18974   8.300  16.589  11.636  0.2150  0.1426 -0.0094
 1451W        W18975  15.465   3.934  11.346  0.0856 -0.3554  0.0954
 1452W        W18976   0.264  10.742   1.706  0.0524 -0.1355  0.0613
 1453W        W18977  18.133  12.650   2.329 -0.2759 -0.1084 -0.0730
 1454W        W18978  15.729  15.158  11.470 -0.1050  0.3574  0.0107
 1455W        W18979   3.519   4.765  15.334  0.0306  0.0073 -0.1565
 1456W        W18980  12.071  17.973   2.686  0.0844  0.0100  0.0645
 1457W        W18981  17.329   1.651   2.239  0.4369  0.0441  0.0382
 1458W        W18982  12.481  14.109   3.132  0.4104 -0.0790 -0.1875
 1459W        W18983   3.265  13.619   4.924  0.2502 -0.1730 -0.0237
 1460W        W18984   2.587   8.750   2.221  0.1341  0.2096  0.2349
 1461W        W18985  11.890   0.226   1.943 -0.1310 -0.0131  0.0736
 1462W        W18986  16.305   3.247   4.434  0.3284 -0.1426  0.3405
 1463W        W18987  17.773   2.621  11.394 -0.0470 -0.2936  0.3749
 1464W        W18988  14.461  10.836   2.732 -0.0869 -0.0694  0.0655
 1465W        W18989  11.492   8.195   2.535 -0.0095  0.1511  0.0625
 1466W        W18990   0.631   4.084  11.752  0.1892  0.1584  0.0344
 1467W        W18991   4.700   5.640  11.030  0.1798 -0.0520 -0.2390
 1468W        W18992  16.390   7.530   3.490 -0.1405 -0.0085 -0.0884
 1469W        W18993  13.649  16.846   5.216 -0.0513  0.0128  0.3962
 1470W        W18994  10.894   0.711  13.824 -0.2318 -0.0190  0.0365
 1471W        W18995   3.900  14.565   0.893  0.3183 -0.1878 -0.1139
 1472W        W18996  16.956   9.310  12.928 -0.2608  0.0255  0.2472
 1473W        W18997   2.149   8.896  15.004  0.1147 -0.3328  0.1880
 1474W        W18998   5.416   0.330  13.727 -0.1253  0.0763 -0.0365
 1475W        W18999   5.773   2.835  15.495  0.0112 -0.1603 -0.0637
 1476W        W19000   8.200   2.030   1.315 -0.1994 -0.3527 -0.0531
 1477W        W19001  10.628  10.036  14.281  0.3160 -0.1271  0.2230
 1478W        W19002  13.101   7.711   0.460  0.1385  0.0422 -0.2299
 1479W        W19003   8.443   5.955  13.951  0.1348 -0.2054 -0.1331
 1480W        W19004   1.813   8.792  15.564  0.1656  0.0758  0.0319
 1481W        W19005  13.591   0.982  13.014 -0.1429  0.0857  0.1801
 1482W        W19006   4.578  15.332   4.350  0.1811 -0.1127 -0.0851
 1483W        W19007   7.007   6.020  15.754  0.1257 -0.0963  0.1091
 1484W        W19008  17.152   6.924   3.956 -0.2057  0.0591  0.1317
 1485W        W19009   9.720   2.815   2.280  0.0407  0.0298 -0.2005
 1486W        W19010   7.490   1.548   3.111 -0.0025 -0.2586  0.3403
 1487W        W19011  15.163   3.684  12.192 -0.1375  0.2817 -0.1032
 1488W        W19012   3.015   1.283   0.629  0.2801 -0.1787 -0.0359
 1489W        W19013   2.641  16.432  13.075  0.2667  0.1545  0.0908
 1490W        W19014  14.047   6.004  11.660 -0.1084  0.3298 -0.1249
 1491W        W19015   4.220   1.680  11.727  0.0726 -0.2931 -0.1695
 1492W        W19016   5.773  10.979  15.822  0.2058  0.3209  0.2949
 1493W        W19017  16.497   3.719  12.507  0.0720 -0.3648 -0.2427
 1494W        W19018  18.155   4.484  15.227 -0.0954  0.1387  0.2997
 1495W        W19019  13.885  15.333  11.983  0.1714 -0.4962 -0.1693
 1496W        W19020  16.521   9.409  11.200 -0.0413 -0.1947 -0.0375
 1497W        W19021  17.657  18.190  15.095  0.5466  0.3363  0.0869
 1498W        W19022   3.905   1.354  13.723  0.1498 -0.3129 -0.2691
 1499W        W19023   0.601   9.151   3.386 -0.3305 -0.0667  0.1190
 1500W        W19024  10.015   1.415  14.199 -0.2737 -0.4815  0.2945
 1501W        W19025   6.248   9.847  11.783  0.1363  0.0308 -0.1616
 1502W        W19026   3.569   2.365   1.594  0.0061 -0.0108 -0.1164
 1503W        W19027   3.526  13.048  12.623  0.0458  0.0845 -0.2914
 1504W        W19028   5.046  11.559  15.711 -0.1758  0.0467  0.0463
 1505W        W19029   1.657  11.484  15.786  0.0266 -0.0232 -0.1497
 1506W        W19030   5.434  14.517  11.278  0.6062  0.2358  0.1226
 1507W        W19031  12.428   9.849   4.869 -0.1875  0.3015 -0.2160
 1508W        W19032   5.185  12.647   1.425  0.0362 -0.0879  0.0007
 1509W        W19033  13.060   6.718  12.536 -0.0133 -0.2910 -0.0249
 1510W        W19034  17.414  14.280  11.464 -0.1670  0.1414 -0.2670
 1511W        W19035   1.655  11.471  13.707 -0.0115 -0.4972  0.1440
 1512W        W19036   3.845   5.403   3.225  0.0015  0.0955  0.0192
 1513W        W19037  15.133   4.418  13.745  0.0089  0.0026 -0.0335
 1514W        W19038   2.660  14.664   3.436  0.2011  0.2500 -0.3666
 1515W        W19039   9.289   2.562   3.185 -0.1249  0.0792  0.0638
 1516W        W19040   8.580  11.700  12.253 -0.0738  0.0492  0.1562
 1517W        W19041  12.995   0.820  13.856  0.0128  0.2089  0.0611
 1518W        W19042  17.043   7.820   1.005 -0.5283 -0.1036 -0.0361
 1519W        W19043  15.132  11.423  14.815  0.1231 -0.2266 -0.3353
 1520W        W19044  16.069   2.783   1.582  0.3720 -0.0201  0.0477
 1521W        W19045   8.716   1.100  13.863  0.0670 -0.0071 -0.3013
 1522W        W19046   6.486   4.381  13.569 -0.0558  0.0289 -0.0883
 1523W        W19047   0.837  16.183  15.421 -0.0205  0.0862 -0.1546
 1524W        W19048   9.741   4.627   2.861 -0.1255 -0.0336  0.0951
 1525W        W19049   3.384   1.823  13.106  0.0411  0.0944  0.0723
 1526W        W19050  17.865  13.920  15.555  0.2514  0.0824  0.0737
 1527W        W19051   1.944   6.997  10.879 -0.1040 -0.1779  0.0950
 1528W        W19052  10.113   5.631  14.853 -0.2674 -0.0031 -0.1780
 1529W        W19053   4.549  13.550  14.635 -0.0961  0.0096 -0.1448
 1530W        W19054  13.590  13.671   2.479  0.0501 -0.0136  0.2793
 1531W        W19055   2.952  13.805  12.547 -0.0468  0.1106 -0.2916
 1532W        W19056   2.473   6.605   9.696  0.1165  0.2522 -0.2133
 1533W        W19057  11.482  11.640  11.816 -0.1142 -0.0265  0.2149
 1534W        W19058  16.113  13.917   3.407 -0.2103 -0.0461  0.1104
 1535W        W19059  13.471   4.390   5.444  0.1050  0.0700  0.2582
 1536W        W19060   2.479   1.453   2.106 -0.2205  0.1730  0.0478
 1537W        W19061   8.904  12.898   4.689 -0.0562 -0.3362 -0.2505
 1538W        W19062   4.275   8.293   1.097  0.3952 -0.4715 -0.1584
 1539W        W19063  16.504  18.263  14.814  0.2905  0.1475  0.0243
 1540W        W19064   4.405  15.649  14.954 -0.0400 -0.0700  0.4178
 1541W        W19065  13.380   2.712   3.142 -0.0120  0.0547  0.2180
 1542W        W19066   0.951  10.313  12.444  0.0671 -0.1180 -0.0492
 1543W        W19067  18.406   6.159  14.766  0.0322  0.0701 -0.1132
 1544W        W19068   1.399   3.671  11.639 -0.0002 -0.0766 -0.0096
 1545W        W19069  13.776   5.132   0.772  0.1683 -0.1853 -0.1956
 1546W        W19070  14.253   4.204  10.335 -0.0811  0.1725 -0.2883
 1547W        W19071   7.133   4.622   2.552 -0.2896 -0.1024  0.0093
 1548W        W19072  18.248   8.944   1.391  0.0989  0.0187  0.1228
 1549W        W19073   3.257   1.764  13.580  0.0555 -0.0080  0.3503
 1550W        W19074   9.315   2.332   1.534  0.0442  0.1614 -0.2082
 1551W        W19075   2.947  16.216  11.940 -0.0414  0.2451  0.0787
 1552W        W19076  10.440  14.100  12.095  0.2512 -0.0356  0.0501
 1553W        W19077  17.548   5.574   2.947  0.0671 -0.0982  0.1030
 1554W        W19078  12.284  10.232  13.639 -0.6213  0.2583  0.2624
 1555W        W19079  12.720  17.295  13.987  0.0537 -0.0114  0.1497
 1556W        W19080  11.823   9.863  14.872  0.2571 -0.2493 -0.0308
 1557W        W19081   5.233  12.701  11.812 -0.0572 -0.0462  0.1085
 1558W        W19082  11.461   1.250   0.592 -0.2318 -0.4431 -0.1762
 1559W        W19083  15.183   8.519  14.939 -0.0475  0.0711 -0.0754
 1560W        W19084   4.432   2.877  12.077  0.2123 -0.3624 -0.0879
 1561W        W19085  16.557  11.141  14.854  0.0548  0.2021 -0.2028
 1562W        W19086   5.000   9.960  13.167 -0.1837 -0.1169 -0.1733
 1563W        W19087   0.126  12.358   2.147  0.2336  0.1233  0.1485
 1564W        W19088   3.868   2.780   0.096  0.2096  0.4353 -0.2005
 1565W        W19089   0.761  16.143   4.575 -0.1527  0.4199 -0.2480
 1566W        W19090  13.396  15.424  13.948 -0.2280 -0.1351 -0.0379
 1567W        W19091  17.114  13.968  13.462 -0.2339 -0.0072 -0.0111
 1568W        W19092   1.912   7.282  12.944 -0.1804  0.2026 -0.0197
 1569W        W19093   3.116   7.872   0.172  0.1107 -0.2321 -0.0763
 1570W        W19094  10.013  12.154   4.718 -0.0243  0.0093  0.4561
 1571W        W19095  15.390   7.068  14.482  0.1594  0.2074  0.1176
 1572W        W19096   9.485   5.713   0.561  0.0090 -0.0010 -0.0955
 1573W        W19097  11.159  14.159   0.262 -0.1178  0.2440 -0.0831
 1574W        W19098  10.562   3.416  15.227 -0.0580  0.1580 -0.0888
 1575W        W19099   6.045   5.396   4.334  0.0206  0.1878 -0.0841
 1576W        W19100  11.801  17.391  13.440 -0.1404  0.3798 -0.1222
 1577W        W19101  17.915   9.634   2.349  0.0507  0.4219  0.4144
 1578W        W19102   1.762   3.319  12.777 -0.0144 -0.3221  0.2281
 1579W        W19103   3.392   7.175  13.811  0.2303  0.2144  0.1386
 1580W        W19104  15.694  12.170   1.852  0.2499 -0.1362 -0.1260
 1581W        W19105   8.330  13.079   1.126 -0.0055 -0.2635  0.0933
 1582W        W19106   3.304  13.008   9.780 -0.0729 -0.1286  0.0781
 1583W        W19107   3.221   3.351   1.910 -0.1430 -0.0633  0.0920
 1584W        W19108   4.298  16.096   1.101 -0.3500  0.3510 -0.2426
 1585W        W19109   4.084  15.032   0.599  0.1536 -0.0308 -0.0606
 1586W        W19110  13.514   0.367   3.564  0.0659 -0.3518 -0.0447
 1587W        W19111   9.514   1.769  15.224  0.0315  0.3685  0.0568
 1588W        W19112   1.438   7.808  11.020  0.1460 -0.5892 -0.1058
 1589W        W19113  11.315  12.630   3.526  0.0022  0.1703  0.2424
 1590W        W19114   8.632   4.348  11.511 -0.0444  0.0950  0.1257
 1591W        W19115   6.017   3.471   5.052  0.1184 -0.1047 -0.0367
 1592W        W19116   1.573   3.843   0.056  0.3084 -0.1322  0.0748
 1593W        W19117   7.143  11.472  14.105  0.1887 -0.1240 -0.3589
 1594W        W19118   7.123   7.828  12.314 -0.2117 -0.1045 -0.2562
 1595W        W19119  16.579   9.928  10.963 -0.0501 -0.0209  0.1739
 1596W        W19120   4.115   2.379   2.365  0.0848  0.0364  0.2035
 1597W        W19121   6.286   9.738  12.277  0.1391  0.3090  0.0996
 1598W        W19122  14.450  13.326   4.671  0.0583  0.0805  0.0511
 1599W        W19123   8.275   4.362   3.208  0.0162 -0.3368  0.3366
 1600W        W19124   5.419   7.638  14.418  0.0747 -0.2180  0.2823
 1601W        W19125  10.658  12.042  14.968 -0.0019  0.0767 -0.1802
 1602W        W19126   6.770   7.217  13.212 -0.1871 -0.2425  0.2323
 1603W        W19127  12.464  11.743  13.321  0.1143  0.2872  0.4503
 1604W        W19128   3.588  10.897  14.952 -0.2070  0.3261  0.0488
 1605W        W19129   6.611   5.086   1.374 -0.1319  0.1065 -0.3048
 1606W        W19130  10.890   3.487  13.012 -0.0383  0.1402  0.1570
 1607W        W19131  16.847  10.474  11.321 -0.0686 -0.2331 -0.2605
 1608W        W19132   5.117   2.135  13.932 -0.3637 -0.0227 -0.1210
 1609W        W19133  15.927   3.631   3.620 -0.0368 -0.2516  0.1485
 1610W        W19134   7.531   2.574   1.987  0.1535  0.2793 -0.1543
 1611W        W19135  11.316   4.007   1.607  0.0451  0.0027 -0.0598
 1612W        W19136  17.692  13.908  12.229  0.0917 -0.2721  0.0767
 1613W        W19137  13.947   1.770   5.020 -0.1291 -0.0485  0.0873
 1614W        W19138   4.311   5.813  14.605 -0.1149  0.3915  0.1008
 1615W        W19139  13.098   9.964  14.628 -0.1609  0.0436  0.0113
 1616W        W19140   2.935  16.148   1.448  0.1357 -0.2243 -0.0568
 1617W        W19141   7.983  12.587  14.412 -0.2753 -0.2047 -0.0997
 1618W        W19142  10.837   4.720   3.695  0.2171  0.3173  0.0136
 1619W        W19143  13.616  16.827   2.312  0.0904  0.1044 -0.2061
 1620W        W19144  16.203   2.172   2.498  0.0418  0.4818  0.2497
 1621W        W19145   2.791   8.594  14.272 -0.2011  0.1882  0.0337
 1622W        W19146  15.943   9.320  15.170  0.4002 -0.0470 -0.0035
 1623W        W19147  10.335  14.657   2.533  0.1592 -0.0011 -0.2313
 1624W        W19148   5.918  16.000  14.616 -0.2146 -0.2782 -0.0635
 1625W        W19149   1.232  14.022   4.933  0.1390 -0.3146  0.1468
 1626W        W19150   4.821  11.827  13.837 -0.1585 -0.0687  0.0782
 1627W        W19151   5.341  16.889  11.151  0.0348  0.4263  0.3235
 1628W        W19152   9.794   1.710  14.556  0.3167 -0.0965  0.0419
 1629W        W19153  10.045   7.126   0.372  0.1004 -0.3555  0.0444
 1630W        W19154   5.752   7.539  15.515 -0.1822 -0.0482 -0.1196
 1631W        W19155  17.461  15.479  13.899 -0.0916 -0.1226  0.0249
 1632W        W19156   0.597   3.496  14.801 -0.1783 -0.0062 -0.1178
 1633W        W19157  17.733   9.586   0.319  0.2053  0.3091  0.1824
 1634W        W19158   4.618  10.690   0.460  0.0050  0.0813  0.1204
 1635W        W19159   1.577  16.161   4.788 -0.0644  0.0366  0.4318
 1636W        W19160  14.412   0.687  15.436  0.1502 -0.0968  0.1246
 1637W        W19161   6.790   8.883   1.238  0.1961  0.5167 -0.2943
 1638W        W19162   2.454   2.104  12.612  0.1474  0.0403 -0.1601
 1639W        W19163   0.782  17.148   2.702  0.1294 -0.0419  0.2823
 1640W        W19164   6.099  16.840   3.608 -0.1403  0.4365 -0.0011
 1641W        W19165   4.867   3.458   1.534 -0.0573 -0.0833 -0.2114
 1642W        W19166   7.666  12.853  13.889  0.0395  0.1239 -0.2670
 1643W        W19167   4.334  15.147   5.319 -0.2016  0.0463  0.0732
 1644W        W19168  18.199   9.815   1.173  0.1547  0.0328  0.3449
 1645W        W19169   4.848   2.483  12.495 -0.2513  0.0531  0.2752
 1646W        W19170   0.106  12.051  10.937  0.0653 -0.1350  0.0028
 1647W        W19171   9.017   6.345  15.710  0.0376 -0.2586 -0.1675
 1648W        W19172  14.173  16.488  15.506  0.2145 -0.0066  0.3062
 1649W        W19173   5.609  16.592   0.952  0.0206 -0.2254 -0.0698
 1650W        W19174  17.653   7.042   0.866  0.2076 -0.1586  0.3119
 1651W        W19175  12.582   6.958  13.629 -0.4199  0.1253  0.2205
 1652W        W19176  13.555   3.142  13.715 -0.0218  0.1443 -0.1386
 1653W        W19177  14.561   7.529   3.050  0.0268  0.2904  0.2229
 1654W        W19178  12.328  14.163   0.900 -0.0377  0.0183 -0.2438
 1655W        W19179   9.346   1.951  12.258 -0.1469  0.1776  0.0259
 1656W        W19180  16.248  13.386   2.530 -0.1523 -0.1036  0.0741
 1657W        W19181   4.033   5.924  11.711 -0.1159 -0.0427  0.1029
 1658W        W19182   9.019  13.893  12.266 -0.2672  0.1001 -0.1414
 1659W        W19183  14.676   7.181   0.529 -0.0366 -0.0268 -0.0383
 1660W        W19184  12.146   0.302   0.232 -0.1446  0.0933 -0.2012
 1661W        W19185  17.697   2.714   3.256  0.1100  0.1597 -0.0027
 1662W        W19186   8.892   7.752  15.470 -0.0020 -0.2056 -0.1452
 1663W        W19187  12.436   5.483  11.914  0.2865 -0.0166 -0.1729
 1664W        W19188   8.754  12.704  12.679  0.2974  0.1010  0.0001
 1665W        W19189  11.295  15.742   0.664 -0.0470  0.0080 -0.2855
 1666W        W19190   9.622   0.069   1.835  0.0753 -0.2763  0.1793
 1667W        W19191   6.962   9.997   1.303  0.0582 -0.1367  0.1746
 1668W        W19192  11.101  16.622  13.459  0.0155  0.1642  0.0047
 1669W        W19193  12.702   6.167   3.570 -0.3691  0.1101 -0.2799
 1670W        W19194  14.295   3.410  13.055 -0.3501 -0.3166 -0.1186
 1671W        W19195  15.867  12.469   3.753 -0.5610  0.1621 -0.0554
 1672W        W19196   4.846   1.106   3.431 -0.1623  0.0962 -0.1167
 1673W        W19197  13.079  16.587   0.387  0.1816 -0.0732 -0.0550
 1674W        W19198   9.670  16.169  14.639  0.1018 -0.1041 -0.1297
 1675W        W19199   5.629   4.327   1.102  0.2412 -0.0874 -0.2614
 1676W        W19200  17.567   4.350   3.631 -0.3511 -0.0528 -0.0340
 1677W        W19201  15.250   4.107   4.574  0.1245 -0.0536  0.3043
 1678W        W19202  16.124  15.574   4.866 -0.0458  0.2380  0.0651
 1679W        W19203   0.587  13.091   4.136 -0.1707  0.1095 -0.4667
 1680W        W19204  13.821  14.295  11.744  0.2525 -0.0790 -0.1476
 1681W        W19205   7.557   6.781   2.104  0.1374 -0.2129  0.0595
 1682W        W19206   0.568   0.759  15.629 -0.1330 -0.1604 -0.2969
 1683W        W19207   7.011  17.336   3.334 -0.1125  0.1161 -0.0886
 1684W        W19208   7.775   1.975   5.273 -0.0897  0.2242 -0.2647
 1685W        W19209   4.564  17.921   2.579 -0.3783 -0.0846  0.2302
 1686W        W19210  13.173   6.892   4.592  0.1614  0.2314 -0.1858
 1687W        W19211   8.118  14.655   3.609  0.1457 -0.0314  0.1404
 1688W        W19212   6.129   8.673  11.649  0.2126  0.0767 -0.1524
 1689W        W19213   8.754   9.972  12.068 -0.0205 -0.1190 -0.1275
 1690W        W19214  14.182   1.358   0.833  0.1826 -0.0307  0.1195
 1691W        W19215   2.772   9.263   4.672 -0.1474 -0.0185  0.0936
 1692W        W19216   9.885   7.969  12.316  0.1448  0.2374  0.1742
 1693W        W19217  10.695  16.542   3.045  0.1381 -0.1053 -0.3485
 1694W        W19218   7.350  16.854   3.991 -0.2974  0.1674  0.3936
 1695W        W19219  17.549   6.420   1.921  0.0209 -0.4451 -0.3067
 1696W        W19220  13.982   6.075   0.322 -0.0832 -0.2178 -0.0118
 1697W        W19221  14.019   0.817   4.876 -0.2420  0.2642  0.1219
 1698W        W19222  14.689   4.387   1.124  0.1536 -0.0044 -0.1824
 1699W        W19223  14.115   0.435   3.288 -0.1790  0.1098  0.0969
 1700W        W19224   0.644  15.396  12.647 -0.3254  0.1771  0.2273
 1701W        W19225   1.764   5.587  15.366 -0.1909 -0.0053  0.1357
 1702W        W19226  18.261   0.378   0.428  0.0541  0.0454  0.1626
 1703W        W19227  12.165  13.441   2.030 -0.0372 -0.2097  0.2936
 1704W        W19228   7.026   1.511  14.364  0.1467 -0.1670 -0.0570
 1705W        W19229  17.203   3.884  13.439  0.1767  0.3564 -0.0173
 1706W        W19230   6.830   1.297  13.421 -0.2464  0.1107 -0.1183
 1707W        W19231  13.723  13.354  14.991 -0.0777 -0.1853 -0.0708
 1708W        W19232  16.265  14.669   4.593 -0.0316  0.1583  0.1256
 1709W        W19233  10.270   8.315  12.563  0.4987 -0.2500  0.3223
 1710W        W19234   2.221  13.458   3.867  0.2243 -0.0651 -0.2673
 1711W        W19235  14.547   0.006  10.385 -0.0979  0.3275  0.1180
 1712W        W19236  15.834   6.616  12.361 -0.0474  0.0660  0.2317
 1713W        W19237   0.905  14.254  14.055  0.2907 -0.2054  0.0364
 1714W        W19238  14.758   8.709   2.011 -0.0185 -0.3268 -0.0822
 1715W        W19239   9.217  18.406  11.717  0.0762  0.0161  0.2147
 1716W        W19240   1.355   8.283   1.652 -0.2110 -0.0521 -0.0910
 1717W        W19241   1.227  16.447   4.389  0.0335  0.1348 -0.0535
 1718W        W19242  15.219  16.000   3.287 -0.2831  0.0427  0.0040
 1719W        W19243  14.137   2.601   0.770  0.1358  0.1215  0.0042
 1720W        W19244   4.689   6.425   2.504  0.4061  0.0365  0.2598
 1721W        W19245  15.572   5.043  13.219  0.0651 -0.1059 -0.0569
 1722W        W19246  16.104  10.312   1.695  0.3575  0.1271 -0.0907
 1723W        W19247  13.315   5.733  11.784 -0.2539  0.0303 -0.0167
 1724W        W19248   1.117   5.690   1.704 -0.1091  0.0414  0.0011
 1725W        W19249   1.269  18.077   1.312 -0.1259 -0.0815 -0.1116
 1726W        W19250  12.074   1.798   0.989 -0.0408  0.0023  0.0504
 1727W        W19251   2.454   1.010   1.812 -0.2093  0.2396 -0.1295
 1728W        W19252  15.194  15.120  12.872 -0.1573  0.0736 -0.0333
 1729W        W19253   2.633   8.521   0.722  0.1722  0.2109 -0.2406
 1730W        W19254   9.159  18.250  13.722  0.1726 -0.5771  0.5124
 1731W        W19255  13.536   8.909   4.414  0.2246  0.2592 -0.1652
 1732W        W19256   1.174   4.850  11.192  0.2965  0.0403 -0.1861
 1733W        W19257   2.210   6.161  11.434  0.0334 -0.1357  0.1890
 1734W        W19258  17.196   9.092  14.310  0.3465  0.1435  0.3012
 1735W        W19259  12.139  17.519   2.964 -0.0767  0.1126 -0.3753
 1736W        W19260  13.950  17.132  14.382  0.0354  0.0000 -0.0252
 1737W        W19261   3.448   1.441   3.905 -0.3228  0.1860  0.2052
 1738W        W19262  16.679  14.489   3.969 -0.1472  0.0464 -0.1317
 1739W        W19263  10.325  12.787   0.679 -0.2126 -0.2857  0.1299
 1740W        W19264  14.261   9.527  14.045 -0.1681  0.1741  0.0915
 1741W        W19265  16.788  15.900   0.435  0.0940 -0.6663  0.1470
 1742W        W19266  12.145  14.336   4.960  0.2144  0.1150  0.2010
 1743W        W19267   6.705  12.824   4.109  0.2529  0.2208  0.0114
 1744W        W19268   9.722   0.203   0.534  0.1204  0.1242 -0.0397
 1745W        W19269  10.337   3.054   2.419  0.2341  0.1688  0.1969
 1746W        W19270   1.040   3.763  12.107  0.1203  0.0797  0.2866
 1747W        W19271   2.035  14.308  14.482 -0.2987 -0.0229  0.1271
 1748W        W19272  16.778  14.491   4.477  0.3951 -0.0561 -0.0963
 1749W        W19273   8.577   0.582   1.731 -0.3658  0.0169  0.3451
 1750W        W19274  17.713  18.025   1.362 -0.0393 -0.1802 -0.1794
 1751W        W19275   4.331   0.912  14.172  0.3066  0.2780 -0.2288
 1752W        W19276   5.698  15.764   3.795  0.0292 -0.0530 -0.2593
 1753W        W19277  10.423   4.445  11.991 -0.0625 -0.2231 -0.1767
 1754W        W19278   4.758  16.227   4.589 -0.1160 -0.1984 -0.1325
 1755W        W19279   4.587  13.002  11.904 -0.0512  0.2176  0.0598
 1756W        W19280   0.240   9.839   0.588  0.0096  0.1003 -0.2120
 1757W        W19281   8.391   0.429   3.194  0.0246 -0.3055 -0.1788
 1758W        W19282  13.939  15.124  12.437 -0.0082  0.0712  0.1076
 1759W        W19283   1.747  10.142   3.247  0.1047  0.1129 -0.0515
 1760W        W19284   7.091   3.435   4.346  0.0372 -0.0411  0.3007
 1761W        W19285   7.936   8.250   4.506 -0.3155 -0.1551 -0.1400
 1762W        W19286  18.281   6.739   1.466  0.0071  0.2302  0.2198
 1763W        W19287   3.320   9.147   3.781  0.1278 -0.0593 -0.0852
 1764W        W19288  17.861  15.104  13.962 -0.1449 -0.0652  0.1576
 1765W        W19289   1.163   8.152  11.376 -0.2621  0.4619 -0.0295
 1766W        W19290  13.788   7.291   1.381  0.1069 -0.0804  0.2289
 1767W        W19291   4.283  17.320  11.859  0.0288  0.3087  0.0502
 1768W        W19292   6.484  10.849  14.814  0.3201 -0.1920 -0.0817
 1769W        W19293  11.933   0.277   4.167  0.0587  0.0219  0.0630
 1770W        W19294  16.682   9.720  13.327  0.1794 -0.0022 -0.1147
 1771W        W19295  12.590  10.140   3.467 -0.0612  0.0656 -0.1493
 1772W        W19296  16.641   5.866  14.548  0.0853  0.0974 -0.0861
 1773W        W19297  11.581   7.026  13.787  0.2129 -0.2329 -0.0322
 1774W        W19298  10.778  12.997   2.812  0.3453  0.0081 -0.1417
 1775W        W19299   7.775   8.875  15.529 -0.0643  0.2545 -0.0615
 1776W        W19300   8.490   3.102   3.216 -0.0319 -0.1820 -0.0258
 1777W        W19301  14.971   5.677  14.802 -0.1514 -0.0691 -0.1202
 1778W        W19302  10.274   4.501  15.652  0.0909  0.1449 -0.2903
 1779W        W19303   0.072  15.629  11.774  0.1218  0.0403 -0.1171
 1780W        W19304   4.117   6.973  10.430  0.2340 -0.0568  0.2696
 1781W        W19305  11.834  11.914  13.440  0.3215  0.1703 -0.0281
 1782W        W19306  13.657   7.742   3.543 -0.1071 -0.0462 -0.0228
 1783W        W19307  11.362  12.592  13.964  0.1450 -0.1441  0.1788
 1784W        W19308  15.926  10.806   0.113 -0.1020  0.3967 -0.3497
 1785W        W19309  12.207  16.533   2.876  0.0351  0.3705 -0.0628
 1786W        W19310   5.027  10.432  14.127 -0.1583 -0.1557  0.0937
 1787W        W19311  13.362  16.241   3.617 -0.0799  0.1190  0.0610
 1788W        W19312  15.303   0.071  15.680 -0.2210  0.0385 -0.2215
 1789W        W19313   8.537  18.118  15.335  0.0317  0.2221 -0.0845
 1790W        W19314  11.573  17.734  14.292  0.2141  0.0683  0.0254
 1791W        W19315   1.102   5.650   2.184 -0.2282 -0.1874 -0.1691
 1792W        W19316   1.689   2.544   3.008 -0.0325  0.0026 -0.2471
 1793W        W19317  12.238  12.768  12.470  0.1863  0.0139 -0.1705
 1794W        W19318  11.776   3.684   1.591  0.1801  0.0271  0.1282
 1795W        W19319   0.538  16.077   3.051  0.0445 -0.0458 -0.0424
 1796W        W19320   6.086   3.226  13.477  0.1484 -0.2491 -0.0392
 1797W        W19321  12.330   7.584   0.186 -0.0606  0.1227 -0.0785
 1798W        W19322   3.824   3.824  14.981  0.2206 -0.1738 -0.1029
 1799W        W19323   2.143   6.237  14.842 -0.1113 -0.1104 -0.1560
 1800W        W19324   8.660  16.429  13.697 -0.1370  0.1681  0.3253
 1801W        W19325   9.458  12.880  14.659  0.1912  0.1479  0.1789
 1802W        W19326  10.912   4.152  11.344  0.0605  0.1419  0.1029
 1803W        W19327   4.571   1.022  11.365 -0.0759  0.1685  0.0170
 1804W        W19328  16.813  15.441   0.996  0.0167 -0.0152 -0.0267
 1805W        W19329   1.336   1.015  12.296  0.0707  0.0321 -0.1953
 1806W        W19330  12.908   9.423  11.693 -0.1768 -0.1330 -0.0521
 1807W        W19331   1.195   0.796  10.047 -0.2123  0.0767  0.1065
 1808W        W19332  15.402   1.933   4.966  0.0426 -0.2305  0.2105
 1809W        W19333   7.045  14.893  15.311  0.2239 -0.0804 -0.0724
 1810W        W19334  12.670  10.693   2.877  0.0236 -0.1824  0.2490
 1811W        W19335  11.047  10.776  14.958  0.1144  0.1286 -0.1489
 1812W        W19336   4.270   9.360  13.561  0.1361  0.3514  0.3287
 1813W        W19337   3.107  12.584  11.708  0.2553 -0.1411  0.1155
 1814W        W19338   8.961  12.769  14.531 -0.2559  0.0849  0.2024
 1815W        W19339  12.663  16.400  15.521 -0.1973 -0.2182 -0.0404
 1816W        W19340  10.574   2.737  14.802 -0.0189  0.1589  0.2912
 1817W        W19341  12.536   8.003  12.656  0.1603 -0.3321  0.2937
 1818W        W19342   1.816  17.444  11.862  0.0863 -0.5207  0.1639
 1819W        W19343   8.830  17.144  15.423  0.1467 -0.0264 -0.0775
 1820W        W19344  14.997   3.830  12.646 -0.0378  0.0639  0.1988
 1821W        W19345   1.137   6.780  13.376  0.3087  0.1946  0.0505
 1822W        W19346  12.735   8.947   5.655  0.2514 -0.1527 -0.3140
 1823W        W19347   9.170   7.243   0.268 -0.1570  0.1068  0.1898
 1824W        W19348   0.232  17.293   3.317 -0.1050 -0.1140  0.0444
 1825W        W19349   0.848   0.560  13.118  0.0644 -0.1510 -0.0348
 1826W        W19350   8.434  12.932   4.865 -0.2546  0.3191 -0.2710
 1827W        W19351   2.545   4.106  11.929 -0.3002  0.3896  0.3722
 1828W        W19352   0.064   1.443  14.220 -0.0674  0.1104 -0.2661
 1829W        W19353  16.016   8.463   4.725  0.1713  0.1745 -0.1379
 1830W        W19354   4.997   6.496  14.908 -0.2673 -0.0862  0.2753
 1831W        W19355  12.692   6.870   0.222 -0.0539  0.3368  0.1788
 1832W        W19356  10.685   6.501  11.515 -0.0227  0.2203 -0.0057
 1833W        W19357  13.860  14.185   3.219  0.4512  0.2952 -0.0568
 1834W        W19358   5.160  17.456  15.543 -0.0939  0.0091 -0.0496
 1835W        W19359  16.409   4.809  11.962 -0.0267  0.0156  0.1501
 1836W        W19360   1.854   9.724   1.613 -0.3822  0.1508 -0.1076
 1837W        W19361   9.978   2.036   0.935 -0.2354 -0.0232 -0.1518
 1838W        W19362   9.498   2.050  12.887 -0.0214  0.1369  0.2087
 1839W        W19363   2.762  17.954   0.049 -0.0677  0.1095  0.0510
 1840W        W19364  12.670  10.918   0.839 -0.0175 -0.0659 -0.1190
 1841W        W19365  15.764  12.159  11.822  0.1314  0.1733  0.1983
 1842W        W19366  14.691  12.204  10.411  0.1391  0.1760 -0.0621
 1843W        W19367   7.828  18.002   1.343 -0.2827  0.0800  0.0645
 1844W        W19368   8.218  10.922  12.963  0.4685  0.2642  0.1321
 1845W        W19369  15.119   4.747   0.379  0.0570  0.1304  0.4210
 1846W        W19370  17.040   0.904   1.529 -0.0052  0.2434 -0.1154
 1847W        W19371  16.170  17.203   4.329 -0.0154  0.0884  0.1017
 1848W        W19372   3.663  12.974  11.029 -0.1310 -0.0651 -0.0995
 1849W        W19373   8.776  10.992   1.634  0.1595 -0.2408  0.0718
 1850W        W19374  13.653  11.600   2.030 -0.4078 -0.0763  0.0735
 1851W        W19375   8.642  12.386   0.626  0.2663  0.2511 -0.0115
 1852W        W19376  13.611  13.778  11.834 -0.3650 -0.0978 -0.1120
 1853W        W19377   6.307   1.623   4.402  0.0738 -0.1456 -0.2249
 1854W        W19378  16.602   0.628   5.822 -0.3460  0.0846 -0.1653
 1855W        W19379   6.527   8.016   0.054 -0.1709  0.2994  0.2300
 1856W        W19380   0.951   4.602  14.776 -0.3958  0.0264  0.0288
 1857W        W19381   8.827   7.333  15.056 -0.0092  0.1574  0.4290
 1858W        W19382  11.070  13.859   1.433  0.0216 -0.3281 -0.2453
 1859W        W19383  14.019   6.586  14.662  0.5619 -0.2622 -0.0902
 1860W        W19384  16.953   4.764   1.403 -0.1209  0.1369 -0.1610
 1861W        W19385   3.099  16.720   2.583  0.1444  0.0233 -0.0761
 1862W        W19386  16.466  15.475  12.317 -0.1399 -0.3400 -0.0157
 1863W        W19387  14.292   2.081   1.484  0.0214 -0.1288  0.0680
 1864W        W19388   4.473  17.703   6.141 -0.2589  0.1512  0.0428
 1865W        W19389   9.978   5.075  12.543  0.4404 -0.0131 -0.1992
 1866W        W19390   1.611  14.359  12.932  0.1253  0.1768 -0.0357
 1867W        W19391   9.978  15.066  15.529  0.0566  0.0309  0.4883
 1868W        W19392   7.364   4.622   0.274 -0.2650  0.0781  0.3836
 1869W        W19393   0.917   5.530   1.291  0.0824  0.0661 -0.1151
 1870W        W19394  12.442  15.401   0.836 -0.0933  0.3513  0.0691
 1871W        W19395  14.809   5.409  14.385  0.0279  0.0230  0.0136
 1872W        W19396   2.126  15.748   3.557  0.1011  0.0319 -0.0094
 1873W        W19397  18.248   3.249   2.325 -0.1460  0.4176  0.3068
 1874W        W19398  16.133   1.176   4.776 -0.1204  0.0106 -0.1768
 1875W        W19399   6.772   0.500  15.622  0.0513 -0.1398 -0.0206
 1876W        W19400   9.001  10.129  13.848  0.0680  0.1690 -0.5251
 1877W        W19401   4.621  13.716   5.371  0.0271 -0.1825  0.0177
 1878W        W19402   4.464   2.200  12.783  0.2594  0.1214 -0.1008
 1879W        W19403  14.797   5.045   4.653  0.2520 -0.1537 -0.0018
 1880W        W19404  10.674   2.957   2.018 -0.1906 -0.1660  0.2063
 1881W        W19405   0.982   9.211  15.743  0.0216 -0.1610 -0.1968
 1882W        W19406   1.265  10.763   1.424 -0.2086  0.0134 -0.2033
 1883W        W19407   5.534  15.017   2.307 -0.0652 -0.0176  0.1382
 1884W        W19408   6.843   9.903  15.614  0.3041 -0.3391  0.1102
 1885W        W19409   7.802  12.357  13.436  0.2271 -0.0272  0.0272
 1886W        W19410  15.961   5.768  12.081  0.1459  0.5039  0.1211
 1887W        W19411   1.976   2.798   0.342  0.0446  0.2290 -0.1026
 1888W        W19412   8.579   7.304   2.831 -0.0112 -0.1279  0.2471
 1889W        W19413   2.722  14.926  15.845  0.2772 -0.1131  0.0888
 1890W        W19414   7.127   0.119  15.136  0.3774  0.3073 -0.0192
 1891W        W19415   3.129   8.746  15.030 -0.3829 -0.0858 -0.1849
 1892W        W19416   4.134  17.942  14.505  0.3290  0.1849 -0.2892
 1893W        W19417   5.883   2.276  11.886  0.1084  0.1421  0.0331
 1894W        W19418   1.237   0.207  11.848  0.3091 -0.1230 -0.0954
 1895W        W19419  16.819  15.344  15.420  0.1158 -0.0529  0.0672
 1896W        W19420   4.520   2.007  14.741 -0.0824 -0.0055 -0.1361
 1897W        W19421   5.158   0.240   2.887  0.1659  0.0735  0.0533
 1898W        W19422   5.531  10.398  13.943  0.0898 -0.0994  0.0463
 1899W        W19423   2.936  17.088  14.128  0.0049  0.0342  0.0440
 1900W        W19424  12.959   7.491  13.240 -0.0305 -0.3243 -0.1430
 1901W        W19425  16.348   2.704  11.387 -0.1358 -0.0239  0.0006
 1902W        W19426   2.563   8.484   2.615  0.0558  0.2825  0.0718
 1903W        W19427   1.532  13.749  12.253  0.0562 -0.2259  0.1112
 1904W        W19428  14.732   8.264  12.910 -0.1442  0.0912 -0.0737
 1905W        W19429  15.884   9.297   0.787  0.1063 -0.1535 -0.0811
 1906W        W19430  15.362  12.110  12.800  0.1834  0.1358 -0.1812
 1907W        W19431   6.722  15.826  13.400 -0.1695 -0.0565 -0.1369
 1908W        W19432  14.183   5.229   2.524 -0.1933  0.1254  0.0065
 1909W        W19433   5.627  13.378   0.077 -0.0202 -0.1777  0.1228
 1910W        W19434   8.521  15.582  12.085  0.0991 -0.1100 -0.1651
 1911W        W19435   8.192   6.351   1.562 -0.0327 -0.0352 -0.2835
 1912W        W19436  12.327  12.217  13.439 -0.1943 -0.0574  0.3977
 1913W        W19437  15.054   9.017   3.430 -0.1174  0.6995 -0.0683
 1914W        W19438   4.157  13.843   1.301  0.0388  0.0754 -0.0234
 1915W        W19439  15.795   5.403  11.509  0.0115  0.3011 -0.0547
 1916W        W19440   2.082  12.831  15.625  0.1392 -0.3033 -0.1334
 1917W        W19441   8.384   9.439   0.837  0.2169 -0.1713  0.0461
 1918W        W19442  16.470   8.580  15.434 -0.0033  0.1423  0.1450
 1919W        W19443   4.068   0.881   3.152  0.1612  0.2672  0.1209
 1920W        W19444  14.415  10.972   2.202  0.0009  0.3401 -0.3146
 1921W        W19445   5.557  13.057  12.174  0.0083 -0.1308 -0.0175
 1922W        W19446   5.330  16.755   3.413  0.1884  0.3076 -0.0929
 1923W        W19447  10.134   8.978   3.671 -0.0093  0.1486  0.0242
 1924W        W19448  16.857   6.064   3.997  0.2650  0.2361 -0.2981
 1925W        W19449  15.497  15.717  12.189  0.2966  0.2644 -0.0666
 1926W        W19450  11.199  10.402  15.444 -0.2402 -0.0503  0.0746
 1927W        W19451   2.693  16.678   3.885 -0.0268  0.0960  0.1358
 1928W        W19452   5.500   3.922   2.628 -0.1109 -0.2686  0.2351
 1929W        W19453   5.790   8.608  14.222 -0.2026  0.2113  0.1058
 1930W        W19454   2.931   8.532   3.642 -0.1048 -0.1240 -0.0779
 1931W        W19455   9.296  11.651   1.764 -0.2060  0.3520  0.1488
 1932W        W19456  16.160   6.707  11.192  0.1453  0.1199 -0.1597
 1933W        W19457  17.256   7.746   1.832  0.3439  0.0111 -0.2506
 1934W        W19458  11.994  17.765  12.079 -0.1369  0.1153 -0.2903
 1935W        W19459   4.610  15.672   0.996  0.0353 -0.2226 -0.2390
 1936W        W19460  17.526  18.075  13.185  0.0258  0.0141 -0.0748
 1937W        W19461  14.417  17.192   0.412 -0.0533  0.2192  0.2465
 1938W        W19462  10.235   6.414  14.959 -0.2688 -0.0378  0.2119
 1939W        W19463  13.487  10.021   2.067 -0.0870 -0.0557 -0.1403
 1940W        W19464  13.405   4.458   0.134  0.0297 -0.0431 -0.1490
 1941W        W19465   6.478  17.434  11.306  0.2566  0.0178  0.1259
 1942W        W19466  12.363   3.927   2.551  0.3123  0.3173  0.1551
 1943W        W19467  11.969   9.377   2.942  0.2164  0.1508 -0.0381
 1944W        W19468  15.778   2.088  14.825  0.0566  0.0065 -0.1537
 1945W        W19469  10.477   2.171  11.090  0.0947 -0.1082 -0.1366
 1946W        W19470  12.450   9.032   0.797 -0.0245 -0.1238 -0.0264
 1947W        W19471  17.501   7.709   0.019  0.1425  0.2365 -0.1502
 1948W        W19472  17.977  13.545   0.019  0.1134  0.1044  0.1346
 1949W        W19473   5.520   0.960   1.935 -0.1490 -0.0444 -0.0502
 1950W        W19474   0.235   0.049   1.467 -0.0863 -0.1465  0.1595
 1951W        W19475  16.010  10.090  11.656 -0.3868 -0.1408 -0.2664
 1952W        W19476  11.330   2.129  13.020  0.1720 -0.2590  0.1825
 1953W        W19477   8.067   6.145   0.967  0.2077 -0.0197 -0.0712
 1954W        W19478  13.716   0.396  11.835 -0.2675  0.0360 -0.1042
 1955W        W19479  18.347  10.538  14.927  0.0775  0.0945 -0.0228
 1956W        W19480  11.729  12.464  14.298 -0.0233 -0.2049 -0.0325
 1957W        W19481  11.644  15.725   3.215  0.0178 -0.2098  0.0927
 1958W        W19482   5.849  14.052   3.162 -0.0162  0.1785  0.2269
 1959W        W19483   4.666   3.260  13.567 -0.1315  0.1975  0.1101
 1960W        W19484  13.072  17.851  15.531  0.2064  0.0267  0.1309
 1961W        W19485  11.409  14.578  13.123 -0.0940  0.0251 -0.1924
 1962W        W19486  14.993   6.271   0.295 -0.0754 -0.2278  0.1331
 1963W        W19487  12.991  16.376  12.551  0.2467 -0.5012  0.0908
 1964W        W19488  12.688   8.761  14.570 -0.0761  0.1815 -0.0191
 1965W        W19489  13.053   2.253  13.862  0.0125 -0.0805 -0.0071
 1966W        W19490   0.302  10.433  12.363 -0.0047 -0.5475  0.1089
 1967W        W19491   5.318  17.238   3.000  0.1949 -0.2153  0.4498
 1968W        W19492   0.164   3.427  11.195  0.2428 -0.0782 -0.2524
 1969W        W19493   2.965   2.871   1.387  0.2576 -0.0876  0.2015
 1970W        W19494  16.661   0.958  13.207  0.2801 -0.0663  0.0972
 1971W        W19495  17.542   8.510  13.325  0.1863  0.1742  0.2123
 1972W        W19496   0.721  15.580   2.515 -0.0168 -0.0060  0.0194
 1973W        W19497  14.696  14.465   0.552 -0.1577 -0.1399  0.1607
 1974W        W19498   5.659  15.203  10.699 -0.1083 -0.1390 -0.0175
 1975W        W19499   5.085   8.875   3.067 -0.0077 -0.1977  0.0411
 1976W        W19500  17.737   4.369   3.158  0.2150 -0.1841 -0.0791
 1977W        W19501   5.969   6.701  11.448 -0.1302  0.1401  0.1234
 1978W        W19502   8.968  11.153   3.052  0.0814 -0.0624  0.1846
 1979W        W19503  10.212  12.449  13.534 -0.0329  0.1732  0.2737
 1980W        W19504  14.712  12.784   4.755 -0.2066  0.2452  0.1321
 1981W        W19505   7.981   7.515   4.435  0.1681  0.1694  0.1628
 1982W        W19506  14.252   7.707   3.934 -0.2502 -0.1287 -0.2642
 1983W        W19507   5.770  18.260   4.752 -0.1062  0.2204  0.1849
 1984W        W19508   5.957  10.976  14.282  0.2116  0.2147 -0.0320
 1985W        W19509  13.762   1.816  11.102  0.0363  0.1927  0.1149
 1986W        W19510   4.864  10.634   4.085  0.0752 -0.1372  0.4346
 1987W        W19511   7.518   1.866  11.587 -0.1391 -0.1406  0.2943
 1988W        W19512  14.216  17.361   3.018  0.2502 -0.0034  0.2397
 1989W        W19513  16.289   1.914   0.315  0.1078 -0.0928 -0.0180
 1990W        W19514   8.216   8.651   4.018  0.0556 -0.0161 -0.2960
 1991W        W19515  10.523   6.145   1.995  0.0914  0.0456 -0.0251
 1992W        W19516   5.459   4.386   1.879 -0.0060 -0.1596 -0.0011
 1993W        W19517  13.727   1.739   3.602  0.1283  0.2978 -0.3997
 1994W        W19518   8.693  14.721  14.481 -0.0192  0.1732 -0.0709
 1995W        W19519  10.870   4.999  12.641  0.3342  0.0980  0.1149
 1996W        W19520   8.115   5.560  14.066  0.3322 -0.1108 -0.3880
 1997W        W19521  15.294  14.429  12.694 -0.0335  0.0633  0.1699
 1998W        W19522   2.834   4.981  14.385 -0.0524 -0.2327 -0.0521
 1999W        W19523  14.196  11.541  15.143 -0.0287 -0.1903  0.0380
 2000W        W19524  18.298  17.639   4.587 -0.0664 -0.0297 -0.0655
 2001W        W19525  14.330  12.701  12.124 -0.1052  0.0200 -0.0990
 2002W        W19526   0.386  15.131   1.919  0.0489 -0.1756  0.2271
 2003W        W19527  10.089   2.750  15.627 -0.0473  0.1101  0.0107
 2004W        W19528  16.338  13.398   1.977 -0.2212 -0.1211  0.1596
 2005W        W19529   2.846  13.235   3.320 -0.5940 -0.2733  0.0250
 2006W        W19530  10.774   0.265  13.428 -0.0703  0.0136 -0.0472
 2007W        W19531  16.678  11.672   0.846 -0.0127  0.1809 -0.0104
 2008W        W19532  16.716  11.260  11.927 -0.0373  0.1389 -0.1154
 2009W        W19533  18.048   2.532   3.809 -0.0014  0.0556 -0.3018
 2010W        W19534  15.433   1.620   2.084  0.3105 -0.1780  0.2780
 2011W        W19535   6.781   2.420   3.340 -0.4491  0.0383 -0.0253
 2012W        W19536  13.257   9.583  14.044 -0.3408 -0.0917 -0.1504
 2013W        W19537   4.827   7.631  13.294 -0.3440 -0.1379 -0.2983
 2014W        W19538   1.639  11.099  14.612 -0.1534  0.1493  0.2287
 2015W        W19539   1.062   0.989   0.787  0.4093 -0.1879 -0.3860
 2016W        W19540  18.387  10.288  15.827 -0.1754 -0.2437 -0.0188
 2017W        W19541  17.825  13.299  14.616  0.2934 -0.0323 -0.3215
 2018W        W19542   4.103   4.501   0.934  0.0673 -0.3038 -0.2415
 2019W        W19543  12.008   0.353   5.989 -0.0301  0.0583 -0.1436
 2020W        W19544  13.370  10.734   4.795 -0.0609  0.2643  0.2560
 2021W        W19545   1.724  17.877   4.456  0.3024 -0.1938  0.2948
 2022W        W19546  10.795  11.331  15.264 -0.2517 -0.1254 -0.1343
 2023W        W19547   7.243  14.851  11.557 -0.0666 -0.1224 -0.1596
 2024W        W19548   8.266   2.272   3.380  0.2630 -0.1726  0.0548
 2025W        W19549   1.116  15.992   3.371  0.4599  0.1359  0.2571
 2026W        W19550   2.721   5.243  14.820  0.0207  0.0408 -0.0493
 2027W        W19551   3.752   5.650  12.024 -0.0321 -0.0139  0.1778
 2028W        W19552   7.458   8.168  11.093 -0.0448 -0.2721  0.1640
 2029W        W19553   8.358  15.807  14.614  0.1979  0.2006  0.3333
 2030W        W19554  13.997  11.883   1.700  0.2699  0.0742 -0.1773
 2031W        W19555   9.218   3.263  15.450  0.2663 -0.1156 -0.2021
 2032W        W19556   0.603  17.175  11.185  0.0541  0.1384  0.3246
 2033W        W19557   2.450   2.172   2.684 -0.0838  0.1725  0.1561
 2034W        W19558   8.099   2.533   1.249 -0.0368  0.2339  0.1071
 2035W        W19559   0.765   3.246  12.941 -0.0233  0.0104 -0.0890
 2036W        W19560   4.661  15.727   4.691 -0.0719  0.1560 -0.3127
 2037W        W19561  13.844  14.695  13.027  0.0023  0.0587 -0.1135
 2038W        W19562  16.665  15.499   3.010  0.0604 -0.1320  0.2007
 2039W        W19563   6.926   1.769   1.881  0.0491 -0.0034  0.1342
 2040W        W19564  15.075   0.756   0.468 -0.0002 -0.1549  0.1355
 2041W        W19565   1.544   5.473  14.053 -0.1950  0.1362  0.0973
 2042W        W19566   0.996   8.012  15.684 -0.1115  0.1774  0.0763
 2043W        W19567   5.841  16.468  11.508 -0.0967  0.0444  0.0505
 2044W        W19568  13.760  10.913  11.976 -0.1313  0.2237 -0.0927
 2045W        W19569  12.027   1.677  15.804 -0.0092 -0.1227  0.0026
 2046W        W19570  17.199   6.885   0.556 -0.3758 -0.1915  0.2312
 2047W        W19571   0.541   0.014  15.665  0.0342  0.1733  0.2258
 2048W        W19572   2.663  16.926  13.240 -0.0464  0.1515  0.3884
 2049W        W19573   9.452   3.774   4.669 -0.4821  0.4088 -0.1414
 2050W        W19574   5.970   2.298   1.034 -0.1660 -0.0775 -0.1721
 2051W        W19575   7.059   2.926  12.958  0.2701  0.0839  0.1362
 2052W        W19576   4.268  11.223   2.900 -0.1692 -0.0306  0.0170
 2053W        W19577   7.705  14.567  13.368  0.2479  0.2503 -0.1104
 2054W        W19578  10.927   7.190  10.775  0.2123  0.1609 -0.1145
 2055W        W19579  17.343   8.186  11.008 -0.0732 -0.0302 -0.2535
 2056W        W19580   4.447  12.389   4.384  0.3440 -0.0161 -0.3094
 2057W        W19581   6.737  12.594  13.916  0.4580 -0.1864  0.2580
 2058W        W19582  15.904   4.043  12.984 -0.3856 -0.2844 -0.2486
 2059W        W19583  12.654   1.283  11.636 -0.1654  0.2545 -0.1987
 2060W        W19584  10.368   6.987  11.496 -0.1774 -0.0742  0.2176
 2061W        W19585   7.526   7.978  13.440 -0.1679 -0.1741 -0.2158
 2062W        W19586  11.291  17.189  12.113 -0.0309  0.0458  0.1039
 2063W        W19587  15.633   8.162   2.325 -0.0630 -0.4166 -0.2387
 2064W        W19588   2.112   5.706  14.886  0.2863  0.1336  0.2063
 2065W        W19589  17.357   1.478  11.792 -0.1970 -0.1017 -0.2442
 2066W        W19590  12.581  16.460  14.505  0.0357  0.0772  0.1352
 2067W        W19591  11.508  18.300  11.450 -0.0847 -0.3144 -0.4448
 2068W        W19592   5.915  14.048   1.307 -0.1763  0.0982 -0.3257
 2069W        W19593  12.127   4.308   4.009  0.0730  0.2906 -0.1541
 2070W        W19594   7.698   3.923   1.589 -0.1654  0.0040 -0.2961
 2071W        W19595   3.133  11.423  11.676 -0.0344 -0.0590 -0.4827
 2072W        W19596   8.530  10.119  13.996 -0.1127 -0.0120  0.0050
 2073W        W19597  10.772   7.863  15.426  0.1277 -0.2928 -0.4260
 2074W        W19598   9.685  16.920   4.430 -0.3204  0.2056  0.0474
 2075W        W19599  13.276  16.514  15.181 -0.1765 -0.1678  0.0413
 2076W        W19600   3.756   5.211  13.089  0.1245 -0.0044  0.1676
 2077W        W19601  13.118  11.545  14.511 -0.2092  0.0556  0.1025
 2078W        W19602   0.980   1.074   4.702 -0.3201 -0.1348 -0.1771
 2079W        W19603  16.906  15.460  11.252  0.2604  0.0384  0.1017
 2080W        W19604   7.223  14.434  15.135  0.1104  0.5471  0.2929
 2081W        W19605   0.684   0.323  12.606 -0.0727  0.1742 -0.2815
 2082W        W19606   9.606   5.753   2.427 -0.0765  0.0661  0.2396
 2083W        W19607  15.823  13.741   0.830 -0.3911 -0.1505  0.3146
 2084W        W19608  14.444   3.532   3.884  0.0994 -0.1898  0.4220
 2085W        W19609  15.458  14.819   0.573 -0.2429 -0.0398 -0.0287
 2086W        W19610   9.871   4.649  14.813  0.2017  0.0773 -0.0209
 2087W        W19611   3.210   0.600   4.612  0.1398  0.0640 -0.2438
 2088W        W19612   0.552   3.297   3.020 -0.0664  0.1469 -0.0707
 2089W        W19613   3.694   0.016  12.424 -0.0906 -0.0534  0.1285
 2090W        W19614  17.262   2.334   4.542 -0.1929 -0.1705 -0.1260
 2091W        W19615  12.655  10.980  13.738 -0.0813  0.0051 -0.0458
 2092W        W19616   3.737   4.546  15.733  0.0765  0.1178 -0.0379
 2093W        W19617  14.763   0.055   3.237 -0.0828  0.1580  0.1250
 2094W        W19618   9.660  11.363   2.838 -0.0063 -0.0996  0.0809
 2095W        W19619   2.038   6.168   0.244 -0.0237 -0.1523  0.1170
 2096W        W19620  13.782  11.935  13.837 -0.0260 -0.1915  0.1955
 2097W        W19621   3.184   2.182   3.586 -0.3260  0.3179 -0.0885
 2098W        W19622  18.196  14.458   2.442  0.1894  0.0324  0.0110
 2099W        W19623  10.931   4.166   3.532 -0.1311  0.0234 -0.3206
 2100W        W19624   4.310   6.150   1.656  0.1930 -0.1827 -0.1098
 2101W        W19625   3.481   0.683  15.355  0.0757 -0.1134 -0.0402
 2102W        W19626  14.710  10.140  10.698  0.0307  0.1296  0.0972
 2103W        W19627  12.513   2.479   2.160  0.2323 -0.0010 -0.1745
 2104W        W19628  15.556   3.835  12.642 -0.0159  0.2364  0.0895
 2105W        W19629   1.081   8.345   2.684  0.0325  0.1326 -0.0319
 2106W        W19630   3.732   1.615   3.547 -0.1610 -0.0879 -0.2547
 2107W        W19631  14.334  17.182  11.958  0.0572 -0.1887 -0.2031
 2108W        W19632   0.560  11.018   4.197 -0.0995  0.1611  0.5120
 2109W        W19633   5.117   6.414   4.570  0.0825 -0.1499 -0.0045
 2110W        W19634  11.183  17.237   4.489 -0.0013  0.1476 -0.0916
 2111W        W19635  16.424   4.134  13.494 -0.0965  0.1891 -0.1682
 2112W        W19636   7.184   4.516  10.769  0.2204  0.2008 -0.2805
 2113W        W19637   5.790   4.405  12.811 -0.3595 -0.0680  0.0198
 2114W        W19638  12.266  17.583  15.339  0.0589  0.0097  0.1815
 2115W        W19639  17.444  16.673   4.590 -0.0959  0.1954 -0.0235
 2116W        W19640   0.188   6.009  15.217  0.2441  0.1837 -0.2204
 2117W        W19641   4.730   6.669   4.400 -0.0392  0.2480  0.0614
 2118W        W19642   7.650  13.384   4.628 -0.3108 -0.0322 -0.0533
 2119W        W19643  17.587  17.333  12.561  0.1303  0.1768 -0.0674
 2120W        W19644   2.077   0.249   3.501 -0.1489  0.1346 -0.4455
 2121W        W19645   4.956   7.865  14.574 -0.1568 -0.2272 -0.0084
 2122W        W19646  12.245  13.906  12.076 -0.2778  0.0031 -0.1643
 2123W        W19647   9.132   4.243   2.854  0.0400 -0.1430 -0.1099
 2124W        W19648  15.769   1.498   4.969 -0.6097  0.4032  0.1632
 2125W        W19649  16.351  11.815  13.785  0.0194 -0.0325 -0.1271
 2126W        W19650   4.553  11.202  13.236  0.0907 -0.0441 -0.1541
 2127W        W19651   2.658   8.005   0.332 -0.0049 -0.0619 -0.1358
 2128W        W19652  18.107   2.908   2.669  0.0865  0.1038 -0.1830
 2129W        W19653   5.381  13.412   3.951  0.1588  0.2262  0.3581
 2130W        W19654  17.668  10.647   2.756 -0.2290 -0.0537 -0.0468
 2131W        W19655  16.263   9.909   1.405 -0.1847  0.0565 -0.2312
 2132W        W19656   3.726   7.066   1.232 -0.1038  0.2126 -0.1345
 2133W        W19657   5.285  17.716  13.240  0.0148  0.0536 -0.0815
 2134W        W19658   9.744   8.960   1.957 -0.3022  0.0833  0.0777
 2135W        W19659  10.472  15.991   4.284  0.1968  0.0613  0.1146
 2136W        W19660   5.378   3.772   4.360  0.0524 -0.2459 -0.1854
 2137W        W19661  13.779  14.998   3.817 -0.1025  0.2575  0.1012
 2138W        W19662  11.742  15.481  15.253 -0.0760  0.1320  0.2100
 2139W        W19663   1.955   8.315   2.958 -0.1630 -0.1615 -0.2029
 2140W        W19664   7.766   7.761  15.840  0.0555  0.0812  0.1476
 2141W        W19665  11.727   2.297   0.898  0.4095  0.3697 -0.1917
 2142W        W19666   3.095  10.046  10.669 -0.1629 -0.2853  0.0088
 2143W        W19667  12.544   8.376  14.244 -0.0139 -0.1585 -0.0625
 2144W        W19668   3.615   4.443   3.080 -0.1226  0.6058 -0.1481
 2145W        W19669   2.165  16.388  12.557  0.0725  0.1274 -0.0453
 2146W        W19670  13.070   9.550  10.559 -0.1660  0.4461 -0.3489
 2147W        W19671  10.676   5.892  14.021  0.1661  0.1009  0.0119
 2148W        W19672  12.815   1.291  13.076  0.0532 -0.0685  0.0430
 2149W        W19673  16.816  12.432  14.711  0.1272  0.0937 -0.0696
 2150W        W19674  12.668  14.188   6.025 -0.2750 -0.2062 -0.0297
 2151W        W19675  15.834  15.648   3.877 -0.4187  0.1092 -0.0994
 2152W        W19676   1.245   7.924   3.587 -0.0849  0.1603 -0.0357
 2153W        W19677  10.956   3.900   0.495 -0.1629 -0.0750  0.2768
 2154W        W19678   5.255   9.346   0.422 -0.0071 -0.2540  0.1012
 2155W        W19679   7.964   7.354   1.297  0.2591 -0.1008 -0.0513
 2156W        W19680   7.237  18.014   0.958 -0.0763 -0.1463  0.0829
 2157W        W19681   6.550  16.942   1.900  0.0579 -0.3382 -0.2870
 2158W        W19682   1.685   6.064   3.831  0.1783 -0.0401  0.2961
 2159W        W19683   8.261  12.191  14.614 -0.3018  0.0066  0.1630
 2160W        W19684  11.032   3.225   1.707 -0.1284  0.1665  0.1011
 2161W        W19685  13.668  10.494  13.061  0.1290  0.1046 -0.0979
 2162W        W19686   0.290  17.697  12.830 -0.1850  0.1421  0.0354
 2163W        W19687   4.245   3.778   0.297 -0.1146 -0.0759  0.1474
 2164W        W19688  15.267   6.856  13.462  0.1419  0.0524 -0.1351
 2165W        W19689   6.058   6.329   3.326  0.3760  0.1267  0.2327
 2166W        W19690  16.570  15.901   2.031 -0.1733 -0.1453  0.1827
 2167W        W19691  11.548  13.594  13.655 -0.3057 -0.2745 -0.4290
 2168W        W19692  12.890   2.119   5.754  0.0114  0.0464  0.1217
 2169W        W19693  17.041   9.743  13.797 -0.1976 -0.1732  0.1606
 2170W        W19694  12.484  15.173   3.400 -0.1396  0.0879  0.0435
 2171W        W19695  15.281   9.420  10.152 -0.0117 -0.1983  0.0072
 2172W        W19696  16.332  10.152  10.504 -0.0007  0.1435  0.1109
 2173W        W19697  10.121   7.752  14.395  0.0956  0.0481 -0.2670
 2174W        W19698  11.707  14.393   3.775  0.0063 -0.4511  0.0218
 2175W        W19699   7.346   5.982  11.904 -0.0830  0.1407 -0.1505
 2176W        W19700  10.162  14.202   2.881 -0.0997  0.0824  0.1800
 2177W        W19701   6.724  12.362   3.311  0.3451  0.3967 -0.1163
 2178W        W19702   6.071   2.385  15.472 -0.0022 -0.0284 -0.1137
 2179W        W19703  12.473   0.371  13.112 -0.0779  0.0787 -0.0159
 2180W        W19704   4.743  13.290  15.428 -0.0243 -0.1666  0.4339
 2181W        W19705   9.972  15.098   2.188 -0.0506 -0.0617  0.0736
 2182W        W19706   7.511   5.743  14.067  0.1217 -0.1941  0.2339
 2183W        W19707  18.203  17.382  15.834  0.4477 -0.1369 -0.1819
 2184W        W19708  11.324  13.260   3.633 -0.1124 -0.0277  0.1247
 2185W        W19709   5.184  13.620  15.701 -0.4994 -0.1053  0.1443
 2186W        W19710   4.108   9.221   1.318  0.0070 -0.0204 -0.2246
 2187W        W19711  13.940   4.665  15.021 -0.2287  0.1088  0.2360
 2188W        W19712   5.870  13.156   4.682  0.0603 -0.1956  0.2305
 2189W        W19713  14.496   4.635  14.697  0.0820 -0.2129  0.0495
 2190W        W19714  10.532   9.350   3.496  0.0619  0.1281  0.1595
 2191W        W19715  15.138  14.231   0.324 -0.1075 -0.3181  0.0050
 2192W        W19716   4.059   8.544   3.223 -0.1884 -0.5467 -0.2152
 2193W        W19717   4.192  13.596  12.626  0.1960 -0.0423 -0.0394
 2194W        W19718   1.897  10.997  13.461 -0.1334 -0.2548 -0.0419
 2195W        W19719   7.041   5.810   0.872 -0.1054 -0.0858  0.3604
 2196W        W19720   2.905  17.449  12.133 -0.4005 -0.0761  0.1130
 2197W        W19721  14.356  18.311  13.149 -0.1179 -0.2025 -0.2205
 2198W        W19722  18.052   0.980   0.738  0.0827 -0.1436 -0.1956
 2199W        W19723  13.860  12.445   0.068  0.0676 -0.2461 -0.2737
 2200W        W19724  15.075   7.969  13.845  0.1530  0.2068 -0.2590
 2201W        W19725   3.010   8.081   3.772  0.2776  0.0042 -0.2498
 2202W        W19726  16.689   9.837   1.681  0.0250  0.0807 -0.3087
 2203W        W19727   2.264   1.534   1.597  0.3588 -0.3035 -0.3478
 2204W        W19728   1.944  16.374   0.046 -0.0122 -0.0563 -0.0445
 2205W        W19729   0.768  17.663  12.614 -0.4629 -0.1540 -0.0421
 2206W        W19730   7.218   0.749  15.472 -0.0089 -0.0397 -0.2218
 2207W        W19731  11.440   3.280  12.896 -0.3008  0.1967 -0.2725
 2208W        W19732  16.038   3.728   4.137  0.0215 -0.3133  0.0436
 2209W        W19733  12.255   4.391   3.142 -0.0929 -0.1112  0.1251
 2210W        W19734  12.160   0.387  11.889  0.0940 -0.2415  0.3423
 2211W        W19735   0.488  14.826   0.330  0.0872 -0.2014  0.1048
 2212W        W19736   7.933   9.904  15.327 -0.3177 -0.1848 -0.0586
 2213W        W19737   6.017  15.210   2.207 -0.1558 -0.4363 -0.4714
 2214W        W19738  13.180   0.915   4.253  0.1136  0.0698 -0.1397
 2215W        W19739  10.829   2.724   4.530  0.0999  0.3041 -0.2496
 2216W        W19740   7.903   8.374  15.522  0.1626 -0.2092 -0.3224
 2217W        W19741  12.580   7.550   3.307 -0.0929 -0.1713  0.2106
 2218W        W19742  10.290   8.059   5.146 -0.1991  0.2563  0.1906
 2219W        W19743   5.023   5.595   3.726  0.0886 -0.2945 -0.1503
 2220W        W19744  17.605  16.410   0.428  0.0221 -0.0704 -0.0285
 2221W        W19745   5.615   0.840  14.806 -0.3612  0.1632 -0.1042
 2222W        W19746   8.993   5.840  15.529 -0.0482 -0.0800  0.0272
 2223W        W19747  12.078  10.902   2.734 -0.0717 -0.2083 -0.0258
 2224W        W19748   2.111  13.510   2.222 -0.4432 -0.1327  0.3510
 2225W        W19749   6.829   3.624   2.565 -0.1220 -0.4293 -0.0915
 2226W        W19750   6.321  11.867   2.186  0.0063 -0.0241 -0.5146
 2227W        W19751  14.622  18.094  11.879  0.0028 -0.1373 -0.0165
 2228W        W19752   9.476   1.675  11.591 -0.1017 -0.0333 -0.0920
 2229W        W19753   6.580   0.679   1.007 -0.0073 -0.1451  0.0385
 2230W        W19754  16.284   2.207  12.120 -0.1703  0.3515  0.3269
 2231W        W19755   3.382   7.905   1.166  0.0253 -0.0336 -0.1642
 2232W        W19756   4.336   9.387   2.462 -0.1090  0.1059  0.0426
 2233W        W19757  14.075   9.634  15.564 -0.3070  0.4312 -0.0532
 2234W        W19758   1.720  13.887   4.362 -0.2812 -0.1177  0.1658
 2235W        W19759   0.225  14.016  10.845 -0.1654  0.1272 -0.1500
 2236W        W19760   8.431  15.812  13.410 -0.0680  0.2715  0.1558
 2237W        W19761  11.700   0.919  12.978 -0.1098  0.1500  0.0232
 2238W        W19762  12.256  10.023  10.521  0.0413  0.2529  0.0732
 2239W        W19763   5.884   0.196   1.513  0.0230  0.1648 -0.2188
 2240W        W19764   2.051   3.223   1.858 -0.3818 -0.2279  0.0529
 2241W        W19765   9.439  11.881   2.942 -0.1744  0.4483 -0.2934
 2242W        W19766   2.405   6.642  11.537  0.0260  0.0376 -0.0741
 2243W        W19767   2.880   8.106   2.817 -0.3178 -0.2428  0.1389
 2244W        W19768   5.957   3.118   2.341 -0.1535  0.1355  0.1791
 2245W        W19769  12.875   6.731  15.580  0.1105 -0.2621 -0.5224
 2246W        W19770   8.311   0.117  11.803 -0.0548  0.0883  0.4171
 2247W        W19771   4.674  11.202   0.627 -0.3905  0.0285  0.3568
 2248W        W19772  17.836  14.249   0.624 -0.1126  0.0586  0.0126
 2249W        W19773  14.824  11.652  14.048 -0.1358 -0.1063 -0.0633
 2250W        W19774  12.106  16.865   2.392  0.0113  0.4085  0.0242
 2251W        W19775   8.492   7.162  12.583 -0.1027 -0.0263 -0.1399
 2252W        W19776   2.610   5.661  11.630  0.0096 -0.1040 -0.0112
 2253W        W19777  17.160  17.917  12.117 -0.3329  0.1073  0.0759
 2254W        W19778   4.990   0.131  13.588  0.1285 -0.3450 -0.0222
 2255W        W19779   8.119   1.994  13.194 -0.1533 -0.4997 -0.4438
 2256W        W19780  15.972  11.095  11.359 -0.0708  0.0405  0.1370
 2257W        W19781   3.641  12.728  10.521 -0.3330  0.1632  0.0052
 2258W        W19782  11.993   0.251  14.939  0.2386  0.0427  0.0977
 2259W        W19783  13.564  13.064   2.392 -0.1790  0.0767  0.1985
 2260W        W19784  10.569  12.654  11.621  0.0788 -0.0520  0.1139
 2261W        W19785  17.383  13.424  11.479 -0.1920  0.0595  0.0965
 2262W        W19786   2.523  11.842  13.791  0.0083  0.1055 -0.1240
 2263W        W19787   6.229  16.760  14.366 -0.1278 -0.1749  0.4539
 2264W        W19788  11.736  17.972  13.144 -0.2630 -0.1059  0.0516
 2265W        W19789  13.875   9.391  11.734  0.0132  0.2063  0.0192
 2266W        W19790   2.771  12.505   2.543  0.1761 -0.3056 -0.0503
 2267W        W19791   1.721  13.662  15.271  0.1375 -0.3892 -0.0721
 2268W        W19792  11.812  13.460   3.415  0.1523 -0.0488 -0.0264
 2269W        W19793   1.053  12.774   3.536  0.2772 -0.0466 -0.0692
 2270W        W19794  17.159  10.082   0.947 -0.0517 -0.1497  0.2924
 2271W        W19795   5.368   7.520   3.819 -0.3850 -0.0820  0.0319
 2272W        W19796   1.367  17.708   4.749 -0.1036 -0.2750 -0.0419
 2273W        W19797   7.375  10.053   1.606  0.0746  0.0525 -0.0283
 2274W        W19798  16.148  12.528  11.756  0.0680 -0.0760  0.3767
 2275W        W19799  14.557   3.835  12.998  0.3430 -0.0525 -0.1067
 2276W        W19800  12.956  11.620   1.622 -0.1192  0.1732 -0.0571
 2277W        W19801  11.294   0.184   1.318  0.0920 -0.0059  0.2406
 2278W        W19802   7.415  17.368   1.617  0.1622 -0.4939  0.3893
 2279W        W19803  12.584   3.211  12.792  0.2673 -0.0531 -0.0944
 2280W        W19804   5.135   4.727   1.819  0.4493  0.0246 -0.1484
 2281W        W19805   3.688  15.529  14.613  0.2331  0.1834 -0.1105
 2282W        W19806   5.228   3.355  12.076 -0.0671 -0.3843 -0.0929
 2283W        W19807   0.840  10.116   3.655 -0.1242 -0.1361 -0.2753
 2284W        W19808  14.955   0.127  12.050 -0.1416 -0.2675  0.1809
 2285W        W19809   0.049   8.784  14.290  0.0106  0.1000 -0.1229
 2286W        W19810  16.336  13.382  13.829  0.0879 -0.2735  0.1777
 2287W        W19811   6.766   8.480   0.109  0.3456 -0.2657  0.6102
 2288W        W19812  12.145  13.517   3.825 -0.0926  0.0923  0.0836
 2289W        W19813   7.722   4.821   3.250  0.1623  0.1048 -0.2154
 2290W        W19814   9.827   5.368   0.753  0.1921 -0.3094  0.1136
 2291W        W19815  14.022  16.947   1.164  0.0168  0.0511 -0.0636
 2292W        W19816   4.684  17.016   1.120  0.1223  0.0820  0.2149
 2293W        W19817   3.538  16.826   1.875 -0.1120  0.0706  0.0124
 2294W        W19818   1.041  17.671  10.877  0.1752 -0.1061 -0.0686
 2295W        W19819   9.346   7.551  11.652  0.2803 -0.4384  0.2785
 2296W        W19820   6.577   3.541   4.174 -0.1003 -0.3455 -0.1563
 2297W        W19821  10.850  11.906   5.725  0.0901 -0.0027 -0.0832
 2298W        W19822   7.609   6.185   3.565  0.4057 -0.1581  0.2434
 2299W        W19823  11.836  16.944   1.378 -0.0928 -0.4006  0.1362
 2300W        W19824  11.704  18.003   2.359  0.1232 -0.1069  0.0929
 2301W        W19825   6.384  13.094  13.889 -0.1108 -0.1787 -0.1881
 2302W        W19826   9.700  11.026  14.957 -0.1278  0.2707 -0.0710
 2303W        W19827   7.493   0.035   4.059  0.0176  0.4052 -0.0482
 2304W        W19828   5.134  11.259   4.807 -0.0593  0.0388  0.1601
 2305W        W19829   5.930   4.444   0.401 -0.0895 -0.1818 -0.4929
 2306W        W19830   5.686   1.386   2.011 -0.4682 -0.0990 -0.1379
 2307W        W19831  13.772  16.722  15.835 -0.0715 -0.0643 -0.0006
 2308W        W19832  12.411  13.693  11.141 -0.1503  0.0317 -0.1519
 2309W        W19833  14.735  11.374  12.597 -0.0191 -0.0011 -0.0303
 2310W        W19834   9.785   8.912   4.474 -0.0630  0.0371  0.1666
 2311W        W19835  14.130   8.600  13.804 -0.2248 -0.0927 -0.3225
 2312W        W19836   3.288  10.035   0.184  0.0578  0.0274  0.0693
 2313W        W19837   4.469   4.631  11.304 -0.0574 -0.0631 -0.1402
 2314W        W19838  15.215  15.429   3.457 -0.0662  0.4111  0.0108
 2315W        W19839  18.368   0.051  15.589 -0.1685  0.2242 -0.0080
 2316W        W19840   2.218  14.561   0.906  0.1173  0.3081 -0.3511
 2317W        W19841  12.665  10.575  13.429  0.0194 -0.2437 -0.2151
 2318W        W19842  16.392   9.355   5.585  0.0037  0.2724  0.4684
 2319W        W19843   5.033  11.974   2.753  0.2223  0.0220  0.1232
 2320W        W19844   0.470   3.059  14.969 -0.2716 -0.0891 -0.0307
 2321W        W19845   1.043  15.457   4.691 -0.1343 -0.2610  0.1806
 2322W        W19846   6.873  18.173   2.785 -0.0423 -0.1312 -0.0491
 2323W        W19847   9.785  14.424   0.081 -0.0312 -0.0075  0.0536
 2324W        W19848   3.999  17.615  15.553 -0.0148 -0.1122  0.1179
 2325W        W19849   6.680  15.468  12.942 -0.3719 -0.2743  0.1127
 2326W        W19850  12.930  11.230   4.109  0.3752  0.1027  0.0634
 2327W        W19851   9.589  12.137  13.847 -0.0455  0.0026  0.2908
 2328W        W19852  10.241  14.369  11.750  0.0684 -0.3586 -0.1450
 2329W        W19853   9.485   5.227   3.063  0.0916  0.2657  0.1133
 2330W        W19854  10.727   8.050   0.912 -0.4360  0.0314 -0.2669
 2331W        W19855   0.131  12.743  11.734 -0.1464  0.0659 -0.0772
 2332W        W19856   8.724   4.968   4.447  0.5329  0.3587 -0.1074
 2333W        W19857  15.814  17.810  12.289 -0.2884 -0.3452 -0.0364
 2334W        W19858   8.248   9.727   5.242  0.1941 -0.0433 -0.0524
 2335W        W19859  17.275   0.398   4.627  0.0737  0.2334 -0.0537
 2336W        W19860  11.925   4.687   2.637 -0.2119 -0.1802 -0.1179
 2337W        W19861   4.952  10.715  11.158  0.0164  0.0453  0.1997
 2338W        W19862   0.776   2.579   0.069 -0.0156  0.3267  0.0129
 2339W        W19863  17.987  16.595   2.672  0.3634 -0.3639 -0.2369
 2340W        W19864  15.724  10.046  14.116 -0.1846  0.3218 -0.2974
 2341W        W19865  17.023  14.210  11.742  0.1995 -0.1609  0.3187
 2342W        W19866   0.042  10.147  14.090  0.0201  0.2586  0.0414
 2343W        W19867  16.280  14.021   3.910  0.4880  0.1469 -0.1928
 2344W        W19868  18.145   1.660  11.118  0.2619 -0.0732 -0.0593
 2345W        W19869   9.248  11.015  12.083  0.0891  0.1365 -0.1734
 2346W        W19870   4.799  12.716  11.518 -0.4604  0.0551 -0.0519
 2347W        W19871   4.465  12.632   3.722 -0.1765 -0.2247 -0.0400
 2348W        W19872  15.131   2.300   2.838  0.5304 -0.1249  0.1626
 2349W        W19873  13.043   8.307   4.816 -0.1758 -0.1893 -0.1212
 2350W        W19874  16.025  13.991  12.513 -0.0198 -0.0423  0.2889
 2351W        W19875  18.003  10.862   4.660  0.4358 -0.0713 -0.0494
 2352W        W19876  15.921  15.536   0.280  0.1117  0.1295  0.0593
 2353W        W19877  15.231   6.726  15.548  0.0513  0.2634 -0.1453
 2354W        W19878   1.801   4.683  14.698  0.2211 -0.3058 -0.1009
 2355W        W19879  11.242   1.635  13.996  0.0546 -0.3256  0.0502
 2356W        W19880   5.622   2.899  11.332  0.2420  0.1458 -0.0443
 2357W        W19881   9.621   8.641   1.003 -0.0676  0.4308 -0.0879
 2358W        W19882   1.040  12.181  12.474 -0.0918 -0.0159  0.2056
 2359W        W19883  17.664  18.056   0.762  0.5181 -0.2595 -0.3021
 2360W        W19884  15.468  15.273  12.490 -0.0497  0.0743 -0.0102
 2361W        W19885  17.797   3.929   0.015 -0.0248 -0.0030 -0.0459
 2362W        W19886  10.286  16.615   0.655  0.3136  0.0719  0.0411
 2363W        W19887   4.491  11.836  11.150 -0.2827  0.1484 -0.0061
 2364W        W19888   2.061   2.498  13.883 -0.1532 -0.0845 -0.2167
 2365W        W19889   3.926   5.039  15.359  0.0792 -0.0201  0.0097
 2366W        W19890   9.382  16.848   5.077  0.0932  0.0471  0.0327
 2367W        W19891   5.045  14.773  11.799 -0.2370 -0.0444 -0.2493
 2368W        W19892  11.582  13.461   0.265 -0.1316 -0.1027 -0.2342
 2369W        W19893   9.721   5.360  12.178  0.3051 -0.2931  0.1873
 2370W        W19894   6.869  13.100   2.474 -0.0506  0.0671 -0.2262
 2371W        W19895  11.495   8.239   0.530  0.4700  0.0492 -0.0312
 2372W        W19896  15.917  13.580  11.590 -0.0157 -0.0571 -0.2992
 2373W        W19897  18.263   6.994  10.980 -0.1083 -0.1456 -0.0444
 2374W        W19898  14.923   4.407  12.959  0.1211 -0.0201  0.3256
 2375W        W19899  15.912  11.644  11.453  0.1999  0.1617  0.1156
 2376W        W19900  17.526   3.514  14.264 -0.3406  0.2060 -0.1204
 2377W        W19901   2.148  12.921   3.896  0.0043  0.1816 -0.0185
 2378W        W19902  10.450   4.990  15.815  0.1953 -0.0701  0.3397
 2379W        W19903   2.071   7.574   2.599  0.0644 -0.0371 -0.1949
 2380W        W19904  15.388   6.296  14.934  0.3341 -0.4023  0.3294
 2381W        W19905   3.197   1.822  12.513 -0.0011 -0.2113  0.2028
 2382W        W19906   1.321   2.868   0.685  0.4319 -0.1775 -0.0162
 2383W        W19907   6.696  12.870  14.337  0.0105 -0.0360  0.2026
 2384W        W19908   0.613   7.389   2.819 -0.1630 -0.0441 -0.0031
 2385W        W19909   5.592   1.962  11.692  0.2174 -0.0081  0.1097
 2386W        W19910   3.292  11.309  15.182 -0.2273  0.2285 -0.1861
 2387W        W19911   4.312   0.426   3.036  0.0144  0.0391 -0.2508
 2388W        W19912   5.643  17.010  15.575  0.2066  0.0393 -0.0749
 2389W        W19913  14.588   4.598   4.413  0.0774  0.0081 -0.0598
 2390W        W19914   4.964  11.109   1.608  0.0117  0.1405 -0.2188
 2391W        W19915  14.207   9.460  12.630 -0.1693  0.1385 -0.0690
 2392W        W19916   2.937  10.411  13.147 -0.0933  0.3186 -0.1650
 2393W        W19917   0.633   8.865   1.470  0.0776 -0.1705  0.0679
 2394W        W19918   9.746   8.394  12.698  0.1171 -0.0611 -0.2772
 2395W        W19919   5.996   6.303   1.967  0.0223 -0.1416  0.0454
 2396W        W19920   0.179   3.439  15.150  0.0080 -0.1417 -0.2049
 2397W        W19921   3.554   5.513   4.665  0.0062  0.0021 -0.0291
 2398W        W19922  17.206  15.635   2.890  0.1128  0.1655  0.4225
 2399W        W19923  16.506   7.595  11.088  0.1328  0.0403  0.0489
 2400W        W19924  13.789   5.720  15.012 -0.2919  0.5793  0.5486
 2401W        W19925  13.531  13.349   0.156 -0.3383 -0.0034 -0.0941
 2402W        W19926   7.285  14.729   4.530  0.0490 -0.1486  0.0315
 2403W        W19927  16.657  13.198  10.367 -0.0779 -0.0378  0.0285
 2404W        W19928  13.721   8.865   0.508  0.0473  0.0808 -0.1481
 2405W        W19929   8.173   8.214   1.508  0.0830  0.0860 -0.0470
 2406W        W19930  10.766   5.749  11.296  0.3814  0.2207 -0.1029
 2407W        W19931   3.316   0.686   2.778 -0.0153  0.0860 -0.0923
 2408W        W19932  12.789  11.825  12.085 -0.0595  0.0320  0.0696
 2409W        W19933  11.066   7.410   3.733  0.0680  0.1325 -0.1796
 2410W        W19934  10.206  11.359   2.410  0.4034 -0.0511 -0.1629
 2411W        W19935   3.713  12.261  14.309 -0.2213 -0.1207 -0.1796
 2412W        W19936  16.943  15.992  15.306 -0.0552 -0.1111  0.1249
 2413W        W19937   1.809  11.061  11.069 -0.2286 -0.0041 -0.0232
 2414W        W19938   6.344   0.805   4.811  0.0825  0.0784  0.2001
 2415W        W19939  14.889  10.772  12.348 -0.2656  0.1043  0.1751
 2416W        W19940   0.742   4.991  11.495 -0.1338 -0.1649  0.5001
 2417W        W19941   8.193   1.030   1.140 -0.1061 -0.2971  0.0522
 2418W        W19942   0.511   8.393  12.406 -0.0114  0.0365  0.1193
 2419W        W19943  17.171   0.912   4.832  0.1356  0.1449  0.2696
 2420W        W19944   2.695   6.178  11.447 -0.4122  0.2460 -0.3482
 2421W        W19945  14.713   2.032   2.671  0.1554 -0.0063 -0.1570
 2422W        W19946  15.981   4.061  14.595  0.0778 -0.1953 -0.2746
 2423W        W19947  17.410  16.578   0.961 -0.2044 -0.3398  0.0674
 2424W        W19948   2.166  12.502  12.173 -0.0888  0.2081  0.2376
 2425W        W19949   2.447  12.687   4.479 -0.0871  0.2568  0.1287
 2426W        W19950   2.190   9.771  15.608 -0.1570  0.0002  0.0326
 2427W        W19951   5.176  14.115  11.451  0.0303 -0.1014  0.0921
 2428W        W19952   7.471  11.858   0.324 -0.1292 -0.1877 -0.0560
 2429W        W19953  15.340  12.575   2.475 -0.0609  0.2984  0.0584
 2430W        W19954  15.377  11.777  15.069 -0.0163 -0.1822 -0.1708
 2431W        W19955  16.268   2.284  13.195  0.1268  0.1152  0.0514
 2432W        W19956  12.339   0.383   5.515 -0.0861 -0.1194 -0.3499
 2433W        W19957   1.530   9.718   2.444 -0.0007 -0.2107 -0.3499
 2434W        W19958   5.941  15.733   0.462  0.0325  0.2520 -0.1699
 2435W        W19959   9.967   7.339   2.341  0.1205  0.3542 -0.0876
 2436W        W19960  12.706   1.797  11.731  0.1311 -0.0136  0.0235
 2437W        W19961   7.332   2.262  11.380 -0.0030  0.0654  0.2751
 2438W        W19962   9.421   6.439   1.358 -0.2381  0.0989 -0.0409
 2439W        W19963   7.880  12.023   0.072  0.2143  0.2074 -0.1498
 2440W        W19964   0.397  10.123  12.852  0.0179  0.1428 -0.3906
 2441W        W19965  14.586  15.217   2.253  0.1307 -0.0009 -0.1200
 2442W        W19966   2.594   7.667   2.772 -0.2184  0.0840 -0.1756
 2443W        W19967   4.887   5.245  12.530  0.2686 -0.1572  0.0546
 2444W        W19968   3.455  11.765  14.206  0.0944  0.0390 -0.1854
 2445W        W19969  16.023   9.852   1.862 -0.0732  0.0178  0.0462
 2446W        W19970   1.215  17.097  11.273  0.0561  0.3498 -0.2379
 2447W        W19971   3.774   2.469  11.789  0.0018  0.0445 -0.0739
 2448W        W19972   7.552  10.501   0.198  0.0792 -0.1489 -0.4737
 2449W        W19973  13.715  11.945  13.283  0.2096  0.0542 -0.0890
 2450W        W19974   7.870   6.969   1.604  0.2182  0.0111 -0.0200
 2451W        W19975   5.605   6.353   2.343  0.0191  0.0984  0.3104
 2452W        W19976  12.720  17.828  12.814  0.2119  0.0461 -0.0489
 2453W        W19977   6.604   7.096  11.040 -0.0554 -0.0350  0.0214
 2454W        W19978   6.311  12.004   5.943 -0.0879  0.0314 -0.2513
 2455W        W19979   0.250   7.511   3.653 -0.1968 -0.3472 -0.1489
 2456W        W19980  12.566   0.474  12.654 -0.1982 -0.3171  0.1550
 2457W        W19981  13.230  13.131  13.481 -0.0125 -0.3053  0.0217
 2458W        W19982  15.296   3.960   2.668 -0.2377 -0.0528  0.1495
 2459W        W19983   1.240  11.649   0.720 -0.0661  0.1079 -0.3367
 2460W        W19984   3.097   7.718  15.270  0.1301 -0.2790 -0.0393
 2461W        W19985   6.321   9.710  15.538  0.0587 -0.5229 -0.2105
 2462W        W19986   7.319  10.934   4.012  0.2759 -0.1666 -0.1126
 2463W        W19987   2.667  14.438  13.872  0.1279 -0.0880 -0.3396
 2464W        W19988   0.916   9.944  14.225 -0.0720  0.0731  0.1004
 2465W        W19989  13.172   2.272  12.879 -0.1810 -0.0862  0.1365
 2466W        W19990   6.794  18.288  14.785  0.0585  0.2126 -0.0793
 2467W        W19991   3.048   1.622  15.227 -0.0014 -0.2347  0.0367
 2468W        W19992   7.445   4.720  12.814 -0.1811 -0.1455  0.0742
 2469W        W19993   8.816  17.077   3.061  0.0972 -0.0744 -0.0275
 2470W        W19994  12.891   5.313  10.543  0.1040 -0.0198 -0.2464
 2471W        W19995  12.529   2.948   2.731 -0.0182 -0.1726  0.2643
 2472W        W19996   4.592   0.560   4.304 -0.2036 -0.0113 -0.0144
 2473W        W19997   7.890   4.266  11.519  0.1049 -0.0727 -0.2264
 2474W        W19998   4.826  10.444   5.151 -0.1593  0.1020 -0.1992
 2475W        W19999   8.225   7.506   2.342 -0.2737 -0.1128  0.0005
 2476W        W20000  18.287  14.956  14.522  0.1401  0.0246  0.1819
 2477W        W20001  14.317  18.130   1.926  0.2375 -0.1977 -0.2933
 2478W        W20002   5.666   9.299  13.817  0.0832  0.1868 -0.0240
 2479W        W20003  14.624  12.471  11.688  0.2670 -0.0653  0.1393
 2480W        W20004   0.704   8.536  15.767 -0.0308  0.3381  0.0834
 2481W        W20005  14.129   7.203  14.192 -0.2455  0.1289  0.0501
 2482W        W20006  10.400  17.437  13.925  0.3801 -0.0179 -0.0519
 2483W        W20007  16.489  11.570   2.973  0.0793  0.1982 -0.0962
 2484W        W20008   0.337  17.189  10.173 -0.0739 -0.1468  0.4434
 2485W        W20009   9.546   0.432   4.814  0.2534 -0.2269 -0.1830
 2486W        W20010   0.519   8.688  14.521  0.0352  0.2035 -0.0997
 2487W        W20011   0.789  17.010   3.167 -0.0411  0.2878  0.0715
 2488W        W20012   6.775  12.757  15.258 -0.2704  0.1153  0.0337
 2489W        W20013  14.946   5.711   3.502 -0.2312 -0.0889  0.0346
 2490W        W20014   9.075   9.192  14.466 -0.1441  0.2022  0.1029
 2491W        W20015   1.928  11.657  12.748 -0.0756  0.0344 -0.0232
 2492W        W20016  15.925  16.106  11.433  0.2103  0.0482  0.3494
 2493W        W20017  10.753   6.993   4.263  0.1417  0.1525 -0.0199
 2494W        W20018  13.882   0.544   4.447 -0.0107  0.2177 -0.3838
 2495W        W20019  14.123   1.309   3.367 -0.1780  0.1158  0.3010
 2496W        W20020   0.811  15.609   0.589 -0.0493 -0.2490 -0.1010
 2497W        W20021   0.447   6.887   4.897 -0.1657 -0.0918  0.0877
 2498W        W20022   9.877   9.910  14.780  0.3385 -0.1142  0.1261
 2499W        W20023  18.350   8.952   3.972 -0.3665 -0.1626  0.2136
 2500W        W20024   7.513   0.571  11.411 -0.0510 -0.1180 -0.0731
 2501W        W20025   3.500   1.475  12.036  0.0057  0.3540 -0.1108
 2502W        W20026   2.039  12.057   3.759  0.0442  0.3862  0.3260
 2503W        W20027  14.812   7.592  13.692 -0.0407 -0.1364 -0.1223
 2504W        W20028   0.313   5.119  11.165 -0.2796 -0.1748  0.3611
 2505W        W20029   4.008   5.183   3.672 -0.2461 -0.2861 -0.1069
 2506W        W20030   0.731  12.119   2.767 -0.1101 -0.2543  0.2819
 2507W        W20031   7.866  18.103  11.480 -0.1664 -0.2974  0.0049
 2508W        W20032   7.914  11.426   5.077 -0.0056  0.0968 -0.0197
 2509W        W20033   8.542   7.002   0.060  0.2642 -0.0574 -0.3838
 2510W        W20034   3.856  12.260  12.811 -0.0211 -0.0448 -0.2253
 2511W        W20035  12.885  17.975   5.590  0.0524 -0.0671 -0.2413
 2512W        W20036  16.946   2.938  12.538 -0.0752 -0.0649 -0.0167
 2513W        W20037  10.960   1.515   2.363 -0.2488  0.2351  0.0534
 2514W        W20038   2.725  13.887  11.698 -0.3582 -0.3301 -0.3044
 2515W        W20039   6.383   1.465   2.065  0.2573  0.0769 -0.0191
 2516W        W20040   2.811  16.462   4.322  0.1770  0.2177  0.2763
 2517W        W20041   0.636  14.613  13.128  0.1184  0.6238  0.0091
 2518W        W20042  13.377  16.765  14.535 -0.1216 -0.0339  0.1028
 2519W        W20043   2.024  12.555   4.811 -0.1242  0.1268 -0.0835
 2520W        W20044   8.997   3.486  13.560  0.0006  0.1695  0.2245
 2521W        W20045  10.650  14.710   4.511 -0.0485 -0.1666  0.2127
 2522W        W20046   3.365  11.117  13.218 -0.1986  0.0487  0.1157
 2523W        W20047   7.876   0.384   2.251  0.1085 -0.0472  0.5169
 2524W        W20048  14.996   7.990  11.997 -0.2087  0.0091  0.0869
 2525W        W20049   2.837   2.407   0.928  0.2585 -0.0307 -0.0860
 2526W        W20050   6.212   3.693   4.565 -0.0335 -0.1090  0.1694
 2527W        W20051  14.083  15.256   6.260 -0.1075  0.2991  0.1489
 2528W        W20052   6.374  15.382   3.493  0.0903  0.0381  0.2669
 2529W        W20053  11.665  17.115   2.349  0.0745  0.1661 -0.1224
 2530W        W20054  16.811   4.544  15.374  0.1751 -0.0515 -0.0794
 2531W        W20055  18.070  16.668   2.173  0.0064  0.0049 -0.0760
 2532W        W20056   0.586  12.408  13.370 -0.0594 -0.0448 -0.0682
 2533W        W20057  12.639  10.952  11.503 -0.0938  0.3006 -0.1416
 2534W        W20058   5.647   3.872   2.076 -0.0109 -0.1716 -0.0274
 2535W        W20059   0.870  10.335  13.038 -0.3314  0.1783 -0.1715
 2536W        W20060   0.959  11.392   3.926 -0.2877  0.0807  0.0058
 2537W        W20061   1.038   4.878  12.741  0.0962  0.2094  0.0905
 2538W        W20062   7.608   6.363   4.700 -0.2505 -0.0046 -0.0426
 2539W        W20063  10.511   1.825   0.044  0.1641  0.1764  0.1110
 2540W        W20064   9.810  10.535  14.140  0.0180  0.1195  0.0142
 2541W        W20065  14.242  11.851   1.202 -0.0313 -0.1067  0.0543
 2542W        W20066   2.618  13.829  10.929  0.4049  0.0213  0.1383
 2543W        W20067   2.357  18.210   0.812  0.1427  0.2787  0.0152
 2544W        W20068   1.633   3.414   2.108  0.1433 -0.0120  0.3006
 2545W        W20069  11.473   0.592  14.446 -0.1170  0.2631  0.0980
 2546W        W20070   2.087   3.456   0.825 -0.0056 -0.1704 -0.0611
 2547W        W20071   9.427  10.784   1.422  0.1404  0.2557  0.4218
 2548W        W20072  11.224   2.974  13.222  0.2145 -0.0604 -0.1382
 2549W        W20073   4.829   4.432  13.941  0.1387  0.1195  0.0352
 2550W        W20074  12.390  14.630  14.160 -0.1007  0.0966 -0.0245
 2551W        W20075   9.138  17.541  13.089 -0.1033  0.0514 -0.2034
 2552W        W20076  13.047  11.378  15.855 -0.2207  0.3910 -0.0715
 2553W        W20077  16.388   5.128  13.717 -0.0220  0.0551 -0.0199
 2554W        W20078   8.971  14.861  15.018 -0.0077 -0.1667 -0.0548
 2555W        W20079   7.196  12.781   4.021 -0.3207  0.0467 -0.0465
 2556W        W20080   0.150  10.081   4.752  0.0853 -0.0523  0.1746
 2557W        W20081  11.521  18.073  15.482  0.2388  0.0285  0.2501
 2558W        W20082  12.581   3.397  15.650 -0.1577  0.0745  0.2193
 2559W        W20083   5.944   2.786   3.641 -0.0972  0.2711  0.0636
 2560W        W20084   5.809   2.787  13.423 -0.1584  0.0174  0.0410
 2561W        W20085   5.267  12.521  12.921  0.1405  0.1724  0.2343
 2562W        W20086  11.196   4.805   1.468 -0.1598  0.0329 -0.2635
 2563W        W20087  13.363  10.573   1.435 -0.0212  0.2827 -0.1097
 2564W        W20088   7.640  12.100   3.433 -0.0728  0.0029 -0.2919
 2565W        W20089  17.974   0.791   1.846 -0.1027  0.0513 -0.3494
 2566W        W20090   7.621  18.199  11.899  0.0678  0.1168 -0.1182
 2567W        W20091   5.627  17.302  12.078 -0.0834  0.0538 -0.1478
 2568W        W20092   3.797  12.407  13.784 -0.0761 -0.0561  0.0841
 2569W        W20093  12.817   3.603  10.893  0.0594  0.1949 -0.0122
 2570W        W20094  13.006   0.427  12.338  0.4298  0.2446  0.0862
 2571W        W20095   8.561   3.413  13.198  0.1798 -0.0146 -0.1602
 2572W        W20096   0.819  15.392   1.064  0.1279  0.1774 -0.2896
 2573W        W20097   7.320  16.575  15.693  0.2366  0.0002 -0.2783
 2574W        W20098  16.520  15.787  15.427 -0.1962 -0.2156 -0.1390
 2575W        W20099   9.168  13.070   3.551 -0.0159 -0.0837  0.2192
 2576W        W20100   2.580   3.854   3.626  0.1824 -0.0196  0.1433
 2577W        W20101   8.109   0.263  12.722 -0.1624  0.1606 -0.0006
 2578W        W20102   1.155   1.503  15.394  0.3676  0.3042  0.2104
 2579W        W20103   2.366  16.211   1.640 -0.1594 -0.0944 -0.1095
 2580W        W20104  17.881   9.728  10.267  0.2201 -0.1126  0.0255
 2581W        W20105   1.471   3.641  13.850  0.1778 -0.2281 -0.7214
 2582W        W20106  18.052   2.629  13.244  0.0874  0.5226 -0.0900
 2583W        W20107  16.178   6.343   4.713 -0.0779  0.1487 -0.0064
 2584W        W20108   6.597  18.041   4.269 -0.2465 -0.3548  0.1819
 2585W        W20109  15.213  17.736   3.100 -0.0327 -0.1264 -0.1400
 2586W        W20110  15.386  12.508  10.984  0.3611 -0.1074 -0.1217
 2587W        W20111   4.150  17.348   2.428  0.4943 -0.0167  0.3791
 2588W        W20112   3.213  10.702  10.128 -0.0579 -0.0635  0.2451
 2589W        W20113   2.606   5.293   1.235 -0.4968  0.0504  0.0541
 2590W        W20114  11.863  14.186  15.573 -0.2357 -0.1201 -0.0418
 2591W        W20115  10.244   9.479  12.099  0.1613  0.0690 -0.1415
 2592W        W20116  12.348  12.052   1.525 -0.0072 -0.2256 -0.2887
 2593W        W20117  17.366  18.013   1.745  0.1019  0.2032 -0.3631
 2594W        W20118   1.884  17.928   0.749 -0.0720 -0.0755  0.0110
 2595W        W20119   7.097  14.291  12.610  0.0422 -0.1176  0.0219
 2596W        W20120  10.233  17.279   5.576  0.1280  0.3290  0.4196
 2597W        W20121   7.714  17.402  14.340  0.0627  0.1097 -0.0488
 2598W        W20122  12.239   9.498   2.275  0.1104  0.0109 -0.1841
 2599W        W20123   2.318   9.215   4.941 -0.0458  0.1633 -0.2781
 2600W        W20124   7.626   8.157   1.358 -0.0508  0.3516  0.1565
 2601W        W20125   5.692   4.019   0.557 -0.0285 -0.0375  0.2513
 2602W        W20126   2.157   2.147  11.444  0.1042 -0.1934  0.0325
 2603W        W20127   4.211   6.360   4.469 -0.3141 -0.2366 -0.0021
 2604W        W20128  16.321   3.684  11.032  0.0195  0.2826 -0.1631
 2605W        W20129  14.359   6.554  13.437  0.1271  0.1347  0.0305
 2606W        W20130   0.351   6.792  13.193 -0.2560  0.0223  0.0087
 2607W        W20131  16.753  15.548  11.887 -0.1177 -0.1144  0.5202
 2608W        W20132  17.027  14.446  12.253 -0.2580 -0.2192  0.3703
 2609W        W20133   6.846  15.995   1.519 -0.1432  0.0364  0.2123
 2610W        W20134   2.370  14.556   1.348  0.0510 -0.1077 -0.0564
 2611W        W20135  15.820  17.674   4.682  0.1943 -0.2824 -0.0646
 2612W        W20136  17.327   6.652  15.442 -0.0044  0.3156 -0.3751
 2613W        W20137   4.122   8.514  15.586 -0.1327  0.2195 -0.0637
 2614W        W20138  16.982  11.181  15.237  0.1946  0.2705 -0.0433
 2615W        W20139  12.554   2.196  10.130 -0.0481  0.1441  0.0384
 2616W        W20140  17.930   0.693  14.430 -0.0032 -0.2069 -0.2634
 2617W        W20141   7.683   3.839   4.278 -0.0266 -0.0718  0.0569
 2618W        W20142   6.318  12.352   4.141  0.2857  0.3636  0.0912
 2619W        W20143   5.160  14.009  13.905 -0.0968 -0.0317 -0.1077
 2620W        W20144   3.650  17.307  15.107 -0.1307 -0.1381  0.0508
 2621W        W20145   3.899   9.868  13.738  0.4245  0.2558  0.1970
 2622W        W20146   8.090  10.812  11.563 -0.1145  0.0906  0.1244
 2623W        W20147   0.905  11.939  11.564  0.1825 -0.1389  0.1548
 2624W        W20148  14.831  11.151   2.821 -0.3046  0.0106  0.0969
 2625W        W20149   6.345  13.212  13.408 -0.0935  0.3521 -0.0070
 2626W        W20150  16.480  13.942   5.877  0.3267  0.0679 -0.4145
 2627W        W20151  15.254   4.538  12.047  0.1220  0.1394  0.0093
 2628W        W20152  15.019  12.745   1.719  0.3878  0.2115 -0.1430
 2629W        W20153  16.614  10.116  15.357 -0.1055 -0.1045  0.1217
 2630W        W20154   2.477   7.965   0.844  0.2167  0.2857  0.1148
 2631W        W20155   1.022   7.196  13.131 -0.1087  0.0746  0.3574
 2632W        W20156   0.850  15.190  12.170  0.0165 -0.2198  0.1046
 2633W        W20157  16.628  10.082  13.799  0.1369  0.0696  0.4331
 2634W        W20158   4.420  11.028   2.374  0.0474 -0.0872  0.1888
 2635W        W20159  16.164  14.917  11.301 -0.0846  0.0645  0.0262
 2636W        W20160   5.554   3.104  12.973  0.0290 -0.1224 -0.1593
 2637W        W20161   9.715   3.568   0.413 -0.0077 -0.2583  0.0652
 2638W        W20162  17.345  12.248   2.744 -0.1635 -0.2893  0.1324
 2639W        W20163  14.827   6.224  14.138 -0.4772 -0.1580  0.0059
 2640W        W20164  11.817   3.468   2.017  0.0818 -0.1078 -0.1257
 2641W        W20165  10.913  11.068   0.639  0.2905 -0.0657 -0.2168
 2642W        W20166  13.711   6.754   5.200 -0.2694  0.1436 -0.0583
 2643W        W20167  11.231  13.470  15.690  0.0687  0.2000  0.0420
 2644W        W20168  14.229   6.636  15.548 -0.2789 -0.0234 -0.2437
 2645W        W20169   3.194   7.055  15.510  0.1617  0.2282 -0.0845
 2646W        W20170  16.316   0.925  14.016 -0.1087 -0.1584  0.0675
 2647W        W20171   9.665   4.569  15.290 -0.0615  0.1271 -0.0949
 2648W        W20172   7.676   8.595  11.641 -0.1101  0.3742 -0.0358
 2649W        W20173   7.982   7.860   2.566  0.2670  0.0549  0.1882
 2650W        W20174   3.382  13.624   0.215  0.0130  0.0402  0.4408
 2651W        W20175  14.774  15.094   2.890  0.1682 -0.3632  0.0050
 2652W        W20176   1.841   3.875  14.009  0.1408 -0.1079 -0.0877
 2653W        W20177   7.119  13.642  13.846  0.1943 -0.1687 -0.0061
 2654W        W20178  12.750   9.881  15.004  0.0709 -0.0015  0.1423
 2655W        W20179   1.836  11.679   3.440 -0.1626  0.1164  0.1985
 2656W        W20180  10.389   5.811   0.520 -0.0293  0.2742  0.0782
 2657W        W20181  10.918  16.839  15.035 -0.1263  0.0604  0.0586
 2658W        W20182   2.708  13.495  12.984  0.1179  0.1146 -0.0950
 2659W        W20183   1.761  17.105   5.019  0.3810  0.0522 -0.1408
 2660W        W20184   0.560   7.954  13.397 -0.0089 -0.0787  0.1059
 2661W        W20185   2.238  11.444   1.928  0.3833 -0.2214  0.1681
 2662W        W20186   4.307  13.489   3.592 -0.1441  0.1704  0.0793
 2663W        W20187   9.459   6.931   1.550  0.0286  0.0949  0.1146
 2664W        W20188   0.237  17.916  10.740 -0.0090  0.0833 -0.0003
 2665W        W20189  10.148   1.468  12.476  0.0920 -0.2450 -0.3767
 2666W        W20190  14.300   9.742   1.603 -0.0219  0.2186  0.1834
 2667W        W20191  10.225   4.419   1.423 -0.0613  0.1509 -0.3235
 2668W        W20192   1.292  17.094   0.422  0.2572  0.0532  0.0114
 2669W        W20193   4.724  12.732  14.367 -0.2467  0.0228  0.0649
 2670W        W20194  11.904   9.897  13.724 -0.0177  0.1307  0.0931
 2671W        W20195  14.530  15.646  13.224 -0.0556 -0.0703 -0.0433
 2672W        W20196  18.211  13.356   3.219 -0.2152  0.5216 -0.2022
 2673W        W20197  11.258  15.351   4.108  0.3314  0.0819  0.0698
 2674W        W20198  12.942  17.371  11.877  0.1304 -0.3635  0.1630
 2675W        W20199   0.648   7.360   3.308  0.0830  0.1293  0.1699
 2676W        W20200   6.629  17.162   2.447 -0.0333  0.1367 -0.0719
 2677W        W20201   3.509   4.013  14.701 -0.3040  0.1085  0.0476
 2678W        W20202  11.255   2.547   0.818 -0.1147  0.0358 -0.2837
 2679W        W20203   3.830   5.965  15.025 -0.0570 -0.3024  0.0596
 2680W        W20204  17.580   6.600  13.030  0.2977 -0.0071 -0.0916
 2681W        W20205  11.883   0.086   5.534 -0.0038 -0.1768  0.0979
 2682W        W20206   1.456  11.024  10.736 -0.2129 -0.0942  0.0168
 2683W        W20207  13.441  18.264   0.743 -0.0832  0.0287  0.0335
 2684W        W20208   4.223  17.718   4.663  0.0256 -0.0523 -0.1682
 2685W        W20209  11.110   7.389   1.702  0.1053 -0.1966  0.0535
 2686W        W20210   4.350   2.831   1.546  0.1234  0.0708 -0.0472
 2687W        W20211   8.301   4.360  11.936  0.0787 -0.3326  0.0819
 2688W        W20212   1.848   5.904  14.014 -0.1534  0.1842  0.3176
 2689W        W20213   9.309  17.347  15.307 -0.0862  0.1613  0.0533
 2690W        W20214   6.305   4.192   3.372 -0.0831 -0.3071 -0.1283
 2691W        W20215   8.854   6.344   4.171  0.1137  0.1230 -0.0547
 2692W        W20216  18.349   5.150  14.760 -0.1211 -0.0793  0.0643
 2693W        W20217  16.405   7.558   0.798  0.3683  0.0978  0.1928
 2694W        W20218  10.089   2.613  12.653 -0.0725  0.5089  0.0876
 2695W        W20219  16.646  10.825   0.685  0.3957 -0.3957  0.2585
 2696W        W20220  10.072  13.768   2.646  0.0742 -0.1754 -0.1935
 2697W        W20221   9.682   8.284   0.173 -0.3177  0.2470  0.0756
 2698W        W20222  16.483   4.198  12.264 -0.0591 -0.1482 -0.1049
 2699W        W20223  15.982  18.123  11.314 -0.1277  0.0403 -0.4835
 2700W        W20224   2.613   5.834  15.651 -0.2099  0.0558  0.0749
 2701W        W20225  17.579   3.913  11.462 -0.0451  0.1171 -0.3199
 2702W        W20226  17.418   2.279  11.942  0.0584 -0.1302  0.0045
 2703W        W20227   4.431   5.543   1.893  0.1459  0.1622 -0.0511
 2704W        W20228   2.104  15.033   1.262  0.2770  0.1135 -0.1382
 2705W        W20229  10.778  10.616  14.147 -0.1304 -0.1035  0.0497
 2706W        W20230  18.290   7.584   2.779  0.1652 -0.1059  0.2185
 2707W        W20231   1.456  12.756   3.174 -0.1186 -0.0054  0.1909
 2708W        W20232   7.307  11.226   2.435 -0.1758  0.0090 -0.0211
 2709W        W20233  10.125   9.751  14.308  0.0800 -0.0164  0.0764
 2710W        W20234  12.723   4.953  13.789  0.1030 -0.1153  0.1430
 2711W        W20235  14.566  12.329  13.019 -0.1377 -0.0898 -0.0558
 2712W        W20236  14.778   1.733   3.415 -0.0501 -0.2515  0.0185
 2713W        W20237  10.600  17.574  12.649 -0.1907 -0.0185 -0.1335
 2714W        W20238   2.255   9.245  13.148  0.0274 -0.2921 -0.0547
 2715W        W20239   0.559   4.494   4.034 -0.1778  0.5003  0.1233
 2716W        W20240   0.090   1.906   2.484 -0.0305 -0.0259 -0.1356
 2717W        W20241   8.772   3.246  14.529  0.1225 -0.2369  0.1355
 2718W        W20242   2.231   9.438  11.911 -0.1241 -0.0318 -0.0274
 2719W        W20243  15.019  12.615  15.338 -0.0760  0.7251  0.0245
 2720W        W20244   8.131   4.929  11.092  0.0819 -0.0180 -0.3329
 2721W        W20245   5.009   0.226   2.386  0.0119 -0.1038 -0.0688
 2722W        W20246   5.205  18.364  15.231  0.1506 -0.0119 -0.1153
 2723W        W20247   5.087   8.027   1.166 -0.0156 -0.1127 -0.0488
 2724W        W20248   7.918  16.064  12.449 -0.1172 -0.1690  0.1023
 2725W        W20249   9.557  10.444   4.397 -0.0536  0.0445 -0.0107
 2726W        W20250   6.761   8.864   3.284  0.1395 -0.0465  0.1404
 2727W        W20251   5.790   7.328   0.134  0.4646  0.3379  0.0080
 2728W        W20252   7.077   2.900   3.413  0.2942 -0.1164  0.0066
 2729W        W20253  17.098  11.196   2.058  0.1332  0.2024  0.4496
 2730W        W20254   5.880   9.381  12.104  0.3088 -0.2625  0.0335
 2731W        W20255  12.044  18.285  12.437  0.2060 -0.1475 -0.2146
 2732W        W20256  18.358  18.336  12.114 -0.0414 -0.4179  0.1142
 2733W        W20257  16.043   0.299  11.530  0.0476 -0.0773 -0.3468
 2734W        W20258   3.504   1.099  10.575 -0.2406  0.0123  0.2830
 2735W        W20259   9.450   9.485   6.158 -0.2014  0.1817 -0.2380
 2736W        W20260   0.298   1.324   3.187  0.1661 -0.1510 -0.0237
 2737W        W20261   6.903  14.035  11.185 -0.0696  0.0625  0.0369
 2738W        W20262   8.781  11.223   3.487 -0.2229 -0.2931 -0.1466
 2739W        W20263   8.065   0.073   2.838 -0.1222 -0.1819 -0.2884
 2740W        W20264  15.821  13.072   3.990  0.0210 -0.0067 -0.2569
 2741W        W20265   2.706   4.985  15.326 -0.1226 -0.0089  0.1822
 2742W        W20266  12.733   4.537   3.445  0.1638 -0.1475 -0.0441
 2743W        W20267  18.223   2.801  11.860  0.0789 -0.0366  0.1574
 2744W        W20268   2.216   5.875   5.210 -0.3507 -0.0318  0.0990
 2745W        W20269   4.382  11.386  11.004  0.3312 -0.0498 -0.1616
 2746W        W20270   0.733  10.185   0.958 -0.0340 -0.0095  0.3405
 2747W        W20271   2.338   2.368  14.312  0.0561 -0.1981  0.3832
 2748W        W20272   0.112   4.298   3.254 -0.0572  0.3684  0.0034
 2749W        W20273   5.210   2.297  11.318 -0.1926 -0.2166 -0.2502
 2750W        W20274   5.613  10.442   3.400 -0.0513  0.1575  0.0917
 2751W        W20275   3.214   1.684   3.506 -0.2892  0.0668 -0.1588
 2752W        W20276   1.040  17.514   2.528  0.2868  0.1133 -0.1873
 2753W        W20277   6.053  12.353  12.390 -0.4428  0.0472  0.1632
 2754W        W20278   8.083  17.264  10.353  0.1481  0.1388 -0.0914
 2755W        W20279  16.849  10.879   3.091 -0.0904  0.2758  0.0709
 2756W        W20280   6.581  10.970   3.797 -0.0396  0.1571 -0.0296
 2757W        W20281   0.041  17.162   2.011 -0.0750  0.5859 -0.4434
 2758W        W20282   7.763  14.468  11.324 -0.0234  0.0497 -0.0231
 2759W        W20283   8.022   2.378  10.258  0.2384 -0.1535 -0.0805
 2760W        W20284   8.419   8.164  15.034  0.1010  0.0568  0.1795
 2761W        W20285   7.986   8.269   3.906 -0.1975  0.1429 -0.2064
 2762W        W20286   3.936  17.912  13.479 -0.1521  0.1282  0.0174
 2763W        W20287   2.178   9.872  12.166 -0.1061  0.0094  0.3470
 2764W        W20288   8.463   8.364  13.600  0.0910  0.2626  0.0556
 2765W        W20289  10.485   7.554  12.639  0.0516  0.0484  0.1178
 2766W        W20290  11.925  13.592   2.702 -0.0485 -0.2119  0.0754
 2767W        W20291   1.408   8.707  11.442  0.0439 -0.1816  0.0249
 2768W        W20292  13.044  12.765   3.741  0.0147 -0.3677  0.2256
 2769W        W20293   8.303   0.919  11.389  0.1452 -0.0092  0.0802
 2770W        W20294  16.742  17.317   3.357  0.2057  0.0264  0.0233
 2771W        W20295  17.759   6.598   1.139 -0.0317 -0.1920  0.1046
 2772W        W20296  14.217  12.083  13.395 -0.3083 -0.1067  0.1591
 2773W        W20297  15.307   3.173   2.949 -0.0357  0.2305 -0.1808
 2774W        W20298  12.249  10.733  12.595 -0.1063 -0.2509  0.1006
 2775W        W20299   9.321   8.380  13.506 -0.1169  0.1516  0.0543
 2776W        W20300  12.960   2.807   1.456  0.1208 -0.1591  0.2215
 2777W        W20301   3.800  16.320   0.463 -0.1048 -0.2501 -0.3434
 2778W        W20302  17.456  14.187   3.297  0.0516  0.0918  0.1832
 2779W        W20303   0.774   5.894   3.730 -0.1667  0.0602  0.2461
 2780W        W20304   7.088  16.006  14.322  0.0825 -0.0011  0.0370
 2781W        W20305  10.481  12.502  12.153 -0.2756 -0.3700  0.0413
 2782W        W20306   3.324  16.972   1.391  0.0958 -0.1570  0.2133
 2783W        W20307  16.022   9.535  13.263 -0.0040  0.3579  0.2106
 2784W        W20308  16.845  14.939   2.199 -0.2592 -0.1652 -0.1462
 2785W        W20309  10.664   7.118  14.324 -0.1764 -0.0332 -0.0334
 2786W        W20310   8.212  10.099  13.601 -0.0432  0.0446  0.0553
 2787W        W20311   0.511  12.320  11.023  0.1390 -0.0496  0.1064
 2788W        W20312  14.914   2.092  11.113 -0.1503  0.3239  0.3494
 2789W        W20313  10.238  16.743   5.309 -0.0751  0.0954 -0.2219
 2790W        W20314   3.401   9.060  13.710  0.1563 -0.0541  0.2225
 2791W        W20315  14.620   4.012  14.277  0.1668  0.1637 -0.1293
 2792W        W20316  10.406  15.515  12.482  0.1916 -0.1096  0.1232
 2793W        W20317   8.859   6.333  12.762 -0.1174 -0.2105  0.4046
 2794W        W20318   9.078   5.943   3.316 -0.1979  0.0230 -0.0135
 2795W        W20319   9.844  13.411   2.336 -0.2044 -0.1026 -0.0389
 2796W        W20320   2.767  17.966  13.894  0.0139 -0.1427 -0.1123
 2797W        W20321   3.492   1.582   3.122 -0.0327 -0.0713  0.1948
 2798W        W20322   2.494   0.152  11.157 -0.1032  0.2215 -0.0679
 2799W        W20323  13.432   8.680   2.376 -0.0455  0.0453  0.2366
 2800W        W20324  15.210   6.210  11.921  0.2474  0.0255  0.0488
 2801W        W20325   4.057   8.934   1.770  0.0314  0.0877  0.1975
 2802W        W20326   0.365   6.732  11.401 -0.0706 -0.0872  0.0055
 2803W        W20327   0.369  13.884  13.828 -0.2130 -0.2030  0.2516
 2804W        W20328   8.841  12.343  11.694 -0.0916  0.2784 -0.3366
 2805W        W20329  15.426   7.116  15.805 -0.0624 -0.1044 -0.0771
 2806W        W20330   6.052   9.033  12.990  0.0041  0.0992  0.2496
 2807W        W20331  17.745   8.486  11.003 -0.1636  0.0325  0.2610
 2808W        W20332   6.429  13.836   0.301  0.0872 -0.1968 -0.1749
 2809W        W20333   7.839  16.861   4.827  0.3683 -0.0520  0.1784
 2810W        W20334   0.565  15.961  14.041  0.0776 -0.0817 -0.2276
 2811W        W20335   4.182  12.537  14.239  0.0995 -0.2027 -0.0091
 2812W        W20336   4.193  15.557   4.633 -0.0835 -0.0837  0.0311
 2813W        W20337  13.952   8.945   6.097  0.4556  0.1411  0.0765
 2814W        W20338   3.185   4.119  11.906 -0.4260 -0.1818  0.0560
 2815W        W20339  17.352  10.983   2.980  0.0493 -0.1071  0.0371
 2816W        W20340   5.750  12.252   3.320 -0.0722 -0.0831 -0.2850
 2817W        W20341  13.224  15.973   4.096 -0.1062  0.0274  0.4040
 2818W        W20342   5.138   7.748   2.425 -0.3286  0.2008  0.2299
 2819W        W20343   1.835   6.308  12.720 -0.0055 -0.0889 -0.0122
 2820W        W20344   7.406   5.257  15.791  0.2001 -0.1025  0.0173
 2821W        W20345   9.366   6.015  13.046  0.1041  0.2730  0.0131
 2822W        W20346   8.098  10.899  12.469  0.1512 -0.0087 -0.0811
 2823W        W20347  15.451  15.210  13.320  0.0209  0.4825  0.0995
 2824W        W20348   3.185   3.850  15.226 -0.1103  0.0809  0.2245
 2825W        W20349  10.932  12.308  12.548  0.2318 -0.2138  0.0716
 2826W        W20350  13.125  17.659  13.260  0.1529 -0.0115  0.2311
 2827W        W20351  16.106   6.923   3.989  0.4287  0.2864  0.2417
 2828W        W20352   5.547  12.240  11.517 -0.0123  0.0427 -0.1194
 2829W        W20353  13.821  17.291   2.304 -0.1929 -0.1853 -0.2504
 2830W        W20354   3.649  13.978  10.387 -0.1220  0.1097 -0.0067
 2831W        W20355   1.246   8.116  14.081  0.1850  0.0696 -0.0760
 2832W        W20356   5.876   1.935  15.770 -0.1593  0.0092  0.0698
 2833W        W20357  13.109  10.228  15.040  0.4133 -0.0851 -0.2163
 2834W        W20358  12.958  17.855  12.090 -0.2321  0.0115 -0.0639
 2835W        W20359   6.722   1.000   4.493  0.1698  0.0497 -0.1792
 2836W        W20360  10.067  15.619  12.883  0.1598 -0.1983  0.2490
 2837W        W20361   4.398  13.958  10.922 -0.2650  0.2547  0.5171
 2838W        W20362   2.586   5.734  14.595 -0.1648  0.1687 -0.1414
 2839W        W20363   8.547   2.842   1.073 -0.0547 -0.0796  0.0415
 2840W        W20364  18.270   7.571  13.905  0.0891 -0.1264  0.0316
 2841W        W20365  12.039  11.525   0.040  0.0113 -0.0020 -0.2946
 2842W        W20366   1.173   8.860   2.619  0.1262 -0.0327  0.1427
 2843W        W20367   2.258  11.002  11.945 -0.2038  0.3254  0.0420
 2844W        W20368  11.763  17.851  12.616  0.0141  0.3327  0.0197
 2845W        W20369   3.305   0.289  11.761  0.2376 -0.0432  0.0924
 2846W        W20370   5.404   7.799   1.534  0.0453  0.0904 -0.1274
 2847W        W20371   2.731   2.205   0.477  0.1174 -0.1173 -0.2350
 2848W        W20372  18.198  15.818   2.488  0.0284 -0.0226  0.4244
 2849W        W20373   7.785   1.654   0.951 -0.3187 -0.2272 -0.2992
 2850W        W20374  18.189   8.788   0.330 -0.2322 -0.2446 -0.0601
 2851W        W20375   3.624  17.770   1.721  0.0681 -0.1991  0.0688
 2852W        W20376   0.218  14.725   1.393 -0.0174  0.0686  0.0999
 2853W        W20377   3.337   8.773  10.461  0.0551  0.1110 -0.1812
 2854W        W20378   7.154   9.877   2.678 -0.0560  0.1552 -0.0789
 2855W        W20379  10.128   6.946   3.694 -0.1640 -0.0680  0.1555
 2856W        W20380   6.411   7.811   2.046 -0.1430 -0.2806 -0.0457
 2857W        W20381   1.209   9.176  11.409 -0.2652 -0.2329 -0.1631
 2858W        W20382   8.240   8.750   1.138 -0.0641  0.1016 -0.4538
 2859W        W20383   9.333   9.174  13.073 -0.1265  0.0118  0.0729
 2860W        W20384  12.772  16.669   4.402 -0.0513  0.2559  0.2176
 2861W        W20385  12.176   4.924   4.697 -0.2426 -0.0405 -0.4955
 2862W        W20386  12.067   9.508   4.508  0.3232  0.0644 -0.2688
 2863W        W20387   8.017  15.188  12.709  0.2881 -0.0898 -0.0811
 2864W        W20388   3.393   8.212   0.826  0.0080  0.3754  0.2255
 2865W        W20389   7.290  10.672   3.538  0.0853 -0.3601 -0.0758
 2866W        W20390   1.936   8.913   2.087 -0.0256  0.1025 -0.0889
 2867W        W20391   9.981  18.196   3.221  0.0561  0.1477 -0.1903
 2868W        W20392  12.658   4.405   3.997  0.1844  0.1977 -0.1935
 2869W        W20393   9.555   7.777  15.528  0.0440 -0.1680  0.1009
 2870W        W20394   9.579   2.005   4.389  0.2567 -0.0775 -0.0508
 2871W        W20395   9.540  14.351   4.740  0.2640  0.1491 -0.0383
 2872W        W20396  16.523  16.163  15.076 -0.0665 -0.1138 -0.0296
 2873W        W20397  17.002   8.048   3.055 -0.1242 -0.2076 -0.0886
 2874W        W20398   8.389  11.234  14.727  0.0242  0.2898  0.2297
 2875W        W20399  14.407  18.059   1.348  0.3801 -0.0955 -0.3173
 2876W        W20400   6.517   7.345  15.446  0.0421  0.1954 -0.1171
 2877W        W20401  10.028   3.815   1.187 -0.3394  0.0927 -0.3605
 2878W        W20402  16.261  15.649  11.790  0.2333  0.2543 -0.1609
 2879W        W20403   1.451  15.683   3.121  0.1452  0.3140 -0.1656
 2880W        W20404  11.954  15.847  15.000  0.2924 -0.3382  0.0776
 2881W        W20405  15.161  12.164   3.292  0.0609 -0.0485  0.0535
 2882W        W20406   3.567   5.069  14.863  0.0309  0.2671 -0.5156
 2883W        W20407  12.343   9.706  13.770 -0.0445 -0.0398  0.0149
 2884W        W20408  14.375  16.556  14.489  0.1765  0.0369 -0.2271
 2885W        W20409   8.887  16.627   0.842 -0.0733  0.3446 -0.2080
 2886W        W20410   0.675   4.075  14.780  0.0350  0.0604 -0.1451
 2887W        W20411  13.611  15.519   1.328 -0.1658 -0.0978  0.1693
 2888W        W20412   3.640   0.865   1.574  0.4483  0.1872  0.0158
 2889W        W20413   3.729   8.084  13.124 -0.0317 -0.4989  0.0639
 2890W        W20414  10.226   4.637   2.503 -0.1228  0.6513 -0.1845
 2891W        W20415  13.382   7.493   3.174  0.1459 -0.1237 -0.2710
 2892W        W20416  16.445   1.414  13.810  0.0102  0.4865 -0.1583
 2893W        W20417  13.230  13.106   5.530  0.0713 -0.1939  0.1441
 2894W        W20418  16.744   1.378   3.398 -0.2444 -0.3207 -0.0638
 2895W        W20419   3.652   9.170  15.118  0.1103  0.2302 -0.4078
 2896W        W20420   6.876   2.416   1.198  0.1714  0.0480 -0.0664
 2897W        W20421   9.371   4.782   2.612  0.0400 -0.1184 -0.1850
 2898W        W20422  12.405   3.610  13.990 -0.1293  0.0077  0.3473
 2899W        W20423  13.853  12.933   0.047  0.1226 -0.1474  0.0220
 2900W        W20424  16.267  12.907   4.875 -0.0855  0.0483  0.2581
 2901W        W20425  13.056  16.059   0.674 -0.0153 -0.0033  0.1919
 2902W        W20426   9.207   4.656   2.172  0.3275  0.1391 -0.0698
 2903W        W20427  12.887  15.587   0.675 -0.1636 -0.0648 -0.1694
 2904W        W20428   8.688   2.016  12.713  0.1907 -0.1403  0.0939
 2905W        W20429   7.626   7.941   4.262 -0.2909 -0.0110  0.1708
 2906W        W20430  16.964   7.470   2.183  0.0678 -0.1524  0.0110
 2907W        W20431  14.690   7.942   4.574  0.2552  0.2435 -0.2492
 2908W        W20432  12.207   6.234  14.168  0.1881  0.1120  0.0553
 2909W        W20433   1.050   8.685   1.739 -0.6312  0.1946 -0.0026
 2910W        W20434   2.751   0.697   3.625 -0.0435  0.0658 -0.0658
 2911W        W20435  13.064  14.689   0.860  0.0373 -0.2188  0.0792
 2912W        W20436  12.147  10.572  13.940 -0.5094 -0.1845  0.0309
 2913W        W20437   1.652  17.700  12.318  0.1765 -0.1272 -0.1518
 2914W        W20438  13.935  18.375   0.782 -0.0231  0.2742 -0.0631
 2915W        W20439   9.444   7.925  13.297 -0.1550  0.1488  0.1622
 2916W        W20440  11.270   2.501  11.351 -0.0734 -0.0764 -0.0210
 2917W        W20441   4.615  14.128  15.076  0.0028 -0.0408 -0.0206
 2918W        W20442  10.642  13.247  12.901 -0.0440 -0.4568  0.0931
 2919W        W20443  18.001  16.171   2.027  0.1500  0.2194  0.0485
 2920W        W20444   4.497  17.293   0.383  0.0010  0.1052  0.1355
 2921W        W20445  11.348  14.360  13.965  0.1674  0.3331  0.0728
 2922W        W20446  16.035   7.903   2.557 -0.0701  0.2202 -0.2687
 2923W        W20447  17.039  15.462  10.802 -0.2823  0.0581  0.1056
 2924W        W20448   0.794   0.821   4.279 -0.0415 -0.2206 -0.0866
 2925W        W20449   6.943   8.269  10.669  0.0328 -0.0050 -0.1920
 2926W        W20450   3.263   5.574  13.162 -0.0028  0.1204 -0.1338
 2927W        W20451  14.729   5.291   3.242  0.0037 -0.1884 -0.4296
 2928W        W20452   2.602   7.484   1.861  0.1724 -0.0560 -0.0318
 2929W        W20453  11.898   1.104   2.353 -0.1092 -0.1722  0.0972
 2930W        W20454   3.104  10.114  13.742  0.1250  0.0976  0.0670
 2931W        W20455   8.903   2.913   0.699  0.0541 -0.0141 -0.0714
 2932W        W20456   0.435   9.672   3.358 -0.1276  0.0347 -0.1003
 2933W        W20457   4.623   6.348   4.776  0.2519 -0.2185 -0.1677
 2934W        W20458   4.565  11.867   4.502 -0.0536  0.2334  0.1718
 2935W        W20459   2.621   3.902   2.325  0.0624 -0.3376  0.0261
 2936W        W20460  16.266  17.847   1.936  0.3806  0.2811  0.0580
 2937W        W20461   3.173   6.909   2.844 -0.2471 -0.2892 -0.2067
 2938W        W20462   9.193  11.664   0.050 -0.2153 -0.1636  0.0478
 2939W        W20463  15.993   5.874  10.752 -0.1850  0.0498  0.1173
 2940W        W20464   7.813  10.083  13.217  0.0598 -0.0073 -0.0344
 2941W        W20465   4.416  11.361  11.604  0.1698  0.1461  0.0634
 2942W        W20466  11.002   3.043   4.143  0.0730 -0.1023  0.2557
 2943W        W20467  10.070   2.380  13.061  0.0764  0.1416 -0.3149
 2944W        W20468   6.291   2.826  14.454  0.1175 -0.0058 -0.1225
 2945W        W20469  15.098   0.638  11.794 -0.0955 -0.2272 -0.2454
 2946W        W20470  11.434  10.941   2.033  0.2205  0.2841  0.0303
 2947W        W20471   9.857   6.104   1.311 -0.0547 -0.2637 -0.0239
 2948W        W20472  14.002  14.615  11.385 -0.0666 -0.0969 -0.1274
 2949W        W20473   4.137   6.258  12.203 -0.2221 -0.2361 -0.0718
 2950W        W20474   2.491   3.446  13.054 -0.0587  0.3684  0.2051
 2951W        W20475  12.555   3.194   4.212  0.1065  0.1053 -0.1325
 2952W        W20476  18.276  11.152   0.620  0.3013  0.0445  0.2520
 2953W        W20477   2.369  12.076  15.768 -0.1340 -0.3110  0.1087
 2954W        W20478   2.043   0.188  12.363  0.1982 -0.0982  0.1469
 2955W        W20479  15.290  11.707   1.268  0.0821 -0.1979 -0.0619
 2956W        W20480  13.656   6.334   3.832 -0.0140 -0.0833  0.0301
 2957W        W20481  15.189   8.988  14.590 -0.2503 -0.0779 -0.2914
 2958W        W20482   9.676  14.461   0.723  0.2120 -0.1437 -0.1624
 2959W        W20483  12.908  12.363   3.352 -0.0896  0.2966  0.2045
 2960W        W20484   2.831  11.040   4.904 -0.2495 -0.1988 -0.1974
 2961W        W20485  16.965  13.433   3.355 -0.0996 -0.0460 -0.1655
 2962W        W20486   1.021   0.558  14.232 -0.0928 -0.1607 -0.0002
 2963W        W20487  13.271  15.086  11.499 -0.1061 -0.0016 -0.3640
 2964W        W20488   3.840   7.350  14.235 -0.2116  0.2521  0.0705
 2965W        W20489  12.048  12.675   2.319  0.0293 -0.0855  0.1694
 2966W        W20490  12.550   9.919   2.423 -0.2320  0.1177  0.1199
 2967W        W20491   6.736  11.335  12.653  0.0179 -0.0908  0.0743
 2968W        W20492   0.361  16.862   0.730  0.2445 -0.0473 -0.0883
 2969W        W20493   3.421   5.166   3.648  0.0129 -0.0112 -0.2856
 2970W        W20494   3.291   0.872  14.031  0.0159 -0.0676  0.1611
 2971W        W20495  14.050   9.758  14.987 -0.2298  0.0593  0.2686
 2972W        W20496  11.314   4.757  11.611  0.0146 -0.0973 -0.1986
 2973W        W20497  13.132  17.866   4.004  0.1714 -0.0266  0.5287
 2974W        W20498  16.585   5.606  13.592 -0.1879  0.1291 -0.2544
 2975W        W20499   0.942   0.313  15.576  0.2352 -0.2633  0.0394
 2976W        W20500  10.215  14.583  11.288 -0.1260 -0.0125  0.2577
 2977W        W20501  12.100   8.064   3.894  0.0412  0.3817  0.3689
 2978W        W20502   9.631   2.916   3.549  0.1688 -0.1432  0.1562
 2979W        W20503  15.760  14.677  11.456 -0.1004  0.0443 -0.2673
 2980W        W20504  16.115   0.021  13.170 -0.3791 -0.2972  0.0749
 2981W        W20505  14.317   8.593   2.400  0.1321  0.0664 -0.2704
 2982W        W20506  11.180  12.971   0.802 -0.1152  0.2052 -0.0521
 2983W        W20507   2.636  15.914  12.144 -0.3623  0.0611  0.3172
 2984W        W20508  10.541   6.589  10.749 -0.0497 -0.3236  0.0743
 2985W        W20509   8.628   6.042   2.384 -0.0306 -0.1224 -0.0676
 2986W        W20510   0.335  15.237   2.711  0.0097 -0.0554 -0.0289
 2987W        W20511   2.332  10.987   4.772 -0.0958  0.3381  0.2077
 2988W        W20512  16.552   1.385   3.945 -0.1802 -0.1924 -0.1059
 2989W        W20513  11.486  16.927  14.181 -0.1906  0.0734  0.0472
 2990W        W20514   0.587   4.879   0.468  0.0233 -0.0326  0.0460
 2991W        W20515  10.777   0.322   1.163 -0.4071  0.1217 -0.0602
 2992W        W20516  17.606   6.531  11.942  0.1501  0.1953 -0.0419
 2993W        W20517   1.499  11.746   2.633  0.0950  0.2363 -0.1025
 2994W        W20518   7.564  13.858   4.375 -0.0649  0.2024 -0.1392
 2995W        W20519   4.565   7.870   1.133  0.1553  0.3454  0.1125
 2996W        W20520  16.009  17.200  13.712  0.3381 -0.0471 -0.2302
 2997W        W20521  13.183   3.663   2.391 -0.0803 -0.3053  0.4472
 2998W        W20522  14.692  11.131  13.946  0.1046  0.2565 -0.3762
 2999W        W20523  16.672   2.727   3.209  0.0585 -0.0313  0.0423
 3000W        W20524  13.075  12.743  12.550  0.0075 -0.0088 -0.0374
 3001W        W20525  14.185   1.315  14.708 -0.0684 -0.2552  0.1457
 3002W        W20526  11.571   9.540   4.570 -0.0977  0.0310  0.1017
 3003W        W20527   7.274   9.832  11.563  0.0107 -0.2968  0.0066
 3004W        W20528   9.771   2.440  11.561  0.0203  0.0564  0.1684
 3005W        W20529  17.192  14.562   2.215  0.0538 -0.1392 -0.0111
 3006W        W20530  13.880  16.130  15.860 -0.1694  0.1982 -0.1588
 3007W        W20531   3.322  14.725  12.426 -0.1159 -0.1901 -0.3012
 3008W        W20532   6.463   8.846  13.197  0.0741 -0.0127 -0.0133
 3009W        W20533   0.850   5.994  15.410  0.3354  0.1244 -0.2185
 3010W        W20534   9.916   0.171  13.150 -0.0989  0.3528 -0.2095
 3011W        W20535  13.151  15.698  14.899 -0.2094  0.1326 -0.0449
 3012W        W20536   2.791   4.776   2.746 -0.1193  0.1489  0.1164
 3013W        W20537  17.727   4.956   4.449 -0.2127 -0.0533 -0.0156
 3014W        W20538  18.094  18.405   4.035 -0.4767  0.1441  0.0327
 3015W        W20539  16.529   8.443   4.475 -0.0158  0.1490 -0.0908
 3016W        W20540   5.090   0.697   5.470  0.1344  0.1387  0.0966
 3017W        W20541  11.022  11.084   2.275  0.1341  0.0116 -0.0122
 3018W        W20542  11.951  16.630  12.865 -0.2330  0.1229 -0.1481
 3019W        W20543   0.822  10.970  10.248  0.1121 -0.0903 -0.0423
 3020W        W20544   8.526  14.821   3.468 -0.1259  0.0900  0.0611
 3021W        W20545   6.954   9.875   3.153 -0.0106 -0.4178 -0.1570
 3022W        W20546   2.871   8.608  10.383 -0.2936 -0.3252  0.0844
 3023W        W20547   7.717   2.068  14.556 -0.0227  0.0694  0.1372
 3024W        W20548  16.837   2.936   2.746 -0.2074  0.0691 -0.1885
 3025W        W20549   2.796   7.912  10.895  0.1656 -0.1919 -0.1544
 3026W        W20550   3.097   4.770  15.038 -0.1090 -0.0120  0.1607
 3027W        W20551   9.591  11.156   3.735  0.0925  0.1980  0.4105
 3028W        W20552  15.009   4.604   4.130  0.2351  0.1634 -0.1627
 3029W        W20553  16.328  15.451   3.818 -0.0452 -0.2364 -0.1871
 3030W        W20554   3.962   8.035   0.460 -0.4118  0.0770 -0.0367
 3031W        W20555  12.816   1.586   0.426  0.0940  0.3076  0.1433
 3032W        W20556   8.793   4.307   3.286 -0.0099 -0.2824 -0.1807
 3033W        W20557  16.983   6.991   4.454  0.1448 -0.0320 -0.1011
 3034W        W20558   9.700   9.848   1.885 -0.1892 -0.1018 -0.1423
 3035W        W20559  18.099  15.640   4.596 -0.3370  0.1457  0.0790
 3036W        W20560   6.780   5.773   0.435 -0.0856 -0.0613 -0.0677
 3037W        W20561  10.484   5.790   3.310  0.3263  0.0779 -0.1849
 3038W        W20562   0.568   2.147  14.024  0.0714 -0.0077  0.2022
 3039W        W20563  15.508  13.471   1.250  0.1071 -0.2989  0.0788
 3040W        W20564  15.448   2.641   2.812 -0.4634 -0.1449 -0.0944
 3041W        W20565  10.305   0.802   0.157 -0.2392 -0.2886  0.1795
 3042W        W20566  18.272   8.841  15.672 -0.0619  0.1267 -0.1109
 3043W        W20567   5.782  15.442  13.919 -0.2445 -0.3592  0.1308
 3044W        W20568   9.904   0.420   1.051 -0.1643 -0.0666  0.4094
 3045W        W20569  18.386  16.284   2.377 -0.0400  0.0327 -0.2228
 3046W        W20570  13.467  14.812   2.639  0.1325  0.0110 -0.0968
 3047W        W20571  14.895   7.980  10.162 -0.0050 -0.0944  0.2492
 3048W        W20572   6.665  13.469  14.239 -0.2811 -0.0216  0.3652
 3049W        W20573  11.815   3.991   1.171  0.1286 -0.1914  0.0118
 3050W        W20574   5.098  10.115  13.714 -0.1306 -0.1858 -0.4450
 3051W        W20575   2.053  11.280  15.498 -0.0969 -0.0010 -0.1835
 3052W        W20576   3.519   6.139  11.078  0.1250  0.3169 -0.2551
 3053W        W20577  10.534   3.021  14.343 -0.0997 -0.2477 -0.0511
 3054W        W20578  14.451   3.652  15.579 -0.1021 -0.1311 -0.0039
 3055W        W20579   3.752   6.654  12.447 -0.0508 -0.2226 -0.0762
 3056W        W20580  13.839   8.436   9.849 -0.1963  0.1754 -0.2949
 3057W        W20581  16.397  14.445  14.512  0.5143  0.1335  0.1831
 3058W        W20582  10.263  15.742   3.257 -0.3029 -0.0952  0.2015
 3059W        W20583   7.635   5.559   9.865 -0.0626  0.0001 -0.2130
 3060W        W20584  14.870   0.821   1.277 -0.2564 -0.0029 -0.0720
 3061W        W20585  14.842  10.908   1.457  0.1344  0.1025 -0.1683
 3062W        W20586   2.810   8.840  15.586  0.0808  0.1302 -0.1998
 3063W        W20587   9.208   0.735   3.617 -0.1384  0.1971 -0.0275
 3064W        W20588   8.766  13.725   5.511 -0.2226  0.2891  0.2786
 3065W        W20589  11.158   3.310  14.489  0.1253 -0.1625 -0.3861
 3066W        W20590   2.554   8.805   0.220  0.2811 -0.0838  0.0292
 3067W        W20591  17.971   9.630  11.233  0.1447  0.0734 -0.5489
 3068W        W20592  17.429  15.879  15.375  0.3413 -0.2806 -0.0770
 3069W        W20593  12.004  12.146  12.540 -0.1166 -0.1511 -0.3016
 3070W        W20594   1.988  15.028  14.231  0.1881 -0.1400 -0.0032
 3071W        W20595  15.544   3.368  12.873  0.0838  0.1605  0.6254
 3072W        W20596   7.885  13.817  12.779 -0.0417  0.0198 -0.3855
 3073W        W20597  16.306   4.877   1.685 -0.1829  0.0697 -0.0288
 3074W        W20598  16.294   8.608  14.491 -0.0629 -0.0970  0.0209
 3075W        W20599   5.904   4.387   4.724  0.1503 -0.2036  0.2828
 3076W        W20600  10.861   5.952  13.235  0.2541  0.2420  0.3910
 3077W        W20601   4.003   3.836  14.536 -0.1214 -0.0360 -0.3112
 3078W        W20602   7.958   8.463  14.066  0.2788  0.2685 -0.1452
 3079W        W20603  15.208  18.109   1.302 -0.1489  0.2180 -0.3151
 3080W        W20604   9.931  10.671  15.362  0.3804  0.1801  0.2322
 3081W        W20605  13.350   1.665   0.789  0.5312 -0.0432  0.1518
 3082W        W20606   5.418  14.260  14.970 -0.1557  0.0523 -0.0499
 3083W        W20607  11.363   9.570   2.914  0.2827 -0.1493  0.0475
 3084W        W20608  13.444   0.415  14.802  0.0495  0.3185 -0.3256
 3085W        W20609  18.338  18.388   2.673  0.0940 -0.1644  0.0889
 3086W        W20610   2.727   6.638   2.706  0.1613 -0.0526 -0.1520
 3087W        W20611  12.015   3.784  14.986  0.1801  0.2630 -0.1222
 3088W        W20612   4.439   8.204  11.086  0.1257  0.0693 -0.0638
 3089W        W20613   8.763   3.248   4.165 -0.3660  0.0803  0.0168
 3090W        W20614   3.606   8.764  14.056 -0.0436  0.2112 -0.0511
 3091W        W20615   7.245   6.669   3.842 -0.2356 -0.0002 -0.0457
 3092W        W20616  15.601  15.365   4.318 -0.2462 -0.2305  0.0863
 3093W        W20617   5.403   0.124  11.330  0.2354  0.0043  0.1859
 3094W        W20618  12.132   7.418   1.241 -0.2027 -0.2008 -0.0382
 3095W        W20619   5.651   1.923   4.248 -0.1181 -0.0529  0.1098
 3096W        W20620   9.109   6.405   1.757  0.0997  0.0256  0.0138
 3097W        W20621  10.956  18.090   0.127 -0.2891 -0.1775 -0.2076
 3098W        W20622  15.922  11.574  12.289  0.0975  0.0097 -0.0883
 3099W        W20623  15.524  10.195  11.680  0.0127  0.0895 -0.0559
 3100W        W20624   1.625   4.689  12.471 -0.0259  0.0950  0.1826
 3101W        W20625   4.031  11.262  13.059  0.5299 -0.2201 -0.0762
 3102W        W20626   1.717   4.105   2.121 -0.1021 -0.1672 -0.0251
 3103W        W20627   1.252   6.257  13.143  0.4471 -0.1579  0.0724
 3104W        W20628   0.388  14.671  15.127  0.2080 -0.1704  0.3866
 3105W        W20629  17.830   4.906   5.816  0.0203  0.2370 -0.0261
 3106W        W20630  10.452   9.810   1.208 -0.0336  0.1248 -0.1306
 3107W        W20631   0.799  14.040   4.617 -0.0733 -0.0909 -0.0371
 3108W        W20632  17.874   1.551  13.054 -0.0151  0.0681 -0.0603
 3109W        W20633   2.929  18.277  11.877 -0.2983 -0.1037 -0.2737
 3110W        W20634   8.256   8.380  10.332  0.0561 -0.1821  0.0044
 3111W        W20635   6.657  10.823   2.961 -0.0291  0.0737 -0.1478
 3112W        W20636  16.295  12.958   1.111 -0.2794 -0.1632  0.2459
 3113W        W20637  16.156  17.003   2.172 -0.0130 -0.1077  0.0773
 3114W        W20638   0.873  15.072   2.454 -0.0001  0.0909  0.1909
 3115W        W20639  11.918   7.436  14.297 -0.2136  0.0143  0.3350
 3116W        W20640   3.997  11.933   3.288  0.0867 -0.1779  0.2844
 3117W        W20641  14.782   0.699   4.512 -0.0522 -0.2506  0.3491
 3118W        W20642   6.260   8.015  12.925 -0.1845  0.2675  0.0121
 3119W        W20643   8.215  10.544  13.815  0.2462  0.0722  0.1537
 3120W        W20644  16.538   4.765   2.603  0.0755  0.1748 -0.0487
 3121W        W20645   7.007  10.960   1.154  0.0210  0.0786 -0.1822
 3122W        W20646  12.485   5.013   1.694  0.0310  0.2640  0.0826
 3123W        W20647   3.184  11.122  13.684 -0.6021 -0.1285 -0.0829
 3124W        W20648   6.082  12.179  11.496  0.4178 -0.0716 -0.0580
 3125W        W20649   4.949   5.879  13.664  0.0223  0.0274  0.0888
 3126W        W20650  12.514   9.739  11.702  0.2476 -0.1537 -0.2305
 3127W        W20651  12.603   0.002  14.872  0.1449  0.1056  0.3230
 3128W        W20652   8.121  12.333   2.250 -0.3782 -0.0163  0.1433
 3129W        W20653  14.285  17.718  12.587 -0.0033 -0.0564 -0.1200
 3130W        W20654   8.000   1.208  14.744 -0.1509 -0.1283 -0.2855
 3131W        W20655   4.134   1.895  10.630 -0.0767 -0.1529  0.0432
 3132W        W20656  10.242   4.672   5.594  0.1454 -0.0423 -0.3436
 3133W        W20657   4.459   5.243   0.011 -0.0603  0.1321 -0.1356
 3134W        W20658  13.568   1.758   4.553  0.2465 -0.0907  0.0916
 3135W        W20659  10.212  11.089   1.963  0.0777  0.0831 -0.0629
 3136W        W20660  13.514   8.503  14.456 -0.0440  0.1273  0.0100
 3137W        W20661  14.232   7.429   0.523  0.0390 -0.0260  0.4812
 3138W        W20662   8.778  14.232  13.586  0.2385  0.2353 -0.0816
 3139W        W20663   8.719  14.853   3.982  0.1117 -0.0339 -0.0488
 3140W        W20664  16.040   8.141  15.205  0.1706  0.1521 -0.1082
 3141W        W20665   0.987   2.564  14.406  0.2751 -0.1028  0.0328
 3142W        W20666  11.779   7.143  15.097  0.5347  0.0900 -0.0128
 3143W        W20667   4.164  12.228  11.377  0.1236 -0.0945 -0.0013
 3144W        W20668   8.928  16.432   4.461 -0.4861 -0.0756 -0.0331
 3145W        W20669   3.949   8.699  12.530 -0.4470  0.0541  0.1116
 3146W        W20670  12.823   8.865  12.110  0.1228 -0.0360  0.1312
 3147W        W20671  15.341  12.273   1.023 -0.0058 -0.2639 -0.0000
 3148W        W20672   9.073  12.564   1.429 -0.0248 -0.3162  0.0213
 3149W        W20673   6.057   0.635  10.557 -0.1789 -0.1924  0.1533
 3150W        W20674   1.870  14.739   3.223 -0.0977  0.0696  0.2172
 3151W        W20675  15.171  14.289  11.412  0.2308 -0.3414  0.0778
 3152W        W20676   1.543   9.347   3.797 -0.3450  0.0316  0.0225
 3153W        W20677  16.597  16.293   2.711  0.0795  0.2106 -0.0321
 3154W        W20678   3.381  13.582  11.534 -0.1611 -0.0491  0.2551
 3155W        W20679  11.200  11.734   1.705 -0.0526 -0.3425  0.2394
 3156W        W20680   7.725   4.871   0.043 -0.0174  0.1574 -0.3514
 3157W        W20681   1.489  12.085  12.848  0.2611 -0.1009  0.4355
 3158W        W20682  18.183   6.959   2.502 -0.0690  0.0203  0.1651
 3159W        W20683  10.848   0.175   3.556  0.0946  0.0523 -0.3634
 3160W        W20684   3.840  16.226  11.454  0.0102  0.0812 -0.2254
 3161W        W20685   8.350  12.854  12.251  0.1280 -0.2944  0.0162
 3162W        W20686  10.347  10.380  12.719 -0.0819  0.3242  0.0311
 3163W        W20687   1.665   1.385  15.333  0.0020 -0.1049 -0.0319
 3164W        W20688   0.366  11.954   2.457 -0.0688 -0.0964  0.2268
 3165W        W20689   5.840   0.446   0.696 -0.2829 -0.0798  0.1124
 3166W        W20690   6.129   5.524  11.169  0.0955  0.0632 -0.0455
 3167W        W20691   5.186   7.212   1.439 -0.1265 -0.1833 -0.0576
 3168W        W20692  17.101   6.694  13.768  0.1465 -0.0887 -0.1881
 3169W        W20693  18.396   2.906  10.443 -0.1135 -0.2125 -0.0876
 3170W        W20694  11.749   4.001   1.966 -0.3415  0.2367 -0.0810
 3171W        W20695   7.491  15.108  14.751  0.2202  0.1806  0.0520
 3172W        W20696  15.089   7.422   2.916  0.2098 -0.0039  0.0233
 3173W        W20697  10.399   0.886  15.500  0.0877  0.2789 -0.3522
 3174W        W20698  17.471   2.823   2.742 -0.1302  0.2215  0.4152
 3175W        W20699  14.575  15.556   2.620 -0.1093  0.0188  0.1047
 3176W        W20700  11.134  14.079   3.381  0.2525  0.1587 -0.1597
 3177W        W20701   3.519  17.408  12.668  0.4597 -0.0687 -0.0650
 3178W        W20702   9.042   9.662  11.662 -0.4435 -0.0127 -0.3129
 3179W        W20703   9.945   0.595   1.901  0.4903 -0.0734  0.1684
 3180W        W20704  14.935   2.455  14.394 -0.1346 -0.0367  0.3710
 3181W        W20705  12.463   2.159   3.146 -0.0298  0.1784  0.1384
 3182W        W20706  13.395  16.494   2.624  0.0655  0.0262  0.0997
 3183W        W20707   2.695   2.249  11.668  0.0733 -0.0237  0.2028
 3184W        W20708   0.888  11.221  12.522  0.2525  0.2686  0.0400
 3185W        W20709   5.094   0.691   3.567 -0.1500  0.2265  0.2389
 3186W        W20710  12.528   4.427  12.459  0.0011 -0.0857 -0.0815
 3187W        W20711  11.666   2.793  12.452  0.0930 -0.1712  0.3461
 3188W        W20712  13.521  16.829  11.359  0.2695 -0.1851 -0.0783
 3189W        W20713   8.422  10.835   1.282  0.0832  0.3307 -0.1134
 3190W        W20714  13.782  13.752  14.634 -0.1415  0.4823  0.2280
 3191W        W20715   7.785   9.664  13.006  0.1377 -0.1220  0.0066
 3192W        W20716  16.940   6.082   1.323 -0.1806  0.0206 -0.2002
 3193W        W20717  17.366   4.521   0.437  0.3406 -0.0372 -0.0190
 3194W        W20718  16.260   3.727   4.596  0.1690 -0.0541 -0.3450
 3195W        W20719  11.266   8.732  11.219  0.2542  0.2724 -0.1494
 3196W        W20720   1.889  10.292  12.469  0.1953 -0.0415 -0.1183
 3197W        W20721   3.370  12.899   4.484  0.1114  0.1120  0.0022
 3198W        W20722   8.506   7.935   0.701 -0.0487  0.1402  0.3267
 3199W        W20723   5.420  16.950   0.684  0.0809 -0.1337  0.1746
 3200W        W20724   3.068   0.924  15.055  0.1673 -0.0440  0.2658
 3201W        W20725   7.586  10.142  11.295  0.3210 -0.1659 -0.3351
 3202W        W20726  16.844   6.038  11.638  0.0866 -0.0791 -0.1239
 3203W        W20727  11.247   1.110  13.108 -0.0449  0.1692  0.0992
 3204W        W20728  14.303   6.354  14.149 -0.1498 -0.0364  0.0443
 3205W        W20729  13.034   6.047   2.363  0.2343  0.3573  0.0775
 3206W        W20730  16.324   8.522   1.687  0.0526  0.0046 -0.0721
 3207W        W20731  13.041   3.683   1.329 -0.0180  0.2259  0.0403
 3208W        W20732   3.984   1.371   3.145  0.1643 -0.3361  0.0598
 3209W        W20733  14.841   7.103  13.679  0.1499  0.1691  0.1243
 3210W        W20734   1.535   9.720  11.223 -0.0507  0.0236  0.2068
 3211W        W20735  12.213  14.797   1.477  0.1142 -0.0154 -0.1794
 3212W        W20736  10.699  12.286   4.098  0.2439  0.2274  0.1048
 3213W        W20737  16.489   6.856   4.459  0.4278  0.0379  0.0344
 3214W        W20738   8.990   8.390   3.588 -0.2352  0.0375 -0.1194
 3215W        W20739   1.921   7.762   1.559  0.2999 -0.2521 -0.0520
 3216W        W20740  18.153   8.405  15.845 -0.0903  0.1104 -0.1073
 3217W        W20741   9.629   0.397   2.229  0.0191  0.1687  0.0731
 3218W        W20742   4.010  16.886  11.905  0.2636  0.1491 -0.4578
 3219W        W20743   5.115  17.194   3.518 -0.2965  0.1450 -0.2039
 3220W        W20744   2.212   3.882  15.165 -0.0521  0.1395  0.0297
 3221W        W20745   9.508  16.411   3.696 -0.1791  0.3544 -0.2118
 3222W        W20746   3.877   9.935  13.228  0.0144  0.0623  0.0670
 3223W        W20747  17.421  15.652  11.180 -0.0610 -0.3327 -0.1094
 3224W        W20748  11.810   8.078  13.080 -0.1931 -0.0240 -0.0540
 3225W        W20749   8.366  11.964  15.738  0.4077 -0.2449 -0.0632
 3226W        W20750  16.629   3.716  12.026 -0.1683 -0.2295  0.1466
 3227W        W20751   4.197  12.057  12.417  0.1440  0.1112 -0.1143
 3228W        W20752   4.388  14.632   1.338  0.0866  0.1288 -0.1176
 3229W        W20753   3.436  11.189   2.287 -0.0399 -0.1039 -0.0349
 3230W        W20754  10.910  16.162  13.612 -0.3153 -0.2531 -0.1486
 3231W        W20755  11.609   0.224  11.118 -0.4081 -0.0281  0.0230
 3232W        W20756   4.086  12.529   3.093 -0.0890  0.2004  0.0379
 3233W        W20757   6.911   5.968  10.242 -0.0227 -0.0387 -0.2169
 3234W        W20758  17.170  17.537   1.582  0.1450 -0.0927  0.2297
 3235W        W20759  17.948  17.075   2.892  0.1475  0.3636 -0.0995
 3236W        W20760   5.771   5.790   4.222  0.1941 -0.1544  0.2746
 3237W        W20761  17.908  11.625  12.838 -0.0558  0.1849 -0.3125
 3238W        W20762   9.771  11.453  12.799 -0.2190 -0.2372  0.1147
 3239W        W20763  12.529   2.425  12.275  0.0215 -0.2581  0.4179
 3240W        W20764   8.605  14.750  13.297  0.2701 -0.0933 -0.0622
 3241W        W20765  12.779  17.631  11.456  0.0870  0.0396 -0.1723
 3242W        W20766  10.401  13.050  11.929  0.0501 -0.4330  0.4257
 3243W        W20767   6.321   9.582  15.018  0.0071  0.1989  0.2742
 3244W        W20768  12.163   8.237  14.872 -0.1086  0.2595 -0.1078
 3245W        W20769  18.403  16.095   0.243  0.1035  0.0326  0.0958
 3246W        W20770  13.017   9.266   4.694  0.0790 -0.2025 -0.1013
 3247W        W20771   4.546   5.166   1.373 -0.0654 -0.0237  0.0934
 3248W        W20772  17.542   2.514   1.326  0.0500 -0.2604 -0.0646
 3249W        W20773   4.701   2.346  13.192 -0.1852 -0.1526  0.1616
 3250W        W20774  13.140   6.865  13.816  0.1017 -0.0244 -0.0028
 3251W        W20775  14.438   4.354  12.072  0.2934 -0.1701 -0.2541
 3252W        W20776  10.691   2.834  13.205  0.2577 -0.1800 -0.0592
 3253W        W20777  10.034  18.295   1.149 -0.1184 -0.0398 -0.0189
 3254W        W20778   9.138  17.861  14.060  0.0255 -0.1549  0.0207
 3255W        W20779  17.794   1.580   4.724 -0.2275  0.1578 -0.1653
 3256W        W20780  13.101   0.703   1.292  0.1832  0.1824  0.0799
 3257W        W20781   3.623  16.004  14.229 -0.1066 -0.3959  0.2680
 3258W        W20782  12.829   1.220  14.335 -0.0609 -0.2979  0.1327
 3259W        W20783  11.523   2.533  14.154 -0.0781  0.4580  0.0426
 3260W        W20784   1.249   4.134   0.778  0.2921 -0.1806 -0.0210
 3261W        W20785  17.501   8.120   0.912  0.1544  0.1460 -0.3112
 3262W        W20786   5.664   1.097   4.011 -0.0404  0.0256  0.0081
 3263W        W20787  11.740  18.367  12.809 -0.3505  0.0490 -0.0574
 3264W        W20788  14.236  18.195  12.702 -0.0184 -0.1217 -0.0694
 3265W        W20789   1.691   4.650   1.429  0.1855 -0.0056  0.0431
 3266W        W20790   6.370  11.316   0.674  0.0139 -0.2536  0.1866
 3267W        W20791   6.754   8.058  12.535 -0.2055  0.0134  0.0128
 3268W        W20792  12.811   7.278   2.356  0.1003 -0.0246  0.2521
 3269W        W20793  10.590  14.175  12.602  0.0956  0.0904  0.2910
 3270W        W20794   2.851   3.839   0.996  0.2767 -0.0466 -0.1017
 3271W        W20795   1.179   6.101  14.987 -0.1124 -0.0726  0.1157
 3272W        W20796  11.155   0.307   2.645 -0.2468  0.2023 -0.0785
 3273W        W20797   5.923  12.466  15.642 -0.3081 -0.2921 -0.1759
 3274W        W20798  10.470  14.420   3.367  0.1082 -0.0699 -0.2149
 3275W        W20799  18.031  15.329   3.638 -0.1387 -0.1564 -0.1214
 3276W        W20800   7.669   9.476  15.578  0.1738 -0.2096 -0.2194
 3277W        W20801  16.762  14.157   1.669  0.1878  0.0027  0.0756
 3278W        W20802   9.060   9.639  13.105  0.0383  0.1946 -0.2964
 3279W        W20803   0.241  15.190   4.076  0.0186  0.0978 -0.0758
 3280W        W20804   1.601  14.465   4.348  0.1226  0.1800  0.0718
 3281W        W20805   8.310   8.650  11.452  0.0344  0.1590 -0.4764
 3282W        W20806  16.254   6.511  13.184 -0.0930  0.1210 -0.2638
 3283W        W20807   4.543  18.341  14.492  0.3164 -0.1184 -0.2376
 3284W        W20808  18.348  14.361  13.270  0.0176 -0.0375  0.0935
 3285W        W20809  16.286   6.004  15.042  0.3054  0.1229 -0.0161
 3286W        W20810   6.281  10.949   3.372 -0.0420  0.2264  0.1253
 3287W        W20811   0.257  12.247   0.671 -0.2562 -0.0230 -0.0460
 3288W        W20812  12.857   8.153  12.291  0.1632 -0.0873 -0.2585
 3289W        W20813  15.450  10.680   3.286  0.1275  0.1246  0.1912
 3290W        W20814   6.745   2.556  14.292 -0.0754  0.2130 -0.0372
 3291W        W20815   6.091  16.449   0.649 -0.2373 -0.1430 -0.2336
 3292W        W20816  15.017  15.071   1.447 -0.2145 -0.0401 -0.0616
 3293W        W20817  10.725   5.620   3.734 -0.1382  0.1201  0.2262
 3294W        W20818   5.639   7.239   3.203 -0.0017  0.0237  0.0156
 3295W        W20819   3.438   9.449   0.611 -0.2488 -0.1413  0.1656
 3296W        W20820  11.639  11.938   5.195 -0.1363  0.1800  0.0026
 3297W        W20821  13.290  16.466   0.847 -0.1712 -0.0881  0.3347
 3298W        W20822   9.131  18.243   1.486  0.0314  0.0712  0.0944
 3299W        W20823  10.425   5.415  11.394  0.2779  0.0078 -0.1571
 3300W        W20824   9.519   5.855   4.063 -0.1764  0.1086 -0.0238
 3301W        W20825  10.644   3.358   3.810  0.2110 -0.1314 -0.1456
 3302W        W20826   5.529   7.487   0.564  0.0548 -0.2040 -0.0342
 3303W        W20827   8.558  13.132  12.605  0.0096 -0.0614 -0.1219
 3304W        W20828   2.569   7.595  13.651 -0.4632 -0.0121  0.1333
 3305W        W20829   6.448   8.487  11.961 -0.0165 -0.0164  0.0153
 3306W        W20830   1.181  11.921  15.597  0.0047  0.0772 -0.1283
 3307W        W20831  13.346  12.537  10.728  0.0991 -0.1101  0.0170
 3308W        W20832   3.758  16.491   3.082  0.0227  0.2705 -0.1804
 3309W        W20833   4.574   0.974   3.064  0.3188  0.0953  0.1172
 3310W        W20834  12.198  10.983  14.219  0.0204 -0.0797  0.0963
 3311W        W20835  18.165   7.505  12.387  0.1410 -0.2519 -0.4050
 3312W        W20836  11.964   7.801  14.634  0.0515  0.2634  0.0157
 3313W        W20837   2.851  15.684  12.537  0.2935  0.0450  0.0400
 3314W        W20838  15.423  13.756  13.839 -0.1816 -0.1893  0.3760
 3315W        W20839   4.366   7.375   1.170 -0.0245 -0.1762  0.0294
 3316W        W20840  14.762   9.155   2.369 -0.2889  0.0308  0.0658
 3317W        W20841   0.727  16.674  12.926  0.5394  0.1550  0.1982
 3318W        W20842  10.761  10.857  14.562 -0.0484  0.0660  0.1661
 3319W        W20843  11.720   6.895   3.776 -0.4003 -0.0199 -0.2051
 3320W        W20844  11.706  16.819  14.888 -0.0511 -0.2811  0.2991
 3321W        W20845   3.293  10.706  12.807  0.3026 -0.2631  0.1791
 3322W        W20846  13.387   9.357  11.342 -0.1389  0.0861  0.1033
 3323W        W20847   2.361   2.770   3.090 -0.2072  0.2865  0.1603
 3324W        W20848  10.371   0.592   5.236  0.1516 -0.5515  0.1188
 3325W        W20849   7.761   8.142  11.443  0.1094  0.0182 -0.0137
 3326W        W20850   2.064   0.046  10.872  0.1225  0.1273  0.0330
 3327W        W20851   2.650  11.127   4.375 -0.1673 -0.1971 -0.1266
 3328W        W20852   4.367  14.559   0.142 -0.3247  0.0336 -0.1067
 3329W        W20853  13.763  18.071  11.543 -0.1618  0.0964 -0.3188
 3330W        W20854  18.068   8.694   2.088 -0.0552  0.1924  0.2906
 3331W        W20855  15.432  17.054   1.526  0.2195  0.1127  0.1506
 3332W        W20856   2.464  16.397  10.990 -0.5279 -0.1604  0.3146
 3333W        W20857   8.874  11.425  15.178 -0.0092  0.1434 -0.2133
 3334W        W20858  14.597   9.364   1.390 -0.1179  0.1419 -0.0997
 3335W        W20859   9.579  17.313  11.377 -0.0194 -0.2642  0.0737
 3336W        W20860  11.838   2.798  14.990  0.1010  0.1136  0.0593
 3337W        W20861   4.442   5.793   0.780 -0.1461 -0.0673 -0.1668
 3338W        W20862  17.140   9.911  14.551 -0.0260  0.0268  0.0973
 3339W        W20863   6.637   4.055   3.701 -0.2196 -0.0403 -0.0146
 3340W        W20864   0.395  16.507   5.021 -0.0381 -0.3904 -0.1133
 3341W        W20865  11.702   4.716  12.954 -0.4457  0.1894  0.1997
 3342W        W20866   5.187   3.860  12.303  0.0298  0.0242  0.0011
 3343W        W20867  15.635   3.444  12.352 -0.1378 -0.0915  0.0984
 3344W        W20868  15.431   8.721  12.485 -0.0422 -0.4605 -0.2262
 3345W        W20869  13.988   6.260   4.245  0.0356 -0.0710  0.1193
 3346W        W20870   8.367  11.425  15.166  0.2247 -0.0092 -0.0774
 3347W        W20871  18.107   4.595  10.943 -0.0055 -0.1384  0.1934
 3348W        W20872   4.357  12.721   2.730  0.2381  0.1228 -0.1591
 3349W        W20873  13.919   3.433  12.803  0.2668  0.2931  0.1139
 3350W        W20874  12.664  11.390  14.753  0.0413 -0.1109 -0.0492
 3351W        W20875   4.561   1.253  13.041  0.0693  0.1656 -0.1072
 3352W        W20876   3.162   7.391  12.076  0.2295 -0.0551  0.2545
 3353W        W20877   5.177  15.867   4.711  0.2818  0.1792 -0.1186
 3354W        W20878  12.436   2.668  10.247  0.0127 -0.0918  0.1149
 3355W        W20879  18.035  16.919  15.060  0.0055  0.0942  0.2817
 3356W        W20880  11.722   2.488   1.754 -0.0968 -0.1407 -0.0552
 3357W        W20881  13.030   8.590  11.402 -0.0914  0.0623 -0.2261
 3358W        W20882   4.529   9.175  15.729  0.0367  0.0563 -0.0643
 3359W        W20883  11.193   1.012   1.677  0.2113  0.3842 -0.3999
 3360W        W20884   6.811   9.188  10.587  0.0650 -0.1604 -0.2335
 3361W        W20885   5.237   8.848   2.463  0.2350  0.0880  0.0449
 3362W        W20886  18.247  15.343  12.296 -0.1210  0.0007 -0.2666
 3363W        W20887   1.883   5.050  13.749  0.0557 -0.0450  0.0425
 3364W        W20888   8.087   2.302   2.904  0.0005  0.1221 -0.2205
 3365W        W20889   1.033  11.964   3.918  0.1237  0.0811 -0.1657
 3366W        W20890  13.398  10.957   5.298 -0.0290 -0.1608 -0.0847
 3367W        W20891  14.135   5.764   2.531  0.0415 -0.3039 -0.0051
 3368W        W20892  18.045  17.999   0.495 -0.3455  0.0652  0.1225
 3369W        W20893  14.969  12.158   6.171  0.0203 -0.2137  0.3292
 3370W        W20894   3.588   1.145  14.426 -0.0655  0.2716  0.3017
 3371W        W20895   5.984   1.610  13.251  0.1467 -0.0447  0.2276
 3372W        W20896   7.836  17.686  11.788 -0.1374 -0.0672  0.2582
 3373W        W20897   9.395   2.929   2.685  0.0378 -0.2073  0.5251
 3374W        W20898  13.574   5.011  13.577 -0.0991  0.1876  0.1935
 3375W        W20899   3.165   8.560  13.815 -0.0279 -0.0412  0.2981
 3376W        W20900   4.606   6.474  12.249 -0.0590 -0.1325  0.0325
 3377W        W20901   8.825   1.376  14.831 -0.1246 -0.2137 -0.1118
 3378W        W20902   1.752  16.768   0.642 -0.0427  0.1774 -0.1017
 3379W        W20903   4.875   6.959  11.353 -0.1953 -0.0905  0.0102
 3380W        W20904   7.294   5.592   5.328  0.2097  0.2808 -0.0315
 3381W        W20905   8.566   0.045   2.962 -0.1181 -0.0050 -0.0328
 3382W        W20906   0.495   9.347   0.295  0.0164 -0.3394 -0.0137
 3383W        W20907  17.908  17.786  14.399 -0.0904  0.1015  0.2445
 3384W        W20908  12.456   1.070  12.510 -0.0259  0.1598  0.4649
 3385W        W20909  14.468   7.893   1.782  0.0410  0.1087 -0.2551
 3386W        W20910  18.343   7.668   9.877 -0.0888 -0.2461  0.1052
 3387W        W20911  11.060   7.791   4.708  0.1457 -0.0313  0.1952
 3388W        W20912  11.056  15.983  14.806  0.1782 -0.0228 -0.2754
 3389W        W20913   8.933  11.357  13.647  0.0406  0.0783 -0.1260
 3390W        W20914   9.125  11.174   1.355  0.1599 -0.2193  0.0203
 3391W        W20915  13.102  12.951   2.133  0.0465  0.0647  0.3168
 3392W        W20916  17.556   9.210   0.054 -0.0077  0.2055  0.1521
 3393W        W20917  16.353  12.155  12.715  0.0483 -0.0384 -0.2295
 3394W        W20918   0.486  10.802  13.736 -0.1327 -0.1103 -0.1154
 3395W        W20919  13.569   3.309  11.327 -0.2032 -0.0647  0.0489
 3396W        W20920  10.672   4.293   2.258  0.4286  0.0221  0.0420
 3397W        W20921   7.098  10.806  13.338 -0.2650  0.2932  0.0668
 3398W        W20922   8.488  12.232   1.944 -0.1801 -0.1156  0.1247
 3399W        W20923   2.535  10.089  11.355 -0.0231  0.1769  0.1202
 3400W        W20924  16.493   0.436  11.345  0.0484 -0.0940 -0.1343
 3401W        W20925  15.811  10.937  14.312 -0.1366  0.2104 -0.0242
 3402W        W20926  16.307   5.451  14.575  0.2093  0.3327  0.5889
 3403W        W20927  10.342   0.586   1.403 -0.1578  0.0049  0.1289
 3404W        W20928   7.733   8.658   4.211  0.0354 -0.3482 -0.1890
 3405W        W20929   2.651  10.360  14.242 -0.1690 -0.3635  0.1028
 3406W        W20930  16.462   3.288  10.790 -0.0916  0.4056 -0.0376
 3407W        W20931   6.966   9.791   0.244 -0.4099 -0.0635  0.1703
 3408W        W20932   6.275   8.473  14.120 -0.3096 -0.2561  0.2679
 3409W        W20933  13.735  12.124  14.338  0.0007  0.4077 -0.0055
 3410W        W20934  15.417   6.637   2.361  0.1894  0.1271 -0.0734
 3411W        W20935  10.817  10.598   0.416  0.1931  0.1427  0.1498
 3412W        W20936   4.883  11.109  15.592 -0.1874 -0.1821 -0.0568
 3413W        W20937  14.689   5.085   2.681 -0.3253  0.0459 -0.0917
 3414W        W20938   9.566  18.340   0.997  0.0691  0.0251 -0.2058
 3415W        W20939   2.242  10.004  12.710 -0.1896 -0.1339  0.3116
 3416W        W20940   3.921   2.988  11.832 -0.1730 -0.0941 -0.1789
 3417W        W20941   5.862  10.462   1.029  0.1962 -0.0004  0.0814
 3418W        W20942  10.463  14.214   5.075 -0.3507 -0.0877 -0.0189
 3419W        W20943   2.384   0.991  11.207  0.0487  0.2026 -0.0323
 3420W        W20944   2.950   4.308  15.154 -0.3127 -0.1307  0.0152
 3421W        W20945  12.700   6.997   4.739 -0.3852  0.2525  0.2151
 3422W        W20946   0.779   1.278  13.501 -0.1159 -0.0893  0.2597
 3423W        W20947   1.561   3.885  12.890  0.2498 -0.1705  0.1827
 3424W        W20948  10.783   6.646  14.343 -0.3346 -0.0785  0.0898
 3425W        W20949  14.979  14.631   4.469  0.0062  0.2170  0.1584
 3426W        W20950  11.108   7.455   3.042 -0.3549 -0.0242 -0.1830
 3427W        W20951   5.077  17.514   4.267 -0.1745 -0.2008 -0.1621
 3428W        W20952   3.477  10.884  11.867  0.0672  0.1424 -0.0750
 3429W        W20953   6.303  13.253  15.206  0.1155 -0.3025 -0.0380
 3430W        W20954   4.673  12.256  11.320 -0.0611 -0.1252 -0.2393
 3431W        W20955  16.149  17.502  11.934  0.1355 -0.3159  0.1830
 3432W        W20956   1.163  12.979  12.558  0.0508 -0.3020  0.2997
 3433W        W20957   2.070  10.963  14.852  0.2373  0.4045 -0.2243
 3434W        W20958  13.674   7.480  15.478 -0.0474  0.2100 -0.0486
 3435W        W20959   4.613   7.575  12.701  0.0535  0.1130  0.1679
 3436W        W20960   3.085  10.960  11.527  0.2511 -0.3949  0.0505
 3437W        W20961  16.132   8.267   4.258 -0.0493  0.0681  0.1319
 3438W        W20962   3.600   4.332   4.411 -0.4942 -0.0438  0.0110
 3439W        W20963   9.617   4.731   3.338  0.0321  0.3298  0.0925
 3440W        W20964   2.123  16.884  15.728  0.1655  0.0385  0.2271
 3441W        W20965  15.983   8.853   2.911  0.4574  0.5251 -0.0777
 3442W        W20966   4.566   2.868   5.057  0.0632 -0.0129 -0.1203
 3443W        W20967   5.868  11.507   0.352  0.0018 -0.3252  0.1792
 3444W        W20968  16.298  14.590  13.605 -0.2393  0.0348  0.0811
 3445W        W20969  13.811  16.667   4.745 -0.1752  0.0034 -0.0456
 3446W        W20970   4.448  12.663  14.772 -0.1771 -0.0198  0.0928
 3447W        W20971   6.342  12.717  13.554  0.0718 -0.2567 -0.1712
 3448W        W20972  18.009   7.902   0.693 -0.0715  0.0411  0.3921
 3449W        W20973  16.338  17.788  12.424 -0.0414 -0.0196 -0.1463
 3450W        W20974   5.917   1.086  11.734 -0.2334 -0.0316 -0.0472
 3451W        W20975  12.574  14.557   5.213 -0.3528 -0.1060  0.2227
 3452W        W20976   1.622  15.902   1.549 -0.0961  0.0866 -0.0335
 3453W        W20977   6.049   5.734  12.984 -0.0117  0.1541 -0.3920
 3454W        W20978   0.957   9.360  12.702 -0.1128  0.0441  0.1113
 3455W        W20979  10.700   1.465  14.359 -0.4675  0.0738 -0.0922
 3456W        W20980   1.326  16.122   3.884 -0.2415  0.2550  0.1972
 3457W        W20981   2.421  11.722   0.504 -0.1794  0.1687 -0.1780
 3458W        W20982   2.198   7.828   3.067  0.1481 -0.0287  0.3082
 3459W        W20983   6.086  17.434  12.294  0.2530  0.2126 -0.2768
 3460W        W20984   0.537   4.094   3.758  0.4107 -0.0653 -0.2680
 3461W        W20985  14.139  11.754   5.318 -0.0645  0.2123 -0.5213
 3462W        W20986   0.149  11.670   3.470 -0.5964 -0.1522 -0.2039
 3463W        W20987   1.903  16.367   0.845  0.0306 -0.0063  0.1982
 3464W        W20988  15.604   4.572   0.801  0.1460 -0.2451  0.3394
 3465W        W20989  15.149  11.709  14.405 -0.0422 -0.0025  0.2569
 3466W        W20990  12.955   7.774  13.632 -0.1522 -0.1972  0.1160
 3467W        W20991  14.371  11.386  14.232 -0.0684  0.0856 -0.0132
 3468W        W20992  10.902   7.482  14.754  0.0861 -0.0437 -0.2051
 3469W        W20993  13.310  17.833   0.957  0.0090 -0.0667 -0.1942
 3470W        W20994   1.075   9.227   3.603 -0.0411  0.1558 -0.0643
 3471W        W20995  18.037   9.113   5.055 -0.1280  0.2946 -0.0454
 3472W        W20996  16.854  12.331  14.119 -0.0632 -0.0332  0.0629
 3473W        W20997   8.130   9.132   4.273 -0.2237  0.1155 -0.2582
 3474W        W20998  16.169  10.810   3.938 -0.0939  0.4016 -0.1171
 3475W        W20999  17.516   7.555  14.830  0.3606 -0.1834  0.1211
 3476W        W21000   7.972   8.667   0.144 -0.1906  0.0477 -0.0268
 3477W        W21001   3.643  16.561   3.587 -0.3317  0.2203  0.1774
 3478W        W21002  11.143   4.575  15.757 -0.3219  0.1251 -0.1130
 3479W        W21003  12.098  12.725   0.639  0.1506 -0.1451 -0.3014
 3480W        W21004   3.480  15.992   2.313 -0.0608  0.3245 -0.0248
 3481W        W21005  15.204   5.089   3.344  0.1205  0.1686  0.2363
 3482W        W21006   5.218   8.256   2.382 -0.0090  0.0501 -0.0861
 3483W        W21007   0.744   3.132  15.849  0.0190 -0.2579 -0.2153
 3484W        W21008  17.029   5.824   2.973 -0.0472  0.0223  0.2813
 3485W        W21009  15.992   5.888   4.731  0.1957 -0.0385  0.0064
 3486W        W21010  12.177   0.115  14.065  0.2349  0.1103  0.1422
 3487W        W21011  10.560  15.638  14.945 -0.2820 -0.2418  0.0630
 3488W        W21012  13.987   3.502  12.282  0.0098  0.0654  0.0717
 3489W        W21013  16.399  14.267  12.194 -0.0739  0.3143 -0.1590
 3490W        W21014  11.693   1.248   0.192  0.2495 -0.0434 -0.2971
 3491W        W21015   8.675   6.747   1.384  0.1981  0.2112  0.2178
 3492W        W21016   4.627   4.179   4.415  0.2605  0.0226 -0.0570
 3493W        W21017   3.335  15.417  14.295 -0.1842 -0.1803  0.0024
 3494W        W21018   5.114   6.831   1.149  0.0990  0.0033  0.0238
 3495W        W21019   5.724   2.477   2.879  0.0366 -0.0820 -0.1572
 3496W        W21020  10.732   1.636   0.450  0.1179 -0.1090 -0.1762
 3497W        W21021   6.064  10.548   0.320  0.2589 -0.2156 -0.1896
 3498W        W21022  10.370   2.648  12.287 -0.0620 -0.4168 -0.0223
 3499W        W21023  15.535  11.379  14.174 -0.0151 -0.1351  0.2707
 3500W        W21024  13.682  17.427  15.100  0.1864  0.3087 -0.0659
 3501W        W21025  12.248   4.865   2.141 -0.1777 -0.2775  0.2338
 3502W        W21026   4.188   9.793   2.786  0.0928 -0.1301  0.1904
 3503W        W21027  11.661  14.834   0.717 -0.0711 -0.1060 -0.2448
 3504W        W21028  15.640   1.218   2.351  0.0412  0.2129  0.0589
 3505W        W21029  12.688  10.860  12.366 -0.0435 -0.4152  0.3587
 3506W        W21030  13.421   6.995  12.174 -0.1194 -0.0890  0.0618
 3507W        W21031  15.980   0.243   3.283  0.1386  0.0790 -0.1739
 3508W        W21032   1.165   7.010   3.011  0.1405  0.1152  0.0150
 3509W        W21033   2.335  11.967  10.889  0.0288 -0.2090 -0.0317
 3510W        W21034  12.417  11.211  12.687  0.1309 -0.0373  0.2003
 3511W        W21035  13.043   6.324   1.115  0.2855  0.1245  0.5568
 3512W        W21036   8.303   3.529  12.073 -0.0166  0.2513 -0.0069
 3513W        W21037   6.727  16.617  14.888 -0.1624  0.1057 -0.3977
 3514W        W21038   1.380   5.061   2.792  0.0181 -0.1150 -0.0778
 3515W        W21039   5.034   8.093   0.365 -0.0888 -0.0031  0.1477
 3516W        W21040   1.569  10.095   1.863 -0.0553  0.1520  0.1301
 3517W        W21041   1.868  15.476  15.079  0.0408 -0.0168 -0.0768
 3518W        W21042  13.095   6.154   0.127 -0.1149 -0.1331  0.0297
 3519W        W21043  11.304   6.603  14.304  0.0460 -0.3804 -0.2564
 3520W        W21044   9.994  14.903   1.438 -0.0178 -0.3562 -0.1082
 3521W        W21045   6.707  17.777  14.870  0.0411  0.3150  0.3077
 3522W        W21046  10.623  14.378   0.921  0.1201  0.2579 -0.0755
 3523W        W21047   3.221   6.085   3.591  0.0989 -0.3025 -0.0638
 3524W        W21048  14.190   6.715  11.973 -0.2303 -0.0721  0.1477
 3525W        W21049  10.319   9.853   5.275 -0.2242  0.1240  0.1971
 3526W        W21050  10.642  10.722   1.440  0.0896 -0.1101 -0.2004
 3527W        W21051   6.301  13.082   3.797 -0.1500 -0.1841 -0.1857
 3528W        W21052   6.180  12.464   3.192 -0.0599  0.3891 -0.1549
 3529W        W21053   9.157   0.513  15.122 -0.1691 -0.0169  0.0712
 3530W        W21054   2.574  10.672   2.472 -0.0708 -0.1863  0.1076
 3531W        W21055  15.895   5.985  11.460 -0.1226 -0.3623  0.1145
 3532W        W21056  15.204   3.639   3.118 -0.4460 -0.0417  0.5007
 3533W        W21057   8.678  12.476  15.456  0.0638  0.3353 -0.1953
 3534W        W21058   1.812   0.305   0.140  0.3448  0.2212 -0.2636
 3535W        W21059   3.582  15.372  13.845 -0.0693 -0.2379 -0.0949
 3536W        W21060   9.679  10.118   3.578 -0.0075  0.2304  0.0003
 3537W        W21061  17.914   3.760   1.704  0.1011  0.0083  0.0805
 3538W        W21062  15.797   9.825  12.786  0.4600 -0.1234 -0.0835
 3539W        W21063  14.684  15.814  14.322 -0.2818 -0.1219 -0.0697
 3540W        W21064  17.553  12.611   3.083  0.0310 -0.1023  0.1699
 3541W        W21065  15.459   2.874  12.333 -0.2989  0.0967 -0.3421
 3542W        W21066   4.159  11.470   3.882  0.0454 -0.1724 -0.2037
 3543W        W21067   7.406  16.152  14.809 -0.0428 -0.0226  0.0856
 3544W        W21068   0.912   4.365  15.260 -0.2154  0.2343  0.1559
 3545W        W21069   1.856   0.863  10.886 -0.0342 -0.1090 -0.1867
 3546W        W21070  13.072  12.540   4.429  0.1500  0.0813  0.0269
 3547W        W21071   1.752  13.305   1.686 -0.2549 -0.3356  0.2840
 3548W        W21072  10.809  10.309   5.723 -0.0678 -0.2402  0.1147
 3549W        W21073   7.880   0.790  10.997  0.3976  0.0512 -0.2123
 3550W        W21074  15.362   7.284  14.941  0.0104  0.0636 -0.0374
 3551W        W21075  16.076   0.114  14.038 -0.2814 -0.0386  0.1011
 3552W        W21076  15.740   5.229   4.628 -0.1832 -0.1857 -0.3379
 3553W        W21077   7.682  10.370   0.680  0.0992  0.0740  0.0199
 3554W        W21078  10.514  12.145   6.028 -0.0496 -0.0415  0.2389
 3555W        W21079  12.149  16.830  11.740 -0.0325  0.1446  0.0543
 3556W        W21080  17.815   4.287  12.285  0.0513 -0.0336  0.3746
 3557W        W21081  14.389  12.945   5.066  0.2143  0.1022 -0.0108
 3558W        W21082   3.354   3.711   9.953 -0.0349 -0.0480 -0.0847
 3559W        W21083  12.803   5.195  15.721  0.0168 -0.0610 -0.2129
 3560W        W21084   4.753   2.702   5.850  0.2466  0.1581  0.0104
 3561W        W21085  11.351   2.361  12.563 -0.0569 -0.2245 -0.0647
 3562W        W21086  16.389   8.582   0.047  0.5405 -0.1668 -0.1688
 3563W        W21087  15.568  13.674   4.107  0.2425 -0.1242 -0.0100
 3564W        W21088   4.079  14.686   5.436 -0.2240 -0.3121  0.0102
 3565W        W21089   1.226  11.165   3.479  0.2026 -0.3101  0.2697
 3566W        W21090  13.989  13.830  13.611 -0.0668  0.1018  0.3584
 3567W        W21091  13.811  11.198  15.042 -0.3058 -0.1386 -0.0602
 3568W        W21092  17.041   9.465   5.893 -0.0877  0.2694  0.1241
 3569W        W21093   4.558  18.023   4.252 -0.2683 -0.1904 -0.1293
 3570W        W21094  12.533   8.855  11.178 -0.1012  0.0278 -0.1392
 3571W        W21095   2.351   2.564   0.638  0.2375 -0.1746  0.3032
 3572W        W21096  18.380  10.637   2.186  0.0699 -0.1878  0.2666
 3573W        W21097   4.540  15.018  11.873 -0.3191  0.0477  0.0157
 3574W        W21098  15.011  17.658  13.873  0.0968  0.1768 -0.1472
 3575W        W21099   2.744  11.798  11.164  0.2386 -0.2475 -0.0052
 3576W        W21100  14.841   5.071   1.672 -0.1445 -0.3318 -0.0346
 3577W        W21101   2.794  12.081   1.360  0.4439 -0.1605  0.1873
 3578W        W21102  11.384   0.603  12.232  0.1236  0.1117  0.0610
 3579W        W21103   3.295   6.382   1.714  0.1243 -0.1611 -0.2458
 3580W        W21104  12.320   3.548   4.691  0.0394 -0.0696 -0.0165
 3581W        W21105   9.539   4.850   3.982  0.0816  0.0302 -0.0208
 3582W        W21106   8.421   0.301   0.911 -0.2972 -0.0144  0.1148
 3583W        W21107   7.091   8.328  15.132 -0.7415  0.1851 -0.3518
 3584W        W21108  11.988  17.789   0.447 -0.0534  0.1837  0.2122
 3585W        W21109   7.437   2.600  13.831  0.1853  0.1967  0.0883
 3586W        W21110   7.982   6.360  15.784 -0.0209 -0.0867 -0.1025
 3587W        W21111   0.299  13.353   3.499 -0.0397  0.0752 -0.0395
 3588W        W21112  17.977  18.153   3.602  0.2116 -0.2922 -0.2557
 3589W        W21113   4.859   4.404   3.187 -0.1905  0.1632 -0.2596
 3590W        W21114  15.606  17.468  15.629 -0.3006 -0.0475  0.2378
 3591W        W21115  15.154  12.035   2.684  0.0436  0.0246 -0.2022
 3592W        W21116   9.870  14.876   0.939  0.3318  0.1713  0.0127
 3593W        W21117  12.694   1.713   4.697 -0.1418  0.0957  0.1093
 3594W        W21118   2.866  17.538   3.691  0.1389  0.0318  0.1501
 3595W        W21119   4.459  11.312   4.800  0.4162 -0.0153 -0.2663
 3596W        W21120   2.291   5.306  14.526  0.0486  0.0284 -0.3257
 3597W        W21121   4.407   0.025   1.488 -0.0111  0.2354  0.1020
 3598W        W21122   5.985   2.443  14.540  0.0386  0.0657  0.3276
 3599W        W21123   8.229  15.460  15.040  0.2592  0.0132  0.1675
 3600W        W21124  13.319   7.336   1.404 -0.2200  0.0320 -0.0097
 3601W        W21125   0.575  12.054  15.220 -0.1114  0.1021 -0.2523
 3602W        W21126   0.680  13.921  12.171  0.1635  0.0069  0.1263
 3603W        W21127   0.266   8.432  12.839  0.1494  0.1796 -0.0880
 3604W        W21128  15.935   4.141   3.604  0.1714  0.0437  0.1133
 3605W        W21129   7.734  10.119   3.642 -0.1301 -0.1247  0.2086
 3606W        W21130   4.726   0.893  13.897  0.1965  0.0404 -0.0215
 3607W        W21131   4.778  12.515   0.617  0.2136 -0.0597  0.1480
 3608W        W21132  16.314   8.802  13.073  0.2229 -0.1586  0.1449
 3609W        W21133   9.558   9.911  12.975 -0.1621 -0.0067 -0.0100
 3610W        W21134   0.716   4.622  10.569 -0.5126 -0.0228  0.2005
 3611W        W21135  15.440  16.994   0.284 -0.0160 -0.0373 -0.2221
 3612W        W21136  10.745  13.360  14.217 -0.3056 -0.0753  0.0802
 3613W        W21137   7.927   8.404   1.004  0.1435  0.0119 -0.0827
 3614W        W21138  15.068  11.954   3.704 -0.0056 -0.2010 -0.2833
 3615W        W21139  11.670  15.369   0.368  0.0244 -0.4174 -0.1388
 3616W        W21140  15.117  15.487  15.148 -0.2415  0.3019 -0.1500
 3617W        W21141   7.021   2.613   3.796  0.1275  0.2229  0.2155
 3618W        W21142   2.276   9.191   2.490 -0.0105  0.1327  0.0947
 3619W        W21143  14.825  15.626   0.701  0.0181 -0.2931 -0.1703
 3620W        W21144  14.006   5.595   0.608 -0.1313  0.0819 -0.1344
 3621W        W21145  12.083  11.406   4.218  0.2465  0.4212  0.1041
 3622W        W21146  10.974  15.434   3.669  0.1364  0.3033 -0.3438
 3623W        W21147   8.562   2.402   2.626  0.1847  0.0181  0.1338
 3624W        W21148   5.849   7.019  12.364 -0.0524 -0.0630  0.1883
 3625W        W21149  15.510   4.510  14.098 -0.0446 -0.2804  0.2362
 3626W        W21150   6.724  13.712  13.142 -0.0391  0.0935  0.1088
 3627W        W21151   8.972   5.614   4.303 -0.1278 -0.2716  0.0564
 3628W        W21152  16.563   1.936  13.928  0.2184  0.1276 -0.2390
 3629W        W21153   5.889  10.357   3.985 -0.1090  0.0491  0.4785
 3630W        W21154   0.731   7.710  12.001  0.1117 -0.2782  0.0574
 3631W        W21155   7.097   4.031   5.516  0.0939  0.0284 -0.2103
 3632W        W21156  10.428   3.412   2.745 -0.1029 -0.0011  0.0165
 3633W        W21157  14.939   9.226  10.453  0.0882  0.5105 -0.2329
 3634W        W21158  11.772   8.591   2.677  0.0745 -0.0409 -0.1545
 3635W        W21159   7.178  16.054  13.483  0.2837 -0.0301 -0.2735
 3636W        W21160  10.650   0.820  11.753 -0.0860 -0.0665  0.1419
 3637W        W21161  17.372  11.571   2.086 -0.3186 -0.3944 -0.2356
 3638W        W21162   6.179   6.400  14.317 -0.0312  0.0785  0.2693
 3639W        W21163  15.818  16.280  14.048 -0.3233 -0.1341 -0.0525
 3640W        W21164   9.779  16.596  14.212 -0.2656 -0.0206 -0.0372
 3641W        W21165  12.578   4.946   3.970 -0.1533  0.1280  0.0918
 3642W        W21166  13.930   3.316  15.660  0.1574  0.1935  0.1116
 3643W        W21167  11.471   1.449   2.467 -0.1404  0.2563  0.2455
 3644W        W21168  15.620  13.742   4.660  0.2934  0.1188  0.1094
 3645W        W21169   1.011  15.452  13.710 -0.0387  0.2263 -0.2783
 3646W        W21170  18.387  15.131   1.566 -0.4223 -0.0313 -0.1917
 3647W        W21171   4.896   3.295  15.139  0.3354 -0.2627  0.1934
 3648W        W21172   2.568  14.394  12.968  0.0498  0.1942 -0.2077
 3649W        W21173   8.717   4.373   4.510 -0.2449 -0.1534 -0.1014
 3650W        W21174   8.862   2.596  13.448 -0.1257 -0.3038  0.1448
 3651W        W21175  16.955  17.084  14.005  0.0178 -0.2271 -0.1241
 3652W        W21176   6.427  10.722  13.949  0.0991  0.3448 -0.0551
 3653W        W21177  17.573  10.603  12.300  0.5120  0.3560  0.0387
 3654W        W21178   0.130  18.236   4.497 -0.1563  0.1597  0.0646
 3655W        W21179  15.925   0.151   0.259  0.1202  0.0621 -0.1323
 3656W        W21180   4.716   2.302  15.100 -0.1669  0.2005 -0.2299
 3657W        W21181  11.703   7.822   1.960  0.0364 -0.1217  0.0569
 3658W        W21182   3.312  14.266  15.810 -0.0592 -0.1147  0.0881
 3659W        W21183   8.513   7.858   2.651 -0.0007 -0.0716  0.2466
 3660W        W21184   7.147   8.283   1.473 -0.1577 -0.2066  0.0447
 3661W        W21185   1.075  16.426   2.230 -0.4607  0.2773 -0.0479
 3662W        W21186   4.292   7.628  13.299 -0.0945  0.0678 -0.1722
 3663W        W21187   6.323   3.516   2.351 -0.0777  0.0610  0.2072
 3664W        W21188  10.141  14.217   9.927  0.0909  0.2683 -0.0982
 3665W        W21189   1.817   2.256   1.559  0.0370  0.0355  0.6360
 3666W        W21190   3.806  13.975   3.032  0.0059  0.2218 -0.0739
 3667W        W21191   4.635  17.072  11.533 -0.1695 -0.0637  0.1725
 3668W        W21192  15.977  16.839   4.059 -0.1773 -0.0708 -0.3480
 3669W        W21193   8.763   5.814   1.143  0.0354 -0.0823 -0.2544
 3670W        W21194  18.084  13.283  14.239 -0.1087  0.3478 -0.6253
 3671W        W21195   7.796   5.623   1.078 -0.0466  0.2288 -0.1096
 3672W        W21196   8.387   1.173   4.758 -0.0098 -0.0134  0.1376
 3673W        W21197  13.738   0.448  11.334  0.0190 -0.2823 -0.2539
 3674W        W21198   3.913  18.134  12.896  0.2219  0.0516  0.0731
 3675W        W21199   8.509   2.868   2.103  0.0508  0.2599 -0.0118
 3676W        W21200   2.659   8.380   1.819  0.1892  0.0042  0.0542
 3677W        W21201   0.654   2.399   2.956 -0.0877  0.1013 -0.1817
 3678W        W21202  12.446  16.372  13.379  0.0037 -0.0446  0.2042
 3679W        W21203  12.856   2.298   3.892 -0.1279 -0.1281 -0.1060
 3680W        W21204  17.725   8.836  11.509  0.0734  0.1036 -0.1069
 3681W        W21205  13.337  11.468  14.972  0.0874 -0.1423 -0.0710
 3682W        W21206  10.748   3.384   5.215  0.0389  0.0419  0.1407
 3683W        W21207  15.754   9.922   4.822 -0.0852 -0.0680 -0.3185
 3684W        W21208   5.228   8.182   1.796 -0.2809 -0.0453 -0.1686
 3685W        W21209   7.626   1.083   2.904  0.1118 -0.2432  0.1227
 3686W        W21210   1.486   2.596  13.344  0.2464 -0.2149  0.0116
 3687W        W21211  17.419   7.884   1.363  0.2391 -0.0492 -0.1329
 3688W        W21212   3.188  11.199   4.437  0.3776 -0.1556 -0.2956
 3689W        W21213   7.975  12.408   4.640  0.0679 -0.2348  0.1051
 3690W        W21214   2.107  10.600   0.337 -0.2157 -0.2496 -0.2198
 3691W        W21215  12.202   3.895   4.314 -0.1451 -0.0729 -0.1978
 3692W        W21216  14.926   2.099   0.542  0.1365 -0.0004  0.1112
 3693W        W21217   8.947  10.868  15.380 -0.1924  0.0284  0.1338
 3694W        W21218  10.196   6.788   1.021  0.0092  0.1062 -0.0598
 3695W        W21219   0.866  11.142   4.583 -0.1978 -0.1875  0.0542
 3696W        W21220  12.114  12.338  13.911 -0.0639 -0.3781  0.2911
 3697W        W21221  15.563  13.112  14.242  0.0026 -0.0840  0.1191
 3698W        W21222  15.283   6.289   1.431 -0.0133 -0.0303 -0.3175
 3699W        W21223  17.062   9.622   1.909  0.0888 -0.1308 -0.1451
 3700W        W21224   0.215   6.094  13.159 -0.1312 -0.2498  0.1092
 3701W        W21225  11.000   0.728  13.314 -0.2570 -0.0865  0.1255
 3702W        W21226   2.919  17.985   2.691 -0.1203  0.1782  0.1737
 3703W        W21227   2.002   8.672   2.571 -0.3237 -0.0609 -0.1012
 3704W        W21228   6.166  15.255  15.650 -0.1962 -0.1724  0.3453
 3705W        W21229   9.649  15.118  12.864  0.2390  0.0490  0.1960
 3706W        W21230  10.878  14.274  15.257  0.0002 -0.0167 -0.1462
 3707W        W21231   6.012  14.644   0.551 -0.1099 -0.0435  0.1009
 3708W        W21232   3.079  10.194   3.605 -0.0154  0.0499  0.3319
 3709W        W21233  13.945  11.482  11.994 -0.0164 -0.1066 -0.3636
 3710W        W21234  17.588  11.784   4.265  0.0176  0.0772  0.1071
 3711W        W21235  16.026   1.091   3.578  0.0605  0.0140  0.1109
 3712W        W21236   3.976  16.551   4.532  0.0899  0.1003 -0.0228
 3713W        W21237   1.941   5.132  12.764 -0.1197 -0.0318  0.3938
 3714W        W21238  10.586   1.378  15.085  0.2935  0.1493 -0.2392
 3715W        W21239  12.759   1.179   2.754  0.0099  0.1772 -0.0510
 3716W        W21240  10.232   5.201   0.381  0.2941  0.3069  0.3073
 3717W        W21241   5.988   4.756  13.819  0.0864 -0.1433  0.0470
 3718W        W21242   4.908   5.692  12.808  0.0493 -0.2066 -0.2449
 3719W        W21243  14.073   8.166  15.253 -0.1061  0.1109  0.2089
 3720W        W21244  15.556   8.240   5.103  0.0127 -0.6326  0.3253
 3721W        W21245  11.088  15.162   2.619  0.0409  0.2087  0.0276
 3722W        W21246   8.255   1.756   0.711 -0.0212 -0.1548  0.0881
 3723W        W21247   6.687   7.774   3.935 -0.2060  0.3316  0.0328
 3724W        W21248   9.679  15.189  15.098 -0.2532  0.1779 -0.0745
 3725W        W21249  13.333   3.400   4.245 -0.1511  0.0893  0.2206
 3726W        W21250  10.761  10.425   4.335  0.1213  0.3943  0.1578
 3727W        W21251   8.732   4.764  13.534 -0.1441  0.0493  0.0110
 3728W        W21252   4.700   2.916  11.660 -0.1670 -0.0052  0.1565
 3729W        W21253  11.991   7.984  13.579 -0.0517  0.2404 -0.3193
 3730W        W21254   4.891  17.871  15.716  0.2475 -0.3591 -0.1545
 3731W        W21255  15.405  10.753  12.516 -0.0566 -0.0246  0.0905
 3732W        W21256  16.717   7.311  12.050 -0.1739 -0.0346 -0.1023
 3733W        W21257   0.910   1.095  13.015  0.0678 -0.1575  0.1917
 3734W        W21258  15.294  10.964   2.206 -0.2472 -0.1355  0.0516
 3735W        W21259  11.400  11.659  11.330  0.2983 -0.1058  0.0541
 3736W        W21260  14.518  17.036   0.914  0.0077 -0.1477 -0.0159
 3737W        W21261  17.083  17.173  11.151  0.0106  0.4087 -0.2099
 3738W        W21262  17.926  10.425   3.183 -0.2880  0.1100 -0.2275
 3739W        W21263   5.999  13.546  13.678  0.2447  0.2934 -0.1827
 3740W        W21264   6.353   3.173   2.739  0.1353 -0.2171 -0.3692
 3741W        W21265  10.937   4.608   2.792  0.2541  0.1195  0.0407
 3742W        W21266  15.122   3.646  13.659 -0.0048 -0.3254  0.3007
 3743W        W21267   7.065  16.184  11.694  0.2597  0.0256  0.0082
 3744W        W21268   5.256  15.611   0.114  0.1806  0.1942 -0.0851
 3745W        W21269   9.724  16.366   1.479 -0.1331 -0.0138 -0.0991
 3746W        W21270   6.294   9.269  15.769 -0.1956  0.1590  0.0468
 3747W        W21271   6.650   4.280   1.876 -0.0128 -0.1353 -0.0768
 3748W        W21272   9.372  11.406   4.152  0.0347  0.0638 -0.1851
 3749W        W21273  17.740   1.299  13.898 -0.0610  0.0875  0.1432
 3750W        W21274   9.071   3.416   0.568 -0.2066 -0.0339  0.0591
 3751W        W21275  11.457   0.057   4.031  0.2501 -0.0197 -0.3839
 3752W        W21276  17.944  12.484   2.844 -0.1464  0.2631  0.0153
 3753W        W21277   4.950  18.125   4.536 -0.0507 -0.1094  0.1506
 3754W        W21278   1.222  16.660  12.540  0.0070 -0.1171 -0.1200
 3755W        W21279   3.244  15.211  12.093  0.2584  0.1726 -0.0904
 3756W        W21280   7.810  16.938   1.470 -0.2749  0.2026 -0.1096
 3757W        W21281  16.853  13.129   3.715 -0.3037 -0.1640 -0.1021
 3758W        W21282  13.086   1.739  12.904 -0.0791 -0.0884  0.0245
 3759W        W21283  18.184  11.989   1.672  0.2641  0.1351  0.1208
 3760W        W21284   4.183  12.126   2.767 -0.1219 -0.1704 -0.2308
 3761W        W21285  16.222  10.790  15.010  0.3072  0.1633  0.2308
 3762W        W21286  14.753  13.071   3.616 -0.1385 -0.2318  0.0968
 3763W        W21287   2.541  15.977  13.264  0.0604  0.0215  0.1319
 3764W        W21288   1.613  12.974   4.729  0.0024  0.2082  0.1890
 3765W        W21289  11.250   9.671   4.979 -0.0979 -0.3274  0.1944
 3766W        W21290  17.622   3.283   2.941 -0.0329 -0.6248 -0.1406
 3767W        W21291   8.747   6.267   2.850 -0.1487 -0.0990 -0.0906
 3768W        W21292  10.268   1.006   3.342  0.1573 -0.1490  0.0263
 3769W        W21293   3.069   3.662  12.727 -0.1878  0.0708  0.2946
 3770W        W21294  18.246   7.421  14.430  0.2582 -0.0624 -0.1834
 3771W        W21295   4.107  12.071   4.613 -0.0367  0.2647  0.0046
 3772W        W21296   9.066   1.517   3.436 -0.1857  0.2112  0.2398
 3773W        W21297   9.474  15.111  14.658 -0.1243 -0.1962 -0.0135
 3774W        W21298   4.050   8.612   4.637 -0.0236  0.1490 -0.0239
 3775W        W21299  16.957  11.514   1.261 -0.1294  0.1335  0.0647
 3776W        W21300   2.327   3.242  15.677 -0.1220 -0.0739  0.1198
 3777W        W21301  13.332   6.168   2.695  0.0064 -0.2060 -0.0900
 3778W        W21302  14.099   6.880   2.689 -0.2510  0.2195  0.1026
 3779W        W21303   1.266  12.585   0.326 -0.1427  0.0065  0.1335
 3780W        W21304  15.065  10.563  14.809  0.0148 -0.1608  0.1659
 3781W        W21305   9.183   8.915  12.072  0.3215 -0.3118 -0.2504
 3782W        W21306   2.291  15.548  12.294  0.0429  0.0260 -0.0147
 3783W        W21307   1.531  12.060   0.743 -0.0517  0.2977 -0.0750
 3784W        W21308   6.720  18.047  12.318  0.1165 -0.2483 -0.0476
 3785W        W21309   1.526  13.777  10.610  0.2243  0.2267  0.0542
 3786W        W21310   3.019  15.927   3.751  0.1005  0.0480 -0.1428
 3787W        W21311   8.527   1.070   0.230 -0.1271 -0.1846  0.0796
 3788W        W21312  13.300  13.846   2.113 -0.0260 -0.4122  0.0204
 3789W        W21313  10.974   9.446   2.205 -0.2131  0.1456 -0.2739
 3790W        W21314  12.212   5.491  13.920  0.1094 -0.1746 -0.0753
 3791W        W21315  15.662  15.316   0.708  0.0523 -0.1469  0.0333
 3792W        W21316   0.819  15.240  14.270 -0.0438 -0.2593  0.0032
 3793W        W21317   7.765   4.794   1.273  0.1689  0.6309  0.0122
 3794W        W21318  18.001  17.280   4.876  0.1702  0.0787  0.0187
 3795W        W21319  12.659  18.184  13.263 -0.2537  0.1434 -0.3578
 3796W        W21320   9.731  17.161  12.381  0.2982  0.3400 -0.2077
 3797W        W21321   9.190  10.724  15.831  0.1606 -0.2215  0.1578
 3798W        W21322   3.667  15.445   1.482 -0.0810 -0.1941 -0.4205
 3799W        W21323  15.129  16.257   2.872  0.2016  0.0035 -0.3219
 3800W        W21324  17.828   0.666   0.374 -0.1910 -0.2944  0.1338
 3801W        W21325   1.390   4.603   9.820 -0.0974 -0.0203 -0.1684
 3802W        W21326   5.083  16.477   3.796 -0.0079  0.3022  0.1384
 3803W        W21327   4.508  12.929  13.030 -0.1168 -0.1650 -0.1364
 3804W        W21328   5.901   0.730   3.375  0.1898  0.1098  0.2125
 3805W        W21329   2.522  13.585  14.300 -0.1007 -0.3209  0.1089
 3806W        W21330   3.782   3.236   2.722 -0.3254 -0.0008  0.1889
 3807W        W21331   2.470   1.000   0.444 -0.1539  0.0462 -0.0869
 3808W        W21332  16.825  10.943  11.064 -0.0147  0.3470  0.2470
 3809W        W21333  17.100  12.310   1.474 -0.0838  0.3893  0.4025
 3810W        W21334   3.945   6.827   2.806 -0.2950 -0.4571  0.1133
 3811W        W21335  11.966   0.999   0.782  0.1370  0.3158 -0.2561
 3812W        W21336  12.382  17.139   2.667 -0.0972  0.4029  0.0240
 3813W        W21337   0.791  13.845  14.934  0.0387 -0.3132  0.1436
 3814W        W21338  13.470   5.088   4.964  0.1695  0.0634 -0.1322
 3815W        W21339   4.526  15.912  11.742  0.2812 -0.0154  0.0496
 3816W        W21340  15.156   8.400  13.550  0.2416 -0.0729  0.0281
 3817W        W21341  11.922  17.497   4.945  0.2737 -0.1539 -0.1644
 3818W        W21342  16.476  18.343  12.323 -0.2076  0.1186  0.0129
 3819W        W21343  11.233  16.936   0.908  0.0546  0.3303  0.1301
 3820W        W21344  10.771  15.670  12.119  0.3476  0.0865  0.0351
 3821W        W21345   2.336   0.704   2.816 -0.0761  0.1763  0.1631
 3822W        W21346   5.421  14.325  15.464  0.2336  0.2214 -0.1221
 3823W        W21347  14.254  17.410  15.266 -0.0772  0.1474  0.0735
 3824W        W21348  16.714   3.635   4.431 -0.0093 -0.1402  0.2808
 3825W        W21349   1.601   9.768  15.673 -0.1258  0.0019 -0.0158
 3826W        W21350  16.631  15.669   4.821 -0.3900  0.0528  0.0553
 3827W        W21351   0.277   9.814  12.057 -0.2175  0.2325 -0.1168
 3828W        W21352  14.121  14.238   4.349  0.1874  0.2011 -0.3228
 3829W        W21353  14.416   2.528  12.829 -0.0308 -0.2781 -0.1708
 3830W        W21354  11.849  13.088   3.764 -0.2860 -0.1534  0.2294
 3831W        W21355  17.420   2.635   0.831 -0.1277  0.0013  0.0459
 3832W        W21356   5.396  18.301   1.410  0.1665  0.2499 -0.1978
 3833W        W21357  11.350   9.060  13.285  0.1049  0.1833  0.0906
 3834W        W21358   6.461   3.070   0.727 -0.2165 -0.2091 -0.4711
 3835W        W21359   0.425  14.142   0.762  0.2724 -0.0759 -0.1178
 3836W        W21360   5.972  17.062   4.151  0.2741 -0.1144  0.1889
 3837W        W21361  16.943   1.391  13.336 -0.2575 -0.0972 -0.0322
 3838W        W21362   1.265  14.664   5.704 -0.4404  0.0244 -0.2446
 3839W        W21363   7.061   5.193  14.366  0.2394 -0.0034  0.1022
 3840W        W21364  16.236  11.181  12.150 -0.0013 -0.4258  0.0073
 3841W        W21365   9.902   3.878  15.002  0.3791 -0.0912 -0.1025
 3842W        W21366   3.908  14.269  13.305 -0.0355 -0.0518 -0.0825
 3843W        W21367  17.355  12.948  13.385 -0.0889  0.0815  0.1681
 3844W        W21368   6.626  15.175  15.328  0.0385 -0.1991  0.1050
 3845W        W21369   5.896  15.320   4.754  0.3405  0.0181  0.2752
 3846W        W21370   5.214  16.361   1.221 -0.0098  0.1144  0.1859
 3847W        W21371   9.651  15.870  11.139  0.0882  0.2271 -0.2950
 3848W        W21372  11.764  10.839  13.349 -0.0148 -0.0851  0.1234
 3849W        W21373   2.729   8.981   2.736  0.0351  0.2862 -0.2000
 3850W        W21374   5.460   1.387  13.580  0.0065 -0.0467  0.0396
 3851W        W21375  14.990   1.595  13.286 -0.1588 -0.0576  0.0182
 3852W        W21376   7.749   2.617  11.302 -0.1297  0.2945  0.1528
 3853W        W21377   7.237   7.803  11.860  0.3122 -0.3081  0.0110
 3854W        W21378  10.357   6.418  11.184 -0.2112  0.0810  0.1220
 3855W        W21379   7.824   2.588  12.454 -0.0144 -0.1851  0.0681
 3856W        W21380   7.216  15.351  15.108  0.3537  0.1814 -0.0356
 3857W        W21381  14.641  18.040   0.506  0.0717  0.1111  0.2499
 3858W        W21382  16.194  17.573  12.907  0.0318 -0.0351  0.2333
 3859W        W21383   3.365   5.496   0.569 -0.0345 -0.3316 -0.2250
 3860W        W21384  16.208   3.405  12.212 -0.0656 -0.1597  0.3138
 3861W        W21385   1.814  17.800   3.942 -0.0649 -0.0532  0.0884
 3862W        W21386   8.292   6.999  13.022  0.1081  0.3693 -0.1724
 3863W        W21387   9.272  12.275  11.896  0.1827 -0.0627  0.0444
 3864W        W21388   2.314   3.463   3.837  0.1141 -0.1691  0.1030
 3865W        W21389  15.118  12.272  12.418  0.2497 -0.0003 -0.2242
 3866W        W21390  10.417   5.322   2.532 -0.0242 -0.0645  0.1669
 3867W        W21391   6.411   0.050  11.451  0.1202 -0.0565 -0.0808
 3868W        W21392   3.130   5.225  12.697 -0.0378  0.0083  0.5383
 3869W        W21393  15.556   2.786   0.814 -0.1495  0.0712  0.0195
 3870W        W21394  10.854   1.398  13.355  0.0010  0.0916 -0.1639
 3871W        W21395   2.831   7.593   1.105 -0.1164  0.1304  0.2224
 3872W        W21396   0.413   3.633  11.668  0.1145 -0.2318 -0.1853
 3873W        W21397  12.559  15.853   2.262 -0.1381 -0.1098  0.0421
 3874W        W21398  15.341   9.568   1.800 -0.1438  0.0453  0.3451
 3875W        W21399   5.661   3.367  11.655 -0.2534  0.1734 -0.0036
 3876W        W21400  10.674  11.420  14.719 -0.0052 -0.1445 -0.1279
 3877W        W21401  12.394  12.348   0.629 -0.0299  0.1835 -0.1920
 3878W        W21402  13.212   8.461  13.441 -0.1925  0.1339  0.0396
 3879W        W21403   1.455   1.578   0.681 -0.1372  0.1179  0.0322
 3880W        W21404  18.311   7.598  13.281  0.1691 -0.2576  0.2935
 3881W        W21405   8.238  17.170  11.054  0.3071 -0.0831 -0.3055
 3882W        W21406   9.625   6.916  14.400 -0.0420 -0.1368 -0.0708
 3883W        W21407   4.891   0.807   0.852  0.2572 -0.3582  0.1705
 3884W        W21408  16.852   2.021  11.171  0.0996  0.0360 -0.2785
 3885W        W21409   0.986   3.678   0.731  0.0490 -0.0587  0.0281
 3886W        W21410   2.853  14.482   1.377 -0.1136 -0.3437 -0.2800
 3887W        W21411   3.368   5.260   3.183  0.3307 -0.0650  0.2385
 3888W        W21412  15.077  16.427  12.927  0.3258  0.0146 -0.0107
 3889W        W21413  13.101   8.478  11.869  0.2910  0.4253  0.0235
 3890W        W21414   0.711  13.149  12.540  0.1686 -0.3838 -0.1749
 3891W        W21415  12.528  14.416  13.547 -0.1570 -0.3195 -0.0075
 3892W        W21416   8.654   6.170   1.522  0.0814  0.1052 -0.1089
 3893W        W21417   8.466   0.490  12.191  0.0545  0.2024 -0.2212
 3894W        W21418   1.081   8.856  11.846  0.3430 -0.1469  0.3551
 3895W        W21419   7.667  11.096  14.302  0.0020  0.1540 -0.1579
 3896W        W21420   6.999   0.674   1.598  0.4647 -0.1718  0.0530
 3897W        W21421   3.814  11.098   2.774  0.0147  0.0310 -0.2970
 3898W        W21422   2.733  13.993   3.978 -0.0278 -0.2625  0.1549
 3899W        W21423  12.953   1.720  13.404 -0.0898  0.0214 -0.0383
 3900W        W21424  17.573  15.056  12.074 -0.0149 -0.1343  0.5039
 3901W        W21425   4.890  17.099   3.937  0.1635  0.0845 -0.0555
 3902W        W21426  17.475   7.793   0.502  0.0833 -0.0579 -0.1971
 3903W        W21427   1.683  11.040   4.065 -0.0023 -0.1906 -0.0575
 3904W        W21428   3.731   6.878  14.124  0.0824  0.2274 -0.2733
 3905W        W21429  14.968  12.055  13.197  0.0628  0.0072 -0.3428
 3906W        W21430   8.853  14.983   1.394  0.1070  0.1204 -0.0644
 3907W        W21431  16.000   5.694   4.250  0.0436  0.0153 -0.1939
 3908W        W21432  17.766   5.319  11.662 -0.2103 -0.0018 -0.0453
 3909W        W21433   6.511  12.557  12.263  0.0813  0.3217 -0.5850
 3910W        W21434  16.834   2.462  12.439  0.3728 -0.2086  0.3523
 3911W        W21435   7.977   0.639   3.586 -0.0800 -0.0241 -0.1296
 3912W        W21436  14.997   1.725   4.421  0.1853  0.3822 -0.0650
 3913W        W21437   9.125  15.485   0.327  0.1344  0.2396 -0.2035
 3914W        W21438   8.474  14.974  14.894 -0.1518 -0.3431 -0.2443
 3915W        W21439   5.819  10.476  13.060  0.3618  0.1606  0.0473
 3916W        W21440  17.464   8.899  14.923 -0.0062  0.1184  0.0970
 3917W        W21441   3.797   6.836  12.909 -0.0032  0.0128 -0.0782
 3918W        W21442   9.892  13.391  14.575 -0.2977 -0.4661 -0.1905
 3919W        W21443   7.061  16.824  15.350  0.1331  0.2416 -0.0925
 3920W        W21444   5.308  12.658  12.372 -0.1549 -0.1229  0.3199
 3921W        W21445  11.283   0.508   4.912 -0.1308  0.0361  0.0863
 3922W        W21446   7.540  13.801   2.726 -0.1308 -0.2180 -0.2001
 3923W        W21447  14.716  14.781   4.908  0.3945 -0.0934 -0.1488
 3924W        W21448   1.240  13.299  14.620  0.0136  0.1021 -0.1303
 3925W        W21449  11.739  14.827  14.943 -0.0948 -0.6017 -0.4115
 3926W        W21450   3.022  17.566  14.121 -0.1049 -0.0734  0.3022
 3927W        W21451  17.068  10.663  15.008  0.1833 -0.2587 -0.0124
 3928W        W21452  14.135   5.142   0.388 -0.0746 -0.0568  0.0068
 3929W        W21453  13.963  18.411  11.273 -0.0584  0.1004 -0.0043
 3930W        W21454  16.735   6.194   3.441 -0.3500 -0.2968 -0.1438
 3931W        W21455  16.379   3.171  11.727  0.0822 -0.0176 -0.2305
 3932W        W21456   8.137   3.983  12.283 -0.0623 -0.1415  0.2269
 3933W        W21457  14.931   3.546   3.923  0.0679  0.0119 -0.2249
 3934W        W21458   6.330   6.500   0.554  0.0175 -0.2522  0.0479
 3935W        W21459   1.473   2.263  15.191  0.1529 -0.0744  0.0544
 3936W        W21460  14.186   8.936  12.542  0.1764  0.2844 -0.1206
 3937W        W21461  13.747   7.155   0.864 -0.0065  0.1812 -0.2025
 3938W        W21462   6.751  13.010   4.627 -0.2238 -0.2941  0.3053
 3939W        W21463   7.324   3.858   5.099 -0.0838 -0.1250 -0.0352
 3940W        W21464   8.529   7.321  14.326 -0.1923 -0.0387  0.1050
 3941W        W21465   6.804   8.087  12.007 -0.1378 -0.4823  0.0606
 3942W        W21466   3.677  10.963  13.632  0.1106 -0.0017 -0.0961
 3943W        W21467   6.536  13.574  10.422  0.1140 -0.3397 -0.1317
 3944W        W21468  16.720  17.598   0.419  0.1186 -0.1225  0.1980
 3945W        W21469   9.792  12.365  15.124 -0.1193 -0.0326  0.1136
 3946W        W21470   4.357   9.876  15.438  0.5515  0.1420  0.0946
 3947W        W21471   3.373   8.580   1.156 -0.1927  0.1377  0.0177
 3948W        W21472  14.672  18.297   2.581 -0.4831  0.4774 -0.0522
 3949W        W21473  16.585   8.838  12.116  0.1714  0.3399  0.1903
 3950W        W21474   4.408   5.823  12.762 -0.3445 -0.1122 -0.0463
 3951W        W21475   2.131   7.967  12.914 -0.3373 -0.2446 -0.2751
 3952W        W21476  12.254  10.624  13.135  0.1290 -0.1848  0.3831
 3953W        W21477  17.861  16.779   0.625  0.0265  0.2516  0.2850
 3954W        W21478  10.618  17.874   4.520  0.0969 -0.0127 -0.5190
 3955W        W21479   9.821  16.671   2.686 -0.2713 -0.0956  0.1112
 3956W        W21480   3.056   8.581   2.532 -0.1513 -0.0092 -0.0458
 3957W        W21481  10.272  14.958  11.719  0.0719  0.1469 -0.1642
 3958W        W21482   7.617   9.594   4.539  0.0597 -0.2099  0.0672
 3959W        W21483  10.686   3.549  10.926  0.0480 -0.0545 -0.1205
 3960W        W21484   0.791  16.838  14.470 -0.1945  0.1151  0.3912
 3961W        W21485  12.916   1.769   3.991  0.1357  0.1962 -0.1273
 3962W        W21486   0.443   7.947  10.784  0.3394 -0.1420 -0.1300
 3963W        W21487  11.530  14.626  14.499  0.1233  0.2829  0.1104
 3964W        W21488   4.695   1.043   1.591  0.0757 -0.0001  0.1367
 3965W        W21489   5.536  16.614   5.164 -0.0381  0.0007  0.0321
 3966W        W21490  16.343   0.702   3.378  0.1133  0.2077  0.1078
 3967W        W21491  13.085  18.252  13.613  0.2233 -0.1496  0.0954
 3968W        W21492  13.340   3.621  11.669 -0.0069 -0.1851 -0.2721
 3969W        W21493  15.014   9.164  12.635  0.0054  0.4615  0.0033
 3970W        W21494  17.315  18.409  12.823 -0.1167 -0.1358  0.3933
 3971W        W21495   0.012  17.860  12.428 -0.0266  0.0632  0.1705
 3972W        W21496   9.748   7.251   2.818  0.0407 -0.1000  0.1246
 3973W        W21497   7.923   1.429  12.386  0.1814  0.0622 -0.0693
 3974W        W21498  13.415   8.767  11.130 -0.0472  0.4348  0.1132
 3975W        W21499   2.622  16.667   1.267  0.2404 -0.1703  0.1790
 3976W        W21500   8.147   4.661  15.210 -0.1802 -0.2278  0.3736
 3977W        W21501   6.195   3.241   4.392  0.0154  0.2376  0.0351
 3978W        W21502   5.739  17.746  14.625  0.1288 -0.1212 -0.0500
 3979W        W21503  17.673  16.842   3.240 -0.0727  0.0964  0.1937
 3980W        W21504   9.962   1.613  13.680  0.0743  0.4415  0.0506
 3981W        W21505  11.828  11.347   3.549 -0.1950  0.1123  0.2287
 3982W        W21506   4.776   8.517   4.397  0.0368  0.3724 -0.0269
 3983W        W21507   7.601   7.350  14.662  0.1961  0.3463 -0.4147
 3984W        W21508  16.373   1.831  15.224 -0.2396  0.0079  0.0110
 3985W        W21509   0.483  12.369   1.320 -0.2389  0.0039 -0.0611
 3986W        W21510  15.546   4.757  11.686 -0.0223 -0.2130  0.0596
 3987W        W21511   8.925   8.928   0.313 -0.0100 -0.0865  0.0163
 3988W        W21512  12.315   8.627   4.612  0.0677  0.0206 -0.2831
 3989W        W21513  10.741   0.431   3.041 -0.2533  0.1076  0.0224
 3990W        W21514  13.165   9.110   2.180 -0.0479 -0.0428 -0.4396
 3991W        W21515   3.943  16.761   0.672  0.0350  0.0666  0.0959
 3992W        W21516  14.234  16.077   1.696  0.2475  0.1409 -0.1958
 3993W        W21517  12.262   2.873   3.682  0.0366  0.1743  0.1916
 3994W        W21518  11.269   6.145   1.249 -0.2448 -0.1145 -0.0944
 3995W        W21519  17.773  15.215  14.496  0.3542  0.2521  0.2226
 3996W        W21520   7.237   2.318  14.156  0.1166  0.1484 -0.1547
 3997W        W21521  17.193   2.613  11.594 -0.0702  0.2702 -0.1465
 3998W        W21522  17.134  15.675  11.595 -0.3441  0.1127  0.3619
 3999W        W21523  13.962   6.161   1.297 -0.1735  0.2429 -0.1863
 4000W        W21524   4.651   7.561  12.136 -0.0574  0.0879 -0.0310
 4001W        W21525  10.796   1.448   1.467  0.0740  0.2314 -0.1536
 4002W        W21526  10.919   1.019  12.096 -0.2857  0.0582 -0.0481
 4003W        W21527   0.482   6.240  11.251  0.4083  0.2024  0.0530
 4004W        W21528  14.539   0.702  12.121 -0.0353 -0.2883  0.0436
 4005W        W21529  16.773   9.126   1.238 -0.2441 -0.1540  0.0596
 4006W        W21530   2.287   9.435  12.391 -0.0819  0.1008  0.0173
 4007W        W21531   0.710   2.226  15.019 -0.0443  0.0693  0.2511
 4008W        W21532   8.794  13.982  12.755 -0.0726 -0.0571  0.0016
 4009W        W21533   1.882   0.896  14.332  0.0011  0.1474  0.0157
 4010W        W21534  12.343  11.755   0.743 -0.0571  0.0483  0.2500
 4011W        W21535  12.034  10.109   4.515  0.0664 -0.0244  0.0820
 4012W        W21536  14.145   8.909   2.031 -0.1604 -0.1608 -0.2510
 4013W        W21537  15.657   3.181  15.661 -0.2257  0.0658 -0.0205
 4014W        W21538   6.851  10.119   4.133  0.1409 -0.2981 -0.2618
 4015W        W21539   9.876   5.460  15.593  0.0935  0.4516  0.3807
 4016W        W21540  17.537  11.373   1.155  0.0696  0.2704  0.2286
 4017W        W21541  11.200   2.014  15.440 -0.0196 -0.4616 -0.0629
 4018W        W21542   9.814   8.248   0.751  0.2391 -0.0801  0.1162
 4019W        W21543   2.418   3.931  13.221 -0.2216  0.0160 -0.1580
 4020W        W21544  13.837   3.837   1.103 -0.1408  0.0948 -0.0345
 4021W        W21545  17.383  15.085  13.603  0.3191 -0.3292  0.0741
 4022W        W21546  15.662   5.317  10.811 -0.0096  0.1763 -0.1400
 4023W        W21547  10.644  13.481   0.096 -0.0893  0.0931  0.1767
 4024W        W21548   0.752   3.891   9.839 -0.3119  0.0051 -0.0623
 4025W        W21549   0.841   0.435  11.051 -0.0600 -0.1733  0.4376
 4026W        W21550   6.967   5.718  10.661 -0.1165 -0.1826 -0.2044
 4027W        W21551  11.035  12.632   4.286  0.0389 -0.2066  0.0403
 4028W        W21552  11.781   5.364  13.732  0.1573  0.1979 -0.0564
 4029W        W21553   3.529  17.161  13.125  0.1132 -0.1903 -0.3362
 4030W        W21554   2.170  15.735  15.456 -0.0909 -0.1143  0.0855
 4031W        W21555   4.680   2.248  13.696  0.0569  0.1256 -0.0601
 4032W        W21556   9.346   1.280  14.388  0.2433  0.0733  0.1600
 4033W        W21557   1.979  10.387  11.949 -0.1875 -0.3317  0.2156
 4034W        W21558   1.182  17.258   2.994 -0.1000  0.1365  0.3443
 4035W        W21559   7.111  16.489  10.629 -0.1025  0.0057 -0.4310
 4036W        W21560   1.989  17.049   4.180  0.0942  0.0369  0.1627
 4037W        W21561  17.962  11.563   3.285 -0.2680 -0.0063  0.0578
 4038W        W21562   0.478  10.108   2.843  0.0206 -0.1321 -0.1611
 4039W        W21563   0.551   4.275   4.572  0.0149  0.0325  0.1403
 4040W        W21564   5.206   0.146   3.434 -0.1149 -0.0131  0.2734
 4041W        W21565  15.360  16.075  13.159  0.1175 -0.0888  0.0020
 4042W        W21566   3.651   9.807   3.072  0.1080  0.2214  0.1497
 4043W        W21567   7.111  11.335  11.583 -0.2716  0.2845  0.3332
 4044W        W21568  14.960   7.431   0.184  0.1136 -0.1235  0.0136
 4045W        W21569  11.736  15.210  15.753  0.0308  0.1452 -0.1505
 4046W        W21570   5.870   7.771  14.622 -0.0967  0.1804 -0.0315
 4047W        W21571   8.874  12.488  13.902  0.1037  0.0128  0.0269
 4048W        W21572  11.942  16.316   4.790  0.0444 -0.1979 -0.3357
 4049W        W21573   2.109  11.419   0.961 -0.1346 -0.0970 -0.1360
 4050W        W21574   8.540   5.832  11.891  0.0421 -0.0213 -0.0371
 4051W        W21575  13.030   7.834   2.396  0.1754 -0.0128  0.1185
 4052W        W21576   5.589   8.660  13.774  0.1250 -0.1740  0.2902
 4053W        W21577  11.428   1.068  15.593 -0.1641 -0.0705 -0.1209
 4054W        W21578  10.508   1.101   2.331 -0.1572 -0.1652  0.0906
 4055W        W21579   2.998   1.238   3.594  0.1761  0.3132 -0.0992
 4056W        W21580   2.194   1.554   4.439  0.1179 -0.1815 -0.0375
 4057W        W21581   3.944  14.620  12.450 -0.1883  0.0318  0.5444
 4058W        W21582   3.189   2.875  14.186  0.0041  0.0496  0.2698
 4059W        W21583   6.777   2.547  15.825  0.3108 -0.1473  0.1390
 4060W        W21584   9.366   3.796  14.768  0.0033 -0.2982  0.1261
 4061W        W21585  12.475   6.880  14.171 -0.1331 -0.0887  0.1280
 4062W        W21586   6.638   6.017  14.441 -0.0882 -0.3310  0.2540
 4063W        W21587   9.699   5.606  15.157  0.1555  0.1259 -0.0018
 4064W        W21588   4.588  16.717  10.686 -0.0964 -0.0143  0.1908
 4065W        W21589   7.228  13.315  12.549 -0.0091  0.3629 -0.0700
 4066W        W21590  12.377  12.871   4.005 -0.0295  0.0109  0.2742
 4067W        W21591   6.408   5.985   3.334  0.1371 -0.0784 -0.0763
 4068W        W21592  14.868   7.552   1.485 -0.0595 -0.1568 -0.2167
 4069W        W21593  12.123   9.656  14.432  0.2039 -0.2135  0.1580
 4070W        W21594   5.604  17.501   2.052  0.1099  0.1740  0.1590
 4071W        W21595   2.929   2.114  13.687  0.1198 -0.1222  0.0725
 4072W        W21596   6.567  10.595  11.823 -0.0533  0.3758 -0.1459
 4073W        W21597  11.743   6.429   3.573 -0.0129 -0.0618  0.0311
 4074W        W21598  17.741   3.632  11.010  0.0364  0.1365  0.0688
 4075W        W21599  12.565   7.464  10.098  0.2309  0.0569 -0.1404
 4076W        W21600   5.587  13.863  15.324 -0.2107 -0.0020 -0.0969
 4077W        W21601  15.728  10.106   0.967  0.2099 -0.0233 -0.3854
 4078W        W21602   2.708   1.647  12.237  0.0995 -0.1733 -0.0024
 4079W        W21603   4.536  14.260  15.600  0.1040  0.1939 -0.2384
 4080W        W21604  11.141   7.431  11.788 -0.1539 -0.1080 -0.2743
 4081W        W21605  15.497   7.139   0.767  0.0752  0.0925  0.0365
 4082W        W21606  13.309  17.625   2.935  0.1890  0.0764  0.2314
 4083W        W21607   4.655   6.499  15.317 -0.2243  0.1912  0.0679
 4084W        W21608   4.887  17.332  13.143 -0.1039  0.1418 -0.2145
 4085W        W21609  10.134   7.999  10.204 -0.0061  0.2098  0.1753
 4086W        W21610  12.178   6.788   0.056  0.2129  0.2188  0.2050
 4087W        W21611   6.516   0.578   2.682  0.0759  0.2171 -0.2733
 4088W        W21612  11.186  15.617  13.448 -0.0970 -0.0584  0.3120
 4089W        W21613   0.407  11.402   4.640 -0.2034 -0.1032  0.0602
 4090W        W21614   2.779   6.877   0.428 -0.0266 -0.1499 -0.0255
 4091W        W21615  17.933  15.669  14.248 -0.1789  0.4211 -0.0988
 4092W        W21616   0.230  12.974   5.710  0.2824  0.4397  0.1775
 4093W        W21617   4.656   8.407  13.908 -0.0865  0.3331  0.1816
 4094W        W21618  16.335  16.867   0.288 -0.0484  0.2740  0.1082
 4095W        W21619  12.745  12.637   2.349 -0.0260  0.3124  0.2258
 4096W        W21620   5.600   9.244   4.214 -0.2149  0.1666  0.0560
 4097W        W21621  11.595  16.687  15.785  0.0418 -0.2973 -0.2220
 4098W        W21622  17.925  10.124  12.537 -0.3115  0.0680  0.1206
 4099W        W21623   3.766   9.266  12.840 -0.1561  0.0160 -0.1305
 4100W        W21624  12.572   5.261   1.266 -0.2554  0.2032 -0.2329
 4101W        W21625  16.021   9.055  12.388 -0.1039 -0.1641  0.0166
 4102W        W21626   4.499  10.579  11.004  0.2897 -0.0048 -0.0462
 4103W        W21627   1.852  13.170  13.125  0.0030  0.0408 -0.1745
 4104W        W21628  10.018   1.897  12.888  0.0597 -0.1814  0.1829
 4105W        W21629   9.807   3.878   2.270  0.0614 -0.2034  0.1445
 4106W        W21630   5.886  13.100   1.671  0.1511 -0.1610  0.1077
 4107W        W21631   5.459   0.929  13.707  0.1861 -0.1774 -0.1149
 4108W        W21632   7.161   3.811   0.659  0.3346 -0.0917  0.1658
 4109W        W21633   0.830   0.137   1.488  0.2367 -0.1927  0.0550
 4110W        W21634   1.514   0.884   3.856 -0.1999 -0.1481 -0.1021
 4111W        W21635   7.792   6.332  13.429  0.3278  0.0005 -0.3270
 4112W        W21636  11.401   8.351  15.102  0.3577  0.1151 -0.0399
 4113W        W21637   4.894   4.888  13.804  0.0510  0.0898 -0.1810
 4114W        W21638   2.766  15.159  14.893  0.0369  0.0714 -0.1594
 4115W        W21639  12.383   5.009  12.818  0.0030 -0.4220  0.1444
 4116W        W21640   3.085  15.236  13.902 -0.0938  0.1133 -0.0137
 4117W        W21641   4.198   6.041  13.159 -0.2314  0.1167  0.1852
 4118W        W21642   9.220  15.475   2.464  0.1269 -0.0277 -0.0814
 4119W        W21643   6.120  15.461   3.876 -0.0100  0.0492 -0.3271
 4120W        W21644   8.424   7.135  15.211  0.0578  0.0349  0.3671
 4121W        W21645   3.954  17.288   5.689  0.0707  0.2342 -0.2867
 4122W        W21646   0.559   5.038  13.941  0.1269  0.1614 -0.0163
 4123W        W21647  16.756  15.188   1.738  0.1206  0.0263 -0.3321
 4124W        W21648   2.893  15.605   4.229 -0.0316 -0.3200  0.0437
 4125W        W21649   6.380   2.772  11.716 -0.0343  0.1526  0.3169
 4126W        W21650  14.010   6.689   2.184  0.2493 -0.0511  0.0913
 4127W        W21651  10.361   6.275  15.433 -0.1904  0.0746  0.2680
 4128W        W21652   8.087  13.794   2.860  0.4234  0.1050  0.0861
 4129W        W21653  10.745   4.623   0.208 -0.2615  0.0435  0.1802
 4130W        W21654   6.819   3.755  15.530  0.1335  0.0458 -0.0046
 4131W        W21655   4.524  17.922  12.292 -0.3293 -0.0381  0.1284
 4132W        W21656  17.768   8.295   0.327 -0.2759  0.0345  0.2835
 4133W        W21657   9.352   3.958   0.663  0.0862 -0.0398 -0.3078
 4134W        W21658   0.258   1.829   4.796 -0.0567  0.2402 -0.1589
 4135W        W21659  16.054   3.251  13.673  0.0883 -0.3830  0.0402
 4136W        W21660  11.474  13.675  10.520  0.0300 -0.2463  0.1699
 4137W        W21661  10.984  12.308  15.384 -0.0342  0.2320 -0.2720
 4138W        W21662   1.916   5.695   0.590 -0.0321 -0.1599  0.0726
 4139W        W21663  15.058   0.313   0.234  0.1281 -0.3176 -0.2403
 4140W        W21664  14.429  16.968  15.318  0.2510 -0.0585  0.1439
 4141W        W21665  17.602  11.720  14.010  0.0339 -0.1753  0.0797
 4142W        W21666  17.947   6.498   0.147 -0.0548 -0.0415 -0.1079
 4143W        W21667   7.005   1.515   3.368 -0.1431 -0.0581 -0.3972
 4144W        W21668   4.940   9.342   5.400  0.0195 -0.1158 -0.0863
 4145W        W21669   6.169  10.662   2.079 -0.0025  0.3433 -0.4321
 4146W        W21670   2.461  17.114   2.454 -0.0971  0.2617 -0.0046
 4147W        W21671   8.076  10.655   0.029  0.0395  0.1045 -0.2538
 4148W        W21672  12.269   3.643  12.503 -0.0097 -0.3256 -0.0800
 4149W        W21673  16.974   3.473  12.340 -0.0372  0.2023 -0.0987
 4150W        W21674   4.628   0.776   5.173 -0.2929 -0.0609 -0.4761
 4151W        W21675  18.319   5.046   4.384  0.1419  0.1055  0.0142
 4152W        W21676  14.745   3.123   3.975  0.0969  0.0508 -0.0056
 4153W        W21677  17.439   4.036   4.743  0.2444 -0.5040 -0.0019
 4154W        W21678  11.192  12.475  11.993 -0.2676 -0.1251  0.2583
 4155W        W21679   0.899  13.974   0.772  0.0418 -0.1847 -0.1453
 4156W        W21680  10.499   7.964  10.642  0.1149 -0.0726 -0.1122
 4157W        W21681  14.807  10.976  14.714 -0.0839 -0.2560 -0.1148
 4158W        W21682   5.862   5.049  12.282 -0.1801  0.1550 -0.2252
 4159W        W21683  18.392  17.092  13.599 -0.3584 -0.1722  0.2580
 4160W        W21684   4.343   7.352   2.618  0.4469 -0.1924 -0.2489
 4161W        W21685   4.281  14.595  14.122 -0.0023 -0.1444  0.0998
 4162W        W21686   4.831   1.218  10.226  0.1305 -0.1259  0.0531
 4163W        W21687   5.082   1.373  13.020  0.1986 -0.1103  0.0705
 4164W        W21688   8.952   3.069  13.153  0.0999  0.0934 -0.0048
 4165W        W21689   9.899   4.363   2.080 -0.2491 -0.2232 -0.0459
 4166W        W21690   8.781   6.954  10.205  0.0088  0.0613 -0.1384
 4167W        W21691  11.102  13.250   2.534  0.3613 -0.0061  0.0378
 4168W        W21692   0.118  18.037   1.152 -0.1905  0.2341 -0.1656
 4169W        W21693  10.291  10.997  11.341  0.3963 -0.0690 -0.1979
 4170W        W21694   2.673  18.184   4.010 -0.0340  0.2513  0.0207
 4171W        W21695  14.162   4.134   4.237  0.2852  0.2877 -0.2290
 4172W        W21696   5.306   4.615  13.062 -0.0815 -0.0489  0.1296
 4173W        W21697   0.844   3.377  10.746 -0.3093  0.0788 -0.0182
 4174W        W21698   7.308   2.407   0.822  0.1968  0.0685  0.0200
 4175W        W21699   3.938   8.282   5.568 -0.0052  0.0392 -0.2982
 4176W        W21700   1.466  17.640   1.742  0.1111 -0.1397 -0.0769
 4177W        W21701   1.460   2.362  12.893 -0.0667 -0.4055  0.0319
 4178W        W21702  18.068  18.281   0.109 -0.3331 -0.0024  0.1574
 4179W        W21703   2.842  14.806  12.683  0.1968 -0.1425  0.2449
 4180W        W21704  14.989   2.769   3.702 -0.0363  0.1614 -0.0088
 4181W        W21705  14.513   2.856   1.032 -0.0104  0.3144  0.3138
 4182W        W21706   6.713  14.053   3.798  0.2707  0.1913 -0.2678
 4183W        W21707  15.859  17.311   1.858 -0.1930  0.1269 -0.1788
 4184W        W21708   1.849  16.453  12.142  0.0105 -0.2181  0.0891
 4185W        W21709   8.988   6.823   0.053 -0.3027 -0.2049 -0.0467
 4186W        W21710   0.462   1.062   3.994 -0.0102  0.0587  0.1908
 4187W        W21711  10.557   6.676   4.619  0.0079 -0.1677 -0.0991
 4188W        W21712   5.099  11.381  15.260 -0.3292  0.0741 -0.1430
 4189W        W21713  14.830   2.403  14.911 -0.1318  0.1148 -0.1886
 4190W        W21714  17.857   0.500  12.915 -0.0455  0.0991 -0.0919
 4191W        W21715  12.602   0.167   4.704 -0.2064 -0.0925  0.0368
 4192W        W21716  15.540   9.057   0.488  0.0373  0.3521  0.1216
 4193W        W21717   5.913  15.649  10.525 -0.1272  0.2650 -0.1525
 4194W        W21718   7.893  15.136   4.870 -0.1336  0.1858  0.1889
 4195W        W21719   5.979   8.571   3.032  0.0694 -0.0059  0.1657
 4196W        W21720  10.014  14.180   3.935  0.3190 -0.1706  0.0745
 4197W        W21721   1.669   3.475  11.163 -0.0566 -0.1119 -0.2761
 4198W        W21722   8.055  13.714  12.114 -0.1272  0.0278  0.0900
 4199W        W21723  16.145   3.089   2.165  0.0077 -0.0604  0.2067
 4200W        W21724   7.164   1.230   4.747 -0.0422  0.0251  0.1772
 4201W        W21725  17.280   4.863   3.876 -0.0874  0.2974 -0.1139
 4202W        W21726   6.337  14.046  13.030  0.0446 -0.0330 -0.2548
 4203W        W21727   9.073   1.516   0.895 -0.2014 -0.2973  0.1102
 4204W        W21728   9.939   8.666  10.983 -0.0705 -0.3656  0.0804
 4205W        W21729  17.660  11.457   0.611 -0.1166 -0.1182  0.0658
 4206W        W21730   7.480   8.221  12.421  0.2795  0.0290 -0.0275
 4207W        W21731   4.847  18.283  12.400  0.2716 -0.4631  0.0039
 4208W        W21732   7.668  16.488   3.346 -0.1554 -0.3634  0.1444
 4209W        W21733   7.894   7.443  15.184  0.1381 -0.0537 -0.0233
 4210W        W21734  11.285  15.038   2.115  0.0521  0.2994  0.2243
 4211W        W21735   1.148  14.894  12.442 -0.1456  0.2041 -0.0682
 4212W        W21736  16.029   7.640  14.557  0.0657  0.1389  0.0611
 4213W        W21737   6.903  13.898  10.466  0.1825  0.0361 -0.2275
 4214W        W21738  17.508   8.661   0.700 -0.1262 -0.0393  0.2258
 4215W        W21739  16.889   3.811  15.118 -0.1202 -0.0189  0.1048
 4216W        W21740   0.320   0.339   3.214 -0.1734 -0.2170 -0.0368
 4217W        W21741  10.973   5.273  11.370  0.2967 -0.0869  0.0879
 4218W        W21742   4.051   8.915  14.907  0.2832  0.1083  0.1270
 4219W        W21743   2.410   4.071   4.516  0.0432 -0.0969  0.0668
 4220W        W21744   4.261  18.242   3.829 -0.0845  0.2722  0.1258
 4221W        W21745  12.498   6.930   1.452  0.3079 -0.0355 -0.0674
 4222W        W21746   0.906   6.309  12.670  0.1823  0.1647  0.3918
 4223W        W21747  14.744   2.715  15.715 -0.2063 -0.2797  0.1981
 4224W        W21748   4.804   9.648  13.594 -0.0871 -0.2077  0.2043
 4225W        W21749   5.872  11.486   4.078  0.5321  0.0142 -0.3825
 4226W        W21750  13.074   6.036   1.565  0.2309 -0.2423 -0.0900
 4227W        W21751   3.739  17.374   2.779  0.0308 -0.1926 -0.1824
 4228W        W21752   6.220  10.899   2.473  0.5125  0.5420  0.0778
 4229W        W21753   6.566  15.256   2.123 -0.1424 -0.1066 -0.3237
 4230W        W21754  12.428   7.711   4.139  0.0597 -0.0460  0.2200
 4231W        W21755   0.759   6.743  11.708  0.3290 -0.2783 -0.1087
 4232W        W21756  13.166   2.122  15.602  0.0975  0.1229 -0.3115
 4233W        W21757  11.109   6.918   0.961  0.1586 -0.0341 -0.0622
 4234W        W21758   6.839  10.166   3.629 -0.0271 -0.2471 -0.2045
 4235W        W21759   5.937  13.859   2.711  0.0211 -0.2283  0.2422
 4236W        W21760  11.265   5.198   4.633  0.1638  0.3473 -0.1069
 4237W        W21761  18.141   8.631   4.841 -0.1000  0.0009 -0.3235
 4238W        W21762   3.243  12.851  11.303  0.0106 -0.0639  0.0937
 4239W        W21763  11.898  16.635  14.081  0.1391 -0.0719 -0.1960
 4240W        W21764   2.967   8.321  12.145  0.4863  0.1605 -0.1180
 4241W        W21765  17.040   1.986   0.884 -0.2325 -0.0799  0.4736
 4242W        W21766  13.198   9.101   5.449  0.1105 -0.1531  0.1066
 4243W        W21767  15.891  12.896  12.701 -0.0497  0.1158 -0.0417
 4244W        W21768  17.172   4.991  12.341  0.1610 -0.0507  0.1467
 4245W        W21769   9.696   2.397   3.513 -0.1891  0.0028  0.2776
 4246W        W21770  12.964   7.056  11.874  0.1292  0.0460  0.2812
 4247W        W21771  11.096   4.502   2.354  0.1380 -0.2793  0.2517
 4248W        W21772   7.692   1.588  14.939  0.5308  0.1813 -0.0737
 4249W        W21773   8.263   8.915   1.602  0.2437  0.0436 -0.0692
 4250W        W21774  12.616  17.905   1.709 -0.1745  0.0528 -0.2742
 4251W        W21775   1.810   9.814   3.761  0.1703 -0.0515  0.5184
 4252W        W21776   5.035  17.516  14.530 -0.1758 -0.0645 -0.0418
 4253W        W21777  14.288  12.517   2.456 -0.1998  0.2961  0.1224
 4254W        W21778   6.803   5.787   3.064 -0.1072  0.1926  0.2264
 4255W        W21779   0.307  10.519   4.295 -0.2913  0.2211 -0.1375
 4256W        W21780  12.081   0.432  13.665 -0.1441 -0.1169 -0.5177
 4257W        W21781  13.522  16.242   3.066 -0.1091  0.1619 -0.1277
 4258W        W21782   6.177   7.460   3.768  0.0433 -0.1788 -0.0813
 4259W        W21783   0.687  11.076   3.676  0.0955 -0.0934  0.5200
 4260W        W21784  10.887  11.975  13.887  0.0969 -0.1929 -0.1190
 4261W        W21785   7.306  15.255   2.987 -0.0399 -0.0832 -0.2540
 4262W        W21786   5.643   4.993   3.801 -0.1810 -0.0688  0.1671
 4263W        W21787   0.733   5.791   4.298 -0.0322  0.0497  0.1451
 4264W        W21788  11.913   7.280   0.662 -0.0350  0.2072  0.1498
 4265W        W21789  13.897   0.722  13.309  0.0876 -0.1373 -0.0728
 4266W        W21790  13.426  18.282  15.675 -0.1266 -0.0697 -0.2522
 4267W        W21791   1.032  10.908   2.184  0.0916  0.2720 -0.3587
 4268W        W21792   7.732   3.684   2.949  0.2195 -0.0527  0.2422
 4269W        W21793  12.043   1.634   4.708  0.0243 -0.2571 -0.0391
 4270W        W21794   6.177   6.989   4.050  0.0129  0.1508 -0.0096
 4271W        W21795   9.880  15.021   3.156  0.0836  0.0913  0.3258
 4272W        W21796   8.105  12.862  12.732 -0.1090  0.0385  0.2573
 4273W        W21797   1.268   0.120  12.374 -0.4363  0.0980  0.1214
 4274W        W21798   2.536   6.737   2.200  0.1165  0.0052 -0.0914
 4275W        W21799   1.952  11.646  10.990  0.0485 -0.0236 -0.1024
 4276W        W21800  14.493   6.732  11.576  0.0247 -0.0937  0.1684
 4277W        W21801   7.555  17.485   2.640  0.2242 -0.0173 -0.3525
 4278W        W21802   4.334   4.819  15.659 -0.0450 -0.4793  0.2635
 4279W        W21803  11.673   9.879   1.572 -0.1402  0.2136  0.1343
 4280W        W21804   9.582  10.465   1.816 -0.3249 -0.1857  0.3310
 4281W        W21805   6.227  14.272   3.925  0.1234 -0.0880 -0.0100
 4282W        W21806   3.324  15.167  11.255  0.2135 -0.0066  0.1548
 4283W        W21807  14.273  16.644  12.446  0.0070  0.0126  0.1783
 4284W        W21808   8.955  12.152   3.008 -0.0519  0.0680  0.2497
 4285W        W21809   2.117   5.653  10.871  0.1985 -0.1575  0.2590
 4286W        W21810  11.980  15.233  13.737 -0.2126 -0.1980  0.0306
 4287W        W21811  16.013   9.151  12.887  0.0430  0.0216  0.1866
 4288W        W21812  16.889   1.236  11.739  0.0893 -0.1679  0.0217
 4289W        W21813   9.042   7.116   1.308  0.3952 -0.1437 -0.1065
 4290W        W21814   8.061   4.869   0.429  0.0466 -0.2838 -0.3215
 4291W        W21815  16.173  11.641   5.300 -0.1608 -0.0453  0.2491
 4292W        W21816  10.660   9.509   3.050  0.1771 -0.1019  0.0247
 4293W        W21817   7.186  17.554   0.203  0.2694  0.0627  0.0542
 4294W        W21818   2.625   8.600  12.457 -0.1698  0.3011 -0.2760
 4295W        W21819  14.702   7.603  11.946  0.0079  0.1872 -0.1925
 4296W        W21820   7.612   0.419  12.819 -0.1116  0.1576 -0.2338
 4297W        W21821  15.051   1.229   2.357 -0.4585 -0.2189  0.0879
 4298W        W21822  13.736   6.041   4.636 -0.0274 -0.2982 -0.2946
 4299W        W21823   3.393   0.711  10.229 -0.0027  0.0994  0.1045
 4300W        W21824  18.218   2.577  12.642 -0.1369 -0.1410 -0.1237
 4301W        W21825   9.245   0.792   2.939  0.1274 -0.1001 -0.1510
 4302W        W21826   5.173   2.122   1.697 -0.1015  0.0179 -0.0042
 4303W        W21827   8.295   8.003  14.128  0.1961 -0.0277 -0.2872
 4304W        W21828   6.534   6.401   3.570 -0.1136  0.0415 -0.0884
 4305W        W21829  12.091   0.751  11.461 -0.0280  0.1436 -0.0777
 4306W        W21830   9.643  15.995  15.111 -0.0676 -0.0638 -0.0174
 4307W        W21831   4.470  11.551   1.461  0.0548  0.0856  0.1254
 4308W        W21832   7.239   6.987  15.475 -0.1371  0.1007 -0.1015
 4309W        W21833   4.864  15.666  11.190  0.3185  0.3884 -0.3976
 4310W        W21834   3.983   5.374  14.546  0.0666 -0.0056 -0.0486
 4311W        W21835   0.417   1.307  14.517 -0.3516 -0.1293 -0.0454
 4312W        W21836   5.855  10.470   2.521 -0.2365 -0.1592  0.0986
 4313W        W21837   7.356   5.104   1.021 -0.1324  0.3372  0.1436
 4314W        W21838   1.750  12.091   3.060 -0.1794  0.3890 -0.1648
 4315W        W21839   7.283  10.904   4.574  0.0396 -0.2451 -0.0159
 4316W        W21840   3.977   5.115  12.003  0.0519 -0.1700  0.1312
 4317W        W21841   4.943  12.950  14.805 -0.2859 -0.0160 -0.1547
 4318W        W21842  12.944   9.072  14.232  0.2248 -0.2403 -0.2049
 4319W        W21843  14.410   1.261   4.475  0.0034 -0.0062  0.4990
 4320W        W21844  17.630  18.226   0.303  0.3551 -0.1734 -0.0273
 4321W        W21845   2.163  13.084  13.554 -0.2597 -0.0189  0.0559
 4322W        W21846   5.404  10.795  12.948  0.2299 -0.3715  0.1557
 4323W        W21847  11.983   9.218  11.996  0.0720  0.2212 -0.0443
 4324W        W21848  14.390  16.116  15.725 -0.1524  0.0493 -0.2604
 4325W        W21849  13.610   3.734   3.996  0.1624  0.5728 -0.1909
 4326W        W21850   7.760   2.595   0.135 -0.0362  0.0859  0.0829
 4327W        W21851  17.389   4.927  11.758  0.3518  0.0158 -0.0129
 4328W        W21852   0.058   8.422   1.991  0.0601 -0.1950 -0.1170
 4329W        W21853   6.960  15.163   2.555  0.3716  0.0470 -0.1987
 4330W        W21854   0.216   7.815   0.029 -0.1049 -0.1380 -0.2534
 4331W        W21855   6.284   5.012   2.428 -0.0858 -0.1036  0.0030
 4332W        W21856   5.387  17.589  12.723  0.0347 -0.0441  0.0565
 4333W        W21857  15.957   2.552  11.116  0.1571 -0.0496 -0.1714
 4334W        W21858  11.634  12.060  13.900 -0.3000 -0.0528  0.0549
 4335W        W21859   5.725  16.855  14.543  0.2292  0.0836 -0.1177
 4336W        W21860   6.440  17.213  13.562  0.1755  0.1189  0.0304
 4337W        W21861   2.027  15.539   1.660 -0.0231  0.0291 -0.0208
 4338W        W21862  13.691   4.686  15.443 -0.3713  0.1337 -0.0295
 4339W        W21863   5.488  10.852   1.079 -0.1921 -0.0842  0.2331
 4340W        W21864   5.964   8.584  15.291  0.2550 -0.0138  0.0141
 4341W        W21865   0.496  17.346   5.200  0.2895  0.0045 -0.0275
 4342W        W21866   0.967   0.016   0.114 -0.2216 -0.1935 -0.2372
 4343W        W21867  17.162  13.274   2.913  0.0563  0.1948  0.1347
 4344W        W21868  17.743  10.346   4.605  0.1883 -0.0092 -0.2068
 4345W        W21869   5.991   4.493  13.379  0.3980  0.1374  0.4299
 4346W        W21870   6.726   3.926  12.761  0.1365  0.0359  0.1080
 4347W        W21871   4.003   4.885  12.517  0.2716 -0.0345  0.1556
 4348W        W21872   4.920   4.375  12.401 -0.0749 -0.0118 -0.1231
 4349W        W21873  12.209  15.330   1.554  0.0306  0.0529 -0.1817
 4350W        W21874   4.569   6.226  13.782 -0.0026 -0.0116  0.2008
 4351W        W21875  14.134   0.832   0.583  0.1036 -0.0089 -0.2240
 4352W        W21876   9.157  16.985   2.050  0.3270  0.2263  0.2639
 4353W        W21877  13.929   5.203  11.491  0.1000  0.1062 -0.1196
 4354W        W21878  14.457   2.645  13.351  0.2025  0.2312 -0.0372
 4355W        W21879   3.952   3.215   0.393  0.0948 -0.2344 -0.0203
 4356W        W21880   5.389  17.199   4.082 -0.2538  0.0980 -0.0218
 4357W        W21881  17.982  10.784  12.027  0.0970  0.2468 -0.1233
 4358W        W21882   8.053   9.721   4.170  0.2705 -0.0094 -0.0408
 4359W        W21883  14.635   8.014   1.334  0.0040  0.1124 -0.1498
 4360W        W21884   2.827   4.932   4.579 -0.1153 -0.1238 -0.0024
 4361W        W21885  16.749  13.264  10.862  0.1666  0.0564  0.0892
 4362W        W21886   8.245  15.802   5.747 -0.0719 -0.1389 -0.1148
 4363W        W21887  17.594   4.847   3.487 -0.0345 -0.3230 -0.0369
 4364W        W21888   4.824  11.404   1.108  0.2324  0.0105 -0.3773
 4365W        W21889  13.005  10.090  13.116 -0.0798 -0.2406  0.0323
 4366W        W21890  13.273   4.015   1.610 -0.1265  0.2207  0.1028
 4367W        W21891  10.817   3.955  12.925  0.3910 -0.0648 -0.1379
 4368W        W21892  17.417  14.751   1.180 -0.1152 -0.0438 -0.3375
 4369W        W21893   3.710   1.733  12.549  0.1555  0.1022 -0.3724
 4370W        W21894  10.669   5.681   2.788  0.1080 -0.1934 -0.0418
 4371W        W21895  14.255   2.287  10.300 -0.1862  0.4580  0.5142
 4372W        W21896   6.421   9.181   1.927  0.1533  0.2644  0.0410
 4373W        W21897   7.813   7.264   2.486  0.1633  0.2167  0.0220
 4374W        W21898  17.262   1.194   3.249  0.0119  0.2965 -0.1679
 4375W        W21899  16.090   7.981  11.137  0.1653 -0.0243  0.2473
 4376W        W21900   5.319   5.164  11.493  0.1306 -0.4301 -0.3560
 4377W        W21901   4.552   6.525  14.220 -0.2385  0.1342  0.1893
 4378W        W21902  11.941  12.819   4.966 -0.1119 -0.1451 -0.1445
 4379W        W21903   5.317   4.384  11.546 -0.1878  0.1363 -0.0964
 4380W        W21904  10.332   2.612   1.843  0.0175  0.1245  0.3114
 4381W        W21905  14.203   6.359   1.752 -0.1760 -0.0068 -0.1918
 4382W        W21906  11.313   4.615  10.912  0.2011  0.0178  0.1058
 4383W        W21907  12.512  18.012   1.102 -0.0264 -0.2050  0.2406
 4384W        W21908   6.884   9.536   4.739  0.1491  0.2300  0.1652
 4385W        W21909   8.870  13.994  15.049  0.1017 -0.1964  0.0199
 4386W        W21910   9.084  16.572  12.380 -0.0262  0.0460  0.1253
 4387W        W21911  15.061   2.288  15.644  0.0429  0.2437 -0.0502
 4388W        W21912  12.447  15.094  13.683  0.2233 -0.2549 -0.0465
 4389W        W21913   7.172   7.094  10.288  0.1668 -0.0461  0.1650
 4390W        W21914   0.694  16.135  12.067 -0.0784  0.0059 -0.2081
 4391W        W21915   8.595  11.013  12.719 -0.0692 -0.0755 -0.1995
 4392W        W21916  12.130  15.207   1.122 -0.0294 -0.1864 -0.1072
 4393W        W21917  15.933  11.751  15.442  0.0062  0.0568 -0.1763
 4394W        W21918   4.548  12.952   0.532 -0.1288 -0.1847  0.0747
 4395W        W21919   7.574   1.787   1.451  0.1530 -0.5429  0.4772
 4396W        W21920  17.710   8.785   3.485  0.0287  0.1401  0.1788
 4397W        W21921  10.980   9.209  14.876 -0.3411  0.1159  0.1316
 4398W        W21922   7.459   6.699  10.100  0.1958 -0.0068 -0.2711
 4399W        W21923  14.415   6.891  13.852  0.1654  0.0415  0.3138
 4400W        W21924  18.373   1.337   0.078 -0.0851 -0.1544  0.1219
 4401W        W21925  16.208   7.214  13.798 -0.0455 -0.1175  0.0461
 4402W        W21926  12.672   0.724  12.146  0.0454 -0.0895 -0.2477
 4403W        W21927   8.786   0.198  15.278  0.1198 -0.1108 -0.2122
 4404W        W21928   6.560  11.938   4.265  0.0261 -0.0378  0.0062
 4405W        W21929  15.116   8.132  15.365  0.0521 -0.3315 -0.0049
 4406W        W21930   8.322  17.321  12.349 -0.1746 -0.0445 -0.1373
 4407W        W21931   7.133  17.197  14.284  0.0126 -0.0489 -0.1398
 4408W        W21932   2.782   3.274   4.684 -0.0704  0.2040  0.0092
 4409W        W21933  17.264   0.989  11.900 -0.1234 -0.2334 -0.4030
 4410W        W21934  13.319  10.550   4.285  0.1878 -0.0709 -0.0019
 4411W        W21935  14.597   8.936   5.286  0.2246  0.1926  0.1308
 4412W        W21936  12.504   8.790   4.172 -0.4385 -0.1733  0.1374
 4413W        W21937   8.300  17.678   5.891 -0.1180 -0.1996  0.1146
 4414W        W21938  11.678   1.864   1.245  0.2142  0.1053 -0.1529
 4415W        W21939   6.716   7.265   4.248  0.0526 -0.1644 -0.0545
 4416W        W21940   6.347   6.653   2.552  0.2424  0.1146 -0.1278
 4417W        W21941  10.207   7.676  10.928 -0.1723  0.1693 -0.0942
 4418W        W21942   7.444   4.250  11.726 -0.1930  0.0822  0.0554
 4419W        W21943   7.082  15.604   3.421  0.1775 -0.2542  0.0676
 4420W        W21944  12.204  10.745  11.715 -0.2066 -0.1688 -0.1413
 4421W        W21945  17.132   5.411   2.667  0.0753 -0.0972  0.3929
 4422W        W21946  16.896   0.326   1.392 -0.0109 -0.1305 -0.1667
 4423W        W21947  11.258  12.901   1.401 -0.1710  0.1667 -0.1805
 4424W        W21948   4.841   5.990  15.355  0.2613 -0.0922 -0.1649
 4425W        W21949   6.516   2.049   4.466 -0.4081 -0.2935  0.2372
 4426W        W21950  15.489   4.041  10.247  0.0097 -0.1192 -0.1703
 4427W        W21951  14.191   1.459   2.073 -0.2156  0.0541  0.2575
 4428W        W21952  13.797  13.080   1.846  0.0434 -0.0064 -0.1784
 4429W        W21953  11.541   0.823   3.552  0.0049  0.1172  0.1329
 4430W        W21954  16.738   8.619  11.673 -0.0971  0.0426 -0.0463
 4431W        W21955   6.041   6.887   0.206 -0.0638 -0.0434  0.0019
 4432W        W21956   7.376   6.006  14.502  0.0715 -0.1375  0.1698
 4433W        W21957   1.702   9.112   4.967  0.0963 -0.3246 -0.1345
 4434W        W21958   8.239  12.377  12.696 -0.0427  0.1474  0.0449
 4435W        W21959   8.064  15.073   4.385  0.0707  0.1053  0.0339
 4436W        W21960   0.877   3.788   2.217 -0.2645  0.1357  0.2531
 4437W        W21961   0.330   4.678   1.268  0.2888 -0.2100 -0.4457
 4438W        W21962  10.099  10.395  12.212  0.1243  0.3867  0.1244
 4439W        W21963   0.900   8.077  14.460 -0.1582  0.0936 -0.0773
 4440W        W21964   9.987   3.672   2.681 -0.1539  0.0633 -0.2435
 4441W        W21965  10.153   4.945  13.062  0.2741 -0.0030  0.2049
 4442W        W21966   1.554   3.917   3.049  0.2346  0.2575 -0.0898
 4443W        W21967  14.351  16.253   5.116 -0.1557  0.0518 -0.2859
 4444W        W21968  14.611  18.371  14.585 -0.0365  0.0702 -0.0035
 4445W        W21969   2.287   9.736   4.545 -0.2095 -0.0809 -0.1878
 4446W        W21970   8.067   9.989  12.584  0.3865  0.0152 -0.2217
 4447W        W21971   6.344   4.416  14.573  0.1002 -0.2158 -0.3259
 4448W        W21972  11.855   7.011   2.813 -0.0975 -0.0026  0.0073
 4449W        W21973  17.186  13.859   1.460 -0.0335 -0.3812 -0.0808
 4450W        W21974   6.362   2.345  11.530 -0.0419  0.3499 -0.1779
 4451W        W21975   3.491   3.476  12.386 -0.1487 -0.1278  0.0162
 4452W        W21976  17.416  13.974   2.362  0.2634  0.0868 -0.1078
 4453W        W21977  16.642  15.899  13.597  0.0142  0.1549  0.2763
 4454W        W21978   0.333   3.650   3.657 -0.1503 -0.1280  0.2469
 4455W        W21979  17.904  13.625  13.820 -0.0383 -0.0331  0.6015
 4456W        W21980   1.381  18.265  15.445  0.1098  0.0114  0.0047
 4457W        W21981   5.744   0.144   2.013  0.1508  0.1658  0.2604
 4458W        W21982   3.315   9.881   4.366  0.0682  0.2113  0.0634
 4459W        W21983  14.379   1.682   2.555 -0.2166 -0.0497  0.0895
 4460W        W21984   0.264   5.886  11.773  0.1120  0.0245  0.0955
 4461W        W21985  12.704   5.927   3.987 -0.0088  0.0021 -0.3375
 4462W        W21986   6.745  12.361  13.431  0.1403  0.0963  0.0942
 4463W        W21987  11.936  17.693   3.919  0.2832  0.3965 -0.3167
 4464W        W21988   9.358  11.446   3.332  0.3240 -0.0165  0.0009
 4465W        W21989  10.227  14.054  13.778 -0.1176  0.2404  0.0567
 4466W        W21990   3.360   2.968   4.356  0.1572 -0.2138  0.0036
 4467W        W21991  16.862  11.339   0.524  0.0878  0.1678 -0.2439
 4468W        W21992  16.606  16.295   4.059  0.0843  0.3152 -0.2374
 4469W        W21993   5.010  17.498  13.602  0.1285  0.3631  0.3650
 4470W        W21994  15.138   0.068   2.790  0.2124  0.2964 -0.1626
 4471W        W21995  11.450  17.970   4.126  0.5062 -0.1933  0.0547
 4472W        W21996   7.797  10.702  14.635 -0.0476  0.2893 -0.0683
 4473W        W21997  11.335  16.429  13.972  0.2730 -0.1970  0.0657
 4474W        W21998  16.660  10.675  14.673  0.0513  0.3183 -0.2919
 4475W        W21999   2.505  12.478   1.634  0.0651 -0.1780  0.2361
 4476W        W22000  11.215   6.924   4.018  0.4024 -0.2581 -0.2677
 4477W        W22001  17.691  18.211  11.399  0.1956 -0.0670 -0.0141
 4478W        W22002  11.880   8.555   3.617  0.0379 -0.2960  0.0553
 4479W        W22003   1.649   2.494   2.520 -0.2009  0.0355  0.0019
 4480W        W22004   5.865  18.142   1.233 -0.0174 -0.0637  0.0708
 4481W        W22005   5.748   0.418  15.063  0.1080  0.2826  0.1415
 4482W        W22006   7.949   4.141  14.927 -0.1830 -0.1009 -0.0838
 4483W        W22007   4.011   9.067   3.438 -0.4081 -0.0757 -0.0217
 4484W        W22008  16.040   2.688  12.932 -0.3486 -0.3244  0.3615
 4485W        W22009  14.502   6.620   0.802  0.1240  0.0488 -0.0621
 4486W        W22010   3.393  10.182  14.524  0.1494 -0.4607 -0.1094
 4487W        W22011   5.132   4.728  14.200 -0.0661 -0.1944 -0.0694
 4488W        W22012   6.739  15.455  13.978  0.3414 -0.1261 -0.2329
 4489W        W22013   5.322   5.977   3.918  0.0266 -0.0309  0.1660
 4490W        W22014  18.342   0.923   3.032 -0.1757 -0.2678  0.0460
 4491W        W22015  11.036  11.757  15.770  0.1837  0.3291 -0.2648
 4492W        W22016   7.993   0.622  14.917  0.1411 -0.1504  0.0372
 4493W        W22017   8.615  10.388   4.426 -0.0782 -0.1242  0.0773
 4494W        W22018   3.407  12.272   1.675  0.3467 -0.0259 -0.5196
 4495W        W22019   6.338   2.768  15.639 -0.0672 -0.1100  0.0107
 4496W        W22020   8.741   5.434  15.219  0.0223  0.1846  0.1001
 4497W        W22021   0.788   6.460   3.014 -0.0094  0.0418 -0.1164
 4498W        W22022   2.257  15.264   3.470  0.2120  0.0904 -0.0377
 4499W        W22023   4.586   4.739   0.885 -0.0290  0.1072 -0.1782
 4500W        W22024   1.766   8.308  12.265 -0.1662  0.1695  0.0260
 4501W        W22025  13.079  10.232  13.918 -0.1396  0.0653 -0.1656
 4502W        W22026   8.751  13.810   1.522  0.0736  0.1267 -0.1271
 4503W        W22027  13.586   1.984   1.521 -0.0673 -0.1363  0.1938
 4504W        W22028   8.690  12.191  12.512 -0.3431  0.2212  0.1679
 4505W        W22029   8.987   9.196   4.679  0.0206 -0.1437 -0.1553
 4506W        W22030   3.348  10.989   4.046  0.0126 -0.1192 -0.3032
 4507W        W22031   2.801  16.935  14.845  0.3001  0.0842 -0.2783
 4508W        W22032   7.626  16.019   4.453 -0.0590 -0.0468 -0.1891
 4509W        W22033  17.729   2.473  15.039 -0.1860  0.0223 -0.1061
 4510W        W22034   9.005  16.738  15.602 -0.1730 -0.2301  0.0662
 4511W        W22035   8.134   1.785   4.583  0.3022  0.3646 -0.1418
 4512W        W22036   1.743  15.569   1.271 -0.1175 -0.0861 -0.0165
 4513W        W22037   6.652  16.340  14.384 -0.1513  0.1773 -0.1092
 4514W        W22038  15.418  11.950  15.498 -0.0497  0.0289 -0.2681
 4515W        W22039   8.887  11.657  13.195 -0.1153  0.5752  0.1005
 4516W        W22040   5.740   2.250   9.945  0.2817  0.1028  0.0937
 4517W        W22041   2.773  11.316  13.135 -0.2542 -0.2966  0.1742
 4518W        W22042  11.739  12.447  10.679  0.1155  0.2351  0.0853
 4519W        W22043  11.752  15.942   3.986  0.0671 -0.1683  0.1284
 4520W        W22044  12.181  10.702   0.981 -0.0902 -0.0309  0.3218
 4521W        W22045   2.716   7.119  15.856 -0.1181 -0.0370  0.0562
 4522W        W22046  12.287  17.817   2.147  0.1339  0.0820  0.1638
 4523W        W22047  16.611   3.840  14.239  0.3801  0.1012 -0.2015
 4524W        W22048  15.224   7.756  15.111 -0.1929  0.1422  0.3911
 4525W        W22049  17.395  15.578  12.593 -0.1039  0.2126  0.1588
 4526W        W22050   4.819   1.541  15.011 -0.0055 -0.0679  0.0929
 4527W        W22051   7.244   2.903   0.968  0.0692  0.0753 -0.0179
 4528W        W22052   0.434  12.533   2.776 -0.2165  0.2064  0.0425
 4529W        W22053   8.462   3.878   0.540  0.3165 -0.1657  0.0848
 4530W        W22054  10.639   8.018   2.417  0.3047  0.0653  0.2029
 4531W        W22055  15.004   5.737  14.054  0.2696 -0.3581  0.3348
 4532W        W22056  15.318   2.147  14.618  0.1485 -0.1908 -0.1661
 4533W        W22057   0.935  15.643   0.119 -0.3325 -0.2352  0.1809
 4534W        W22058  11.899   3.196   0.646  0.0058  0.0850 -0.0013
 4535W        W22059  17.876  17.764   0.097  0.0141  0.0301  0.4684
 4536W        W22060   8.005   6.612   0.747 -0.1293  0.1481  0.3073
 4537W        W22061   7.839  15.121   2.985 -0.3085 -0.1154 -0.0653
 4538W        W22062  14.819   6.158  14.923 -0.0220 -0.0753  0.0052
 4539W        W22063  16.426  15.444   5.219 -0.0201  0.1082 -0.0424
 4540W        W22064  12.127  15.936  10.628 -0.0780 -0.4706 -0.2153
 4541W        W22065   5.345   4.773   1.092 -0.2644  0.0248 -0.0220
 4542W        W22066  13.879   8.808   2.608 -0.1167 -0.0952 -0.2266
 4543W        W22067   7.814   5.899  11.823 -0.1471  0.4907  0.1781
 4544W        W22068  17.339   4.845   4.766  0.0624  0.0312  0.3667
 4545W        W22069  11.111  16.827  13.034  0.0472  0.1312 -0.0821
 4546W        W22070   8.668   0.256  13.548 -0.0912 -0.0036 -0.1060
 4547W        W22071  14.774   0.102  11.472 -0.0242  0.1117 -0.3787
 4548W        W22072  17.344  16.887  13.789  0.1524 -0.2087  0.3013
 4549W        W22073   8.893  10.440  11.221 -0.2449 -0.0617 -0.0716
 4550W        W22074   3.819  12.528  11.198  0.1353 -0.1251  0.2504
 4551W        W22075  13.041  10.543   3.814  0.2960  0.2114 -0.0434
 4552W        W22076  11.347  15.886   1.589 -0.1708 -0.4132  0.1513
 4553W        W22077   1.343   1.383   3.915 -0.0293 -0.0067  0.1388
 4554W        W22078   0.391  16.148  15.737  0.0644 -0.2407 -0.0716
 4555W        W22079   0.427  14.729   3.161  0.0986  0.3356 -0.3560
 4556W        W22080   2.701  10.384  13.573 -0.3387 -0.1698 -0.3880
 4557W        W22081   4.346  16.948  11.085  0.1059  0.1773  0.1618
 4558W        W22082   8.095  18.380   3.417 -0.1040 -0.2897 -0.2861
 4559W        W22083  13.036   7.157   3.699  0.2785  0.0948 -0.3685
 4560W        W22084   1.416   4.492   2.987 -0.0044  0.2203  0.0209
 4561W        W22085  12.731  15.661   1.837 -0.3077  0.1542  0.1011
 4562W        W22086  12.843  13.290  13.038  0.0486 -0.2291  0.0158
 4563W        W22087  17.011  16.273  14.831 -0.0916  0.1787  0.1221
 4564W        W22088   2.624  11.701   2.075 -0.0142  0.3065  0.2352
 4565W        W22089   1.389   4.202  15.081  0.0002  0.1944 -0.4553
 4566W        W22090  13.822   0.925   3.454 -0.1992 -0.1326 -0.0741
 4567W        W22091  10.683   0.479  15.202  0.2338 -0.2943 -0.4932
 4568W        W22092   1.760   4.251  12.650 -0.3137  0.3417  0.2970
 4569W        W22093   4.012   4.414  11.250 -0.1319 -0.3760  0.2485
 4570W        W22094  17.268   4.898  13.729 -0.0225 -0.1635  0.2583
 4571W        W22095  10.521   8.811   3.447 -0.2286  0.2348 -0.2722
 4572W        W22096   5.119  10.310   3.422 -0.3330  0.1547  0.1622
 4573W        W22097  16.682   8.942  14.529  0.1736  0.1102  0.0188
 4574W        W22098   9.690   7.457   0.220  0.0032 -0.1977  0.2745
 4575W        W22099   7.241   8.404  13.154  0.2713 -0.0662 -0.0904
 4576W        W22100  14.828  16.004  11.221  0.1924  0.0710 -0.2467
 4577W        W22101   3.250  14.662  11.271  0.1329  0.1276  0.0797
 4578W        W22102   7.683   5.341   1.960 -0.2046 -0.1256 -0.0338
 4579W        W22103  17.931  14.061   2.376  0.0839  0.0651 -0.1177
 4580W        W22104  16.606  15.430   2.171 -0.1035 -0.0611 -0.0605
 4581W        W22105   2.822  10.843  13.915 -0.0439  0.1695  0.0210
 4582W        W22106  10.814  14.954   0.796 -0.0999  0.0137  0.1896
 4583W        W22107  16.799   5.113   4.116 -0.1130 -0.0122 -0.1583
 4584W        W22108  14.372  15.686  14.989 -0.1129 -0.1900  0.1610
 4585W        W22109   9.724  10.458  14.669 -0.0058 -0.0553  0.2280
 4586W        W22110  17.850  14.103  10.119 -0.0835  0.1005 -0.0914
 4587W        W22111  17.751   9.815   2.780 -0.1398  0.0794  0.0757
 4588W        W22112  13.886   2.603   3.077  0.0051  0.0456  0.1130
 4589W        W22113   1.544  13.818  11.727  0.3919 -0.0997 -0.0909
 4590W        W22114   6.362   9.868  11.122  0.4836  0.3865 -0.1444
 4591W        W22115   8.334  13.737   4.424 -0.2411  0.0361  0.0053
 4592W        W22116   4.874  15.575   0.579 -0.1155 -0.1886 -0.0541
 4593W        W22117  14.427   4.401   2.162 -0.1827 -0.2717  0.0947
 4594W        W22118   8.224   9.201   0.161  0.2243 -0.1296 -0.1105
 4595W        W22119  12.072   5.269  14.355 -0.1617 -0.0680  0.0892
 4596W        W22120  14.634  14.747  15.449 -0.0659 -0.0695 -0.0707
 4597W        W22121  13.725   6.914   3.891 -0.0090  0.2564 -0.0990
 4598W        W22122  11.231   9.944  11.702  0.0731 -0.1651 -0.4017
 4599W        W22123  12.898   1.199   4.555  0.1727 -0.0598 -0.1525
 4600W        W22124  12.460   9.093   1.954  0.1335  0.1483  0.0121
 4601W        W22125   6.875   6.267  13.154  0.1845  0.3120  0.0226
 4602W        W22126  14.116  11.978   4.834  0.0545 -0.0677  0.0099
 4603W        W22127   2.657  12.830   0.156 -0.0124  0.0406  0.0752
 4604W        W22128   7.556   3.914  14.702 -0.0833 -0.0841 -0.1777
 4605W        W22129  13.982   3.459  13.830 -0.1112 -0.1476  0.1130
 4606W        W22130  11.247   5.816  12.536 -0.1980 -0.1978  0.2526
 4607W        W22131  18.149   1.728   1.338  0.0868 -0.1708 -0.0912
 4608W        W22132  12.981   5.745   5.163 -0.1460 -0.1252  0.2019
 4609W        W22133   4.008  14.836   0.143  0.1834  0.0003 -0.0752
 4610W        W22134  17.241  15.518  15.119  0.2377 -0.0634  0.4204
 4611W        W22135  13.357  13.855   4.101 -0.2341 -0.1710  0.4389
 4612W        W22136  10.101   3.540   3.632 -0.1626 -0.2521  0.2110
 4613W        W22137  11.017  11.296   1.840 -0.1364 -0.3339 -0.2370
 4614W        W22138   8.313   9.905  11.605  0.2881 -0.0618 -0.0651
 4615W        W22139   8.949  15.707  13.501 -0.0484  0.1817  0.0682
 4616W        W22140  11.780  10.400   0.384  0.2858  0.1410 -0.2416
 4617W        W22141   5.541  14.653  13.634 -0.3001 -0.0086 -0.2814
 4618W        W22142   7.126   2.967  12.440  0.0581  0.0224 -0.1843
 4619W        W22143   2.540  17.708  11.122 -0.0577  0.0856  0.0350
 4620W        W22144   2.225  10.283   2.554 -0.0150  0.0566  0.0395
 4621W        W22145  15.573   0.659   1.876 -0.3451  0.2444 -0.0908
 4622W        W22146  15.668  13.261  15.303  0.1209 -0.1204 -0.3856
 4623W        W22147  14.235  12.680   0.450 -0.1772  0.1400 -0.1104
 4624W        W22148  16.755   7.159   2.544  0.0935 -0.0667  0.3891
 4625W        W22149   4.844   9.525   0.167  0.6309  0.2407 -0.1099
 4626W        W22150   4.447  16.753   3.178  0.0733 -0.1097  0.0388
 4627W        W22151   8.458  15.809   1.899 -0.1471 -0.1748  0.2063
 4628W        W22152  12.164   7.550   2.879 -0.0073 -0.0167 -0.0618
 4629W        W22153   9.712  15.523   5.390  0.2671  0.2038 -0.0633
 4630W        W22154   6.836   5.576   1.520  0.2256  0.1718 -0.0916
 4631W        W22155  10.956   4.572  13.490 -0.0067 -0.0173 -0.2261
 4632W        W22156  17.350  13.290   4.883  0.1109  0.1166  0.1215
 4633W        W22157  15.682  10.722  15.170  0.2145  0.0295 -0.0140
 4634W        W22158   1.934   3.421   2.973  0.0342  0.1391  0.0375
 4635W        W22159  11.937   9.366   0.710 -0.2960  0.0913 -0.1265
 4636W        W22160   0.648  15.740  11.680 -0.2023 -0.0762 -0.0921
 4637W        W22161   2.788  11.317  10.384  0.1038  0.2387  0.2380
 4638W        W22162   9.795   2.137   2.658  0.1833  0.0989 -0.2364
 4639W        W22163  11.410   8.815  12.500  0.0734  0.1087  0.0236
 4640W        W22164   9.650   3.347   2.298  0.2563  0.0515 -0.1192
 4641W        W22165  15.581  15.867  12.718  0.0344  0.4173  0.1214
 4642W        W22166  14.981   7.056   0.967 -0.2725  0.1053  0.3888
 4643W        W22167  13.512   2.395  14.815 -0.1716  0.0748  0.0591
 4644W        W22168  11.490  12.917   5.257  0.4568  0.2467  0.0797
 4645W        W22169   8.308  17.229  15.286  0.0014  0.3635  0.2299
 4646W        W22170   1.719   2.710  12.064 -0.2791 -0.0186 -0.3682
 4647W        W22171  15.823  17.745   2.063 -0.0772 -0.0054  0.0327
 4648W        W22172   6.962   7.045  11.697  0.0102 -0.1014 -0.1992
 4649W        W22173   0.211  15.255   1.062  0.2508 -0.1749 -0.2453
 4650W        W22174   2.490   2.044  13.922  0.2443  0.1965  0.1334
 4651W        W22175   1.263  12.814  11.185  0.1632 -0.0568  0.0841
 4652W        W22176   3.536   1.363  13.367 -0.2492 -0.2202  0.1932
 4653W        W22177   7.522   9.742  11.994  0.0495  0.0990  0.2175
 4654W        W22178  16.547   5.146   0.051 -0.2624  0.0112  0.4239
 4655W        W22179  16.345   9.164   3.089  0.0103 -0.1855  0.1562
 4656W        W22180  18.241   3.006   0.010  0.3337  0.0493  0.0668
 4657W        W22181  10.388  10.726   4.144 -0.1265 -0.0529  0.0122
 4658W        W22182   4.118   9.464   3.148  0.1471  0.0295 -0.0030
 4659W        W22183   6.755   1.198   5.010 -0.0472 -0.1507  0.1357
 4660W        W22184   6.964  12.050  12.126 -0.0838  0.1382 -0.2638
 4661W        W22185   8.404   8.321   4.369 -0.1368  0.1076  0.1645
 4662W        W22186  16.344   7.778  15.118  0.3558 -0.2067  0.0231
 4663W        W22187   1.581   4.258  10.272  0.1783  0.0375 -0.4235
 4664W        W22188  14.984   2.264   3.885 -0.1105  0.0663  0.3419
 4665W        W22189   5.669   7.380  12.056 -0.3221 -0.0581  0.1888
 4666W        W22190   9.507  15.916   5.233 -0.0730 -0.1390  0.1170
 4667W        W22191  14.633   3.385  11.075 -0.3056 -0.0213 -0.3611
 4668W        W22192   2.456  10.360  12.218 -0.0203 -0.3124  0.1563
 4669W        W22193  15.312   9.373   2.437  0.1518 -0.0153 -0.0057
 4670W        W22194  16.061   8.603  11.166 -0.0645  0.2643  0.0753
 4671W        W22195   3.568  15.128   2.969 -0.1812  0.0799  0.0469
 4672W        W22196  17.028  14.262  15.140 -0.0871 -0.1804  0.0768
 4673W        W22197   6.834   2.052  11.619  0.1974  0.4516 -0.0277
 4674W        W22198  15.711  12.510  14.860  0.0059  0.1112  0.2097
 4675W        W22199  17.252   9.651   2.919  0.0548  0.0096  0.0640
 4676W        W22200  17.119  16.765  13.332  0.1137 -0.0770  0.1173
 4677W        W22201  15.228  16.591   0.473 -0.2469  0.0629  0.3562
 4678W        W22202  10.877   6.217  12.756  0.0145 -0.0736 -0.3109
 4679W        W22203   9.516   6.516  13.996 -0.0988 -0.1446  0.0819
 4680W        W22204   4.369   7.615  15.380 -0.1009 -0.2105 -0.1657
 4681W        W22205  11.157   3.954  15.000  0.2404  0.1433 -0.3177
 4682W        W22206  17.741   3.647   3.808  0.2000 -0.2974 -0.3283
 4683W        W22207  15.132   6.427  13.715  0.0085 -0.2508  0.0930
 4684W        W22208   4.142   5.270   5.310  0.0342  0.0548 -0.1595
 4685W        W22209   7.356   6.946  14.978 -0.1220  0.1241  0.5125
 4686W        W22210   8.565   6.704   4.443 -0.0136 -0.0008  0.0108
 4687W        W22211   7.899  16.303  11.657 -0.0441  0.4009 -0.2736
 4688W        W22212  14.815  15.140  14.657  0.2566  0.1682 -0.5204
 4689W        W22213   8.987   3.796   2.735  0.0835  0.1533  0.1363
 4690W        W22214   2.493   2.974  10.935 -0.1822 -0.0883  0.0458
 4691W        W22215  11.035  16.728   3.440  0.1342 -0.0952  0.0010
 4692W        W22216   7.254   2.384   0.082 -0.3161 -0.0006 -0.1056
 4693W        W22217  11.087   9.750  11.213 -0.0184  0.0635 -0.0243
 4694W        W22218  18.147  13.612  14.902 -0.4453 -0.2067  0.0284
 4695W        W22219   9.085  10.535   3.072 -0.1032 -0.0650  0.0398
 4696W        W22220  18.333  14.016   0.646  0.0200 -0.1024  0.3085
 4697W        W22221  11.510   4.379   2.881  0.1475  0.0643 -0.0689
 4698W        W22222  10.446  12.685  12.677 -0.0725 -0.2229 -0.0639
 4699W        W22223   1.758   7.858   3.288  0.0465  0.0380 -0.0117
 4700W        W22224  15.280  10.963   1.137  0.0781 -0.0025 -0.0134
 4701W        W22225   7.308   0.475  14.251 -0.1524 -0.1877 -0.0458
 4702W        W22226   6.435   6.927   1.322  0.1338  0.0592 -0.0226
 4703W        W22227  14.402  12.185   4.404  0.1825  0.2905 -0.2751
 4704W        W22228   2.413  15.831  13.716  0.0759  0.4469  0.1079
 4705W        W22229  12.147   8.603   1.123  0.3564  0.3298 -0.4889
 4706W        W22230   5.588  13.127  11.099 -0.1132  0.1290  0.0471
 4707W        W22231   9.292  13.132   4.027  0.0609 -0.0973  0.1639
 4708W        W22232  15.590  10.069  11.181  0.3857 -0.2454  0.0434
 4709W        W22233   5.276   9.646   2.799 -0.2205 -0.2434  0.0287
 4710W        W22234   1.750   6.467   3.463  0.1078  0.1795 -0.0848
 4711W        W22235  14.881   1.799   0.109 -0.0492 -0.1926  0.0543
 4712W        W22236   4.674   8.965  11.578  0.0677 -0.0308  0.1906
 4713W        W22237  17.738  16.045  12.711  0.1779  0.0164  0.1997
 4714W        W22238   2.153  16.981   1.442  0.3671  0.1581 -0.1867
 4715W        W22239   1.840   4.791   2.771  0.1420 -0.0556  0.2301
 4716W        W22240   0.806   7.842   1.586 -0.2657  0.2880 -0.1199
 4717W        W22241  12.276  11.329   1.142 -0.0836  0.0980  0.2630
 4718W        W22242   1.544   7.065  13.208  0.3536  0.0564 -0.0331
 4719W        W22243   1.906   8.004   2.356  0.0545 -0.1706 -0.0556
 4720W        W22244   6.077   6.740  13.952 -0.2378 -0.0582 -0.0666
 4721W        W22245   9.516  10.516   3.843 -0.1385 -0.2546 -0.2763
 4722W        W22246  10.579   1.074  10.417 -0.1749  0.0711 -0.1777
 4723W        W22247  12.846  15.327  11.570  0.1121  0.0636  0.0469
 4724W        W22248  17.979  13.068   4.301  0.0265 -0.0365  0.3057
 4725W        W22249   8.068   6.104  13.108  0.3662  0.0289  0.1175
 4726W        W22250  12.708   5.438  13.930  0.2718 -0.3340  0.0460
 4727W        W22251   0.078   5.994   4.721  0.3409  0.3728  0.2032
 4728W        W22252   3.140  10.475  14.139  0.1301  0.0186  0.1701
 4729W        W22253  11.732   6.520  13.979  0.1392  0.3948  0.1315
 4730W        W22254   6.166   6.705  13.485  0.1909 -0.3398 -0.0791
 4731W        W22255  12.990   5.025  14.843  0.0304  0.1843  0.1254
 4732W        W22256  10.177  17.308   4.076  0.2097 -0.2632 -0.0169
 4733W        W22257   2.590  14.166   4.418  0.0666 -0.0067 -0.1518
 4734W        W22258  10.353   1.853  15.046 -0.1263  0.3270 -0.1068
 4735W        W22259  14.400  12.709   2.896 -0.2175 -0.1698 -0.1493
 4736W        W22260   3.366   8.877   4.204  0.1633 -0.0385 -0.0719
 4737W        W22261   4.658   9.625   1.614  0.0172  0.1096  0.1635
 4738W        W22262  13.482   1.255  15.506 -0.2045  0.4613  0.2935
 4739W        W22263   6.931   9.292  11.622  0.2767 -0.0992 -0.1469
 4740W        W22264  15.401   1.880   0.961 -0.1779 -0.0231  0.1052
 4741W        W22265   8.930   1.165   3.759 -0.0958  0.2438  0.0286
 4742W        W22266  16.175   0.292  12.042  0.0360  0.2515  0.1208
 4743W        W22267  10.283   7.444  11.698 -0.1917  0.3162  0.4577
 4744W        W22268  13.217  15.691   3.580  0.3164  0.1786  0.0216
 4745W        W22269  15.103   4.303  10.980  0.0724  0.0141  0.1325
 4746W        W22270   8.615   9.243   5.844 -0.0713  0.0245 -0.3169
 4747W        W22271  16.002   4.282   4.125 -0.0415 -0.1190  0.1116
 4748W        W22272   3.285   9.530  14.170 -0.2294  0.1302  0.1731
 4749W        W22273   3.446  13.162   3.571  0.1680 -0.1993 -0.1552
 4750W        W22274  13.256  17.298   5.275  0.1104 -0.2603  0.0393
 4751W        W22275   1.379  12.218  11.644 -0.3974  0.1271 -0.2204
 4752W        W22276  15.343   9.792  11.918  0.0759 -0.0106  0.1728
 4753W        W22277   5.549   6.614  12.485 -0.0290  0.3227  0.0923
 4754W        W22278   5.978   6.336  12.155  0.0347  0.1152 -0.2543
 4755W        W22279   2.032   3.713  12.974  0.0517 -0.1469 -0.0826
 4756W        W22280   4.479   5.351   3.492 -0.0877  0.2069  0.1484
 4757W        W22281   5.289   0.074   4.824  0.3148 -0.0232  0.3490
 4758W        W22282  14.508  13.696   2.716  0.2599  0.3602 -0.0512
 4759W        W22283   2.654  16.881   0.441  0.0556  0.2515  0.0074
 4760W        W22284   5.292  12.400  15.350 -0.0589 -0.2626 -0.2441
 4761W        W22285  15.126   2.718   1.043 -0.2334  0.1425  0.1014
 4762W        W22286  17.182   3.046   3.828  0.0520 -0.1663  0.1326
 4763W        W22287  12.739   4.636   1.446  0.0325  0.4020 -0.0608
 4764W        W22288   8.433   1.764   3.938  0.1432  0.0566 -0.1655
 4765W        W22289   5.522   6.418   1.108  0.2783  0.0069  0.4630
 4766W        W22290  13.593  11.116  15.673  0.6375 -0.0062 -0.0611
 4767W        W22291  11.943   0.108  11.486 -0.1079 -0.0608 -0.0113
 4768W        W22292   7.345   4.688   0.831  0.2639 -0.1362 -0.1004
 4769W        W22293  14.064   4.639  12.258 -0.1440  0.0846  0.0663
 4770W        W22294  13.817  18.300   2.151 -0.1227  0.2756 -0.1358
 4771W        W22295  11.021   7.388   2.220 -0.1313 -0.1501  0.2831
 4772W        W22296   4.083  10.266   3.878 -0.1118 -0.0566 -0.2077
 4773W        W22297  10.992   3.415   2.192  0.2467 -0.2053 -0.2414
 4774W        W22298  10.819  14.573   5.012  0.0978 -0.0883 -0.0993
 4775W        W22299   9.834  13.098  11.887 -0.1932 -0.1858 -0.0011
 4776W        W22300  14.395   9.999  12.848  0.0459 -0.0656  0.1783
 4777W        W22301   9.572   4.249  14.874  0.1024  0.1119  0.1598
 4778W        W22302  12.706   4.246   2.390  0.1858 -0.0725 -0.1448
 4779W        W22303  15.350  12.413   3.872  0.1462  0.0936 -0.0655
 4780W        W22304   5.986  17.868  11.283  0.1772  0.3316  0.2236
 4781W        W22305  15.413   8.621  15.416 -0.0941  0.0104  0.1881
 4782W        W22306   9.174  16.353   4.932  0.1834  0.1444 -0.0474
 4783W        W22307   3.776   4.246  10.560  0.1413 -0.0591  0.0436
 4784W        W22308   0.596   3.626  13.271 -0.0443  0.3779 -0.0519
 4785W        W22309  17.871   2.037  15.360 -0.0163  0.0372 -0.2027
 4786W        W22310   6.596  15.735   3.744 -0.2505  0.2620 -0.1297
 4787W        W22311  15.642   0.079  15.311 -0.1278  0.0344  0.3290
 4788W        W22312  16.701   3.097   3.576  0.0339 -0.2182 -0.1775
 4789W        W22313   6.302   8.473   3.479  0.1972 -0.1079 -0.1669
 4790W        W22314   6.065   3.071  12.697 -0.1816  0.0673  0.1036
 4791W        W22315  15.653  10.895   1.481  0.1672  0.1685  0.0395
 4792W        W22316   0.284  10.873  14.809  0.2441 -0.0035 -0.2558
 4793W        W22317   8.732   1.590   0.556  0.0133  0.1287  0.0479
 4794W        W22318  11.946   6.841  13.018  0.0668  0.0041 -0.2990
 4795W        W22319  10.245   7.436  13.390  0.0833 -0.1273  0.0170
 4796W        W22320   5.077  15.148   1.311  0.1204  0.0330  0.0154
 4797W        W22321   3.657  14.138  11.550  0.0693  0.0471 -0.1808
 4798W        W22322  14.883   5.754   0.333 -0.0894 -0.0769  0.3576
 4799W        W22323   3.017  10.242   4.141  0.0154  0.0385 -0.1286
 4800W        W22324   7.422  15.635   4.192 -0.3873  0.1082 -0.4752
 4801W        W22325   1.500  11.612  12.486  0.3482 -0.1075  0.1337
 4802W        W22326  17.592  14.032  14.135  0.1500  0.2292 -0.0962
 4803W        W22327  15.380  10.535   0.878  0.0368  0.0754 -0.0816
 4804W        W22328  15.028  15.527   1.890 -0.0746  0.1475 -0.0895
 4805W        W22329   8.394   7.903  10.908  0.2756 -0.0269  0.0329
 4806W        W22330   0.207   2.693   2.898 -0.2384  0.0530 -0.0408
 4807W        W22331   2.289  12.757  15.154  0.0100 -0.1102  0.0380
 4808W        W22332   9.455  18.083  12.827  0.1094 -0.1684 -0.0143
 4809W        W22333   3.416   8.325  15.101  0.1728 -0.2237 -0.0495
 4810W        W22334   3.409   7.285   3.731  0.1881 -0.0602 -0.0203
 4811W        W22335  15.054   6.604   0.710  0.0347  0.0077 -0.2520
 4812W        W22336  13.815  18.302  15.256  0.0715  0.3583 -0.4285
 4813W        W22337   0.132  16.340   3.247  0.3161  0.0546  0.5221
 4814W        W22338   2.847  10.711   0.863 -0.3323 -0.3425  0.3216
 4815W        W22339   0.714  12.062   3.282 -0.0104  0.4991 -0.1814
 4816W        W22340   7.364   2.987   1.496 -0.2107 -0.0580 -0.1428
 4817W        W22341  14.988   4.430  14.488  0.0567  0.1566  0.0833
 4818W        W22342   6.020  13.267   3.447  0.0733  0.0783  0.0020
 4819W        W22343   8.363  15.212   1.897  0.0648 -0.0673  0.1499
 4820W        W22344   8.373  10.057   1.750 -0.2040 -0.1370 -0.0270
 4821W        W22345   0.455  10.712   3.289 -0.0175 -0.0119  0.3539
 4822W        W22346  16.163   9.233  13.642 -0.1377  0.0589  0.1434
 4823W        W22347   8.004   1.508   3.996  0.1003  0.1908  0.0889
 4824W        W22348   8.472  10.484  11.570 -0.1816 -0.0252  0.1016
 4825W        W22349   6.790   4.320  13.121 -0.1577 -0.0849  0.1408
 4826W        W22350  15.512   1.057   3.805 -0.0731 -0.2187 -0.1966
 4827W        W22351  15.814  12.777   5.046 -0.3008 -0.0916 -0.4216
 4828W        W22352  14.314  13.676   4.050  0.1793 -0.3335 -0.0811
 4829W        W22353   0.142  12.202  13.119  0.1544  0.2507  0.0195
 4830W        W22354  16.289  12.673   3.590 -0.0983  0.4286 -0.0158
 4831W        W22355  10.676   4.954   5.388  0.2474  0.1599  0.0153
 4832W        W22356   8.280  17.849   4.849 -0.0782  0.0530  0.1825
 4833W        W22357  15.459  14.386   3.746  0.1817  0.1383 -0.3311
 4834W        W22358   7.976   7.916  15.230 -0.1073  0.1094  0.1554
 4835W        W22359   8.832  11.407  12.553 -0.0586  0.1160 -0.2187
 4836W        W22360  14.562  12.926  15.431  0.1371  0.4413  0.1008
 4837W        W22361  14.522   6.447  12.263  0.1278 -0.1204  0.0297
 4838W        W22362  10.425  11.568  11.375  0.2526  0.0084  0.1221
 4839W        W22363  18.004  16.558   0.178 -0.1988 -0.2128 -0.1792
 4840W        W22364   0.948   9.742   2.736 -0.2461  0.3694  0.0516
 4841W        W22365   9.628   9.663   3.763 -0.1225 -0.1897 -0.0770
 4842W        W22366   5.849  10.787  10.829 -0.1502  0.1460 -0.1437
 4843W        W22367   0.842   9.349  14.088 -0.1926 -0.0313  0.0147
 4844W        W22368   4.935   8.475   0.003 -0.2940 -0.1888  0.0132
 4845W        W22369  11.221   7.975  12.444 -0.1621  0.0857  0.0737
 4846W        W22370   1.534  16.770  12.009  0.0151  0.0677  0.0196
 4847W        W22371  11.131   8.381  14.735  0.2023 -0.1258 -0.1117
 4848W        W22372   4.558  14.569  13.668  0.1261 -0.4595 -0.2070
 4849W        W22373   1.786   0.968  15.728  0.0414  0.5212 -0.1248
 4850W        W22374  15.583  14.519   2.377  0.0377 -0.0400  0.3921
 4851W        W22375  15.664   7.985   1.374 -0.0499 -0.0387 -0.1197
 4852W        W22376  16.210   9.878  15.139  0.0169  0.2784 -0.1010
 4853W        W22377   7.698   5.880   0.315  0.0211  0.1259  0.1040
 4854W        W22378   5.912   4.489  14.321 -0.1440 -0.4769 -0.2650
 4855W        W22379  17.620  18.040   2.205 -0.1581 -0.1456  0.4059
 4856W        W22380  16.128   2.642   1.067  0.1600 -0.1275 -0.0434
 4857W        W22381  11.638  14.077  13.117  0.0558  0.2464  0.4539
 4858W        W22382  14.702   4.370   0.485 -0.1270 -0.1913  0.3374
 4859W        W22383   0.446   2.163   5.588  0.1004 -0.0246 -0.0143
 4860W        W22384  13.609  15.917   5.197  0.0292 -0.2755  0.2263
 4861W        W22385   6.420   3.826   0.040  0.1763 -0.1879 -0.1437
 4862W        W22386   2.829   9.020   4.258  0.3047  0.1346 -0.3037
 4863W        W22387   3.897   8.561  14.434  0.1511  0.3141  0.0844
 4864W        W22388   2.001  13.753  11.567  0.0072 -0.1300  0.0577
 4865W        W22389  10.242  10.072   3.555 -0.2182 -0.0666  0.1781
 4866W        W22390   3.019  16.129  12.986 -0.2184 -0.2957 -0.2137
 4867W        W22391   2.227   5.586  15.533  0.2436  0.1358  0.1371
 4868W        W22392   6.991   5.190  11.470  0.0496  0.2233 -0.0468
 4869W        W22393   5.028   0.525   4.892 -0.0839  0.1255  0.2283
 4870W        W22394  17.958   8.862  14.148 -0.1572 -0.0403 -0.0089
 4871W        W22395  14.347  14.597  13.392 -0.1597 -0.1041  0.1183
 4872W        W22396  11.989   6.884  11.771  0.1936 -0.0139  0.3639
 4873W        W22397   3.807  10.617   0.700 -0.2361  0.0805 -0.0551
 4874W        W22398   3.323   3.933   4.669 -0.0882 -0.0720 -0.0156
 4875W        W22399   7.954  15.867  14.963 -0.2466  0.0158  0.3455
 4876W        W22400   1.769   1.605   0.285 -0.1866 -0.1072  0.3808
 4877W        W22401   3.025  10.712   3.282 -0.2428 -0.2312 -0.0635
 4878W        W22402   8.773   2.719   0.217  0.1508  0.2503 -0.1714
 4879W        W22403  13.475  10.496  13.964 -0.1793 -0.0201 -0.0576
 4880W        W22404  15.310   0.915  15.036 -0.0877 -0.4175 -0.0020
 4881W        W22405  10.442   7.114   2.364  0.1113 -0.1319  0.1032
 4882W        W22406   1.491   3.198  13.630 -0.0732  0.0764  0.0791
 4883W        W22407  18.033   1.206  12.492  0.1117 -0.0374 -0.2683
 4884W        W22408  16.955  16.189  13.830 -0.3334  0.1171 -0.2907
 4885W        W22409  10.436  15.204  10.634  0.1493  0.0071 -0.1686
 4886W        W22410   7.914   3.802  14.346 -0.2634 -0.0925 -0.0153
 4887W        W22411  17.396   0.589  12.866 -0.1887 -0.0383 -0.1432
 4888W        W22412   3.162   4.768   4.252 -0.2151 -0.0234 -0.0389
 4889W        W22413   7.191  13.750  13.323  0.0637 -0.0437 -0.0291
 4890W        W22414  18.241   9.242  14.353  0.5007  0.2677  0.0328
 4891W        W22415  10.958   5.577   2.392  0.2184 -0.0527  0.0532
 4892W        W22416   5.872  12.354   3.816 -0.2519 -0.1635 -0.0719
 4893W        W22417   0.173   0.554   1.259 -0.0620 -0.2832  0.2606
 4894W        W22418   1.338   0.403  15.859  0.0080  0.4773  0.0494
 4895W        W22419   3.883  18.265   0.482 -0.0470  0.2064  0.0723
 4896W        W22420  16.941  16.053  15.849 -0.2255  0.3297 -0.1498
 4897W        W22421   4.902   8.572   0.502 -0.0070  0.0112 -0.0025
 4898W        W22422  11.897   8.487  13.326 -0.4327  0.2283  0.3015
 4899W        W22423  15.249   8.620   1.125  0.1437  0.0926 -0.0540
 4900W        W22424  15.061  16.774   1.386 -0.0151  0.1578  0.0672
 4901W        W22425  16.179  12.675   4.069 -0.0466  0.2401 -0.0024
 4902W        W22426   7.629   1.612   2.638  0.2042  0.2587 -0.3629
 4903W        W22427  11.397  18.178  14.467  0.1174 -0.2709  0.0243
 4904W        W22428   5.153   8.996   1.392  0.1218 -0.1045 -0.1152
 4905W        W22429   0.723   8.813  12.203  0.0547 -0.0090  0.2588
 4906W        W22430  12.276   5.760   1.075 -0.0952  0.2851  0.1867
 4907W        W22431   4.010  15.630  10.709  0.0315  0.4621 -0.0439
 4908W        W22432  13.855   4.222  15.190  0.2141  0.4283  0.1893
 4909W        W22433  16.341  11.826  14.877 -0.2320 -0.1468  0.1887
 4910W        W22434  12.792   3.777   2.721 -0.0986  0.0253 -0.0045
 4911W        W22435   8.877  17.477  12.191 -0.0424 -0.2114  0.1748
 4912W        W22436   4.170  17.983   0.067 -0.0261  0.5127  0.1026
 4913W        W22437  16.420   1.714  12.032  0.2314  0.0912  0.0766
 4914W        W22438  16.090   9.178   2.039  0.1044  0.2263  0.2381
 4915W        W22439   7.966   4.225  15.487 -0.0558  0.1304  0.1357
 4916W        W22440   3.426  13.143   0.094  0.0499 -0.1186  0.3008
 4917W        W22441   5.636   7.560  13.910  0.0159 -0.2176  0.0213
 4918W        W22442  10.725  14.039   4.692 -0.0139 -0.0310  0.0766
 4919W        W22443  10.006   4.851   1.709  0.2572 -0.2773  0.1053
 4920W        W22444  15.954  14.853   2.737 -0.1744  0.0486 -0.1056
 4921W        W22445  16.636   6.115   2.399 -0.2300 -0.2033  0.3141
 4922W        W22446   5.942  11.101  11.252 -0.2945  0.2889  0.2681
 4923W        W22447  17.091  12.743   2.804  0.2053  0.1450 -0.0566
 4924W        W22448  14.374  16.435   3.370 -0.2768 -0.1286 -0.1687
 4925W        W22449  17.711   4.395  15.045 -0.0426  0.4391  0.1687
 4926W        W22450   3.353  15.716  12.442  0.0966 -0.0969 -0.1931
 4927W        W22451   5.672  16.252   4.159  0.0300 -0.0700  0.0532
 4928W        W22452   8.958   8.550  12.310 -0.0819 -0.1089 -0.3098
 4929W        W22453   5.524   7.078   0.976  0.2717  0.1919  0.0635
 4930W        W22454  15.701  16.771  11.296  0.0370 -0.0428 -0.2730
 4931W        W22455   4.608   1.651  13.626  0.2582  0.1929  0.1051
 4932W        W22456  18.087  12.336  13.266 -0.2231 -0.0072  0.0700
 4933W        W22457   3.363  17.349   1.902 -0.0647  0.1435  0.1455
 4934W        W22458   5.539  14.522   4.837  0.2391 -0.1840  0.3714
 4935W        W22459  18.083  14.834   3.453  0.2967 -0.3095 -0.0429
 4936W        W22460   0.047  17.343  12.575 -0.0088  0.2010  0.0861
 4937W        W22461   2.330  15.216   0.765 -0.0165 -0.0387 -0.2633
 4938W        W22462   0.479   4.491  13.292 -0.3300 -0.1234  0.0967
 4939W        W22463   7.115  12.739  14.612 -0.2511 -0.0169 -0.1101
 4940W        W22464  13.870   5.175   4.321  0.0628  0.1311  0.0796
 4941W        W22465  16.604   0.691   0.941  0.1720  0.0428 -0.2093
 4942W        W22466   0.683   5.382  12.915  0.1481 -0.0871 -0.1092
 4943W        W22467  12.506   1.000  13.983  0.0751  0.0921 -0.0234
 4944W        W22468  12.789  17.464   3.223  0.0171 -0.1493  0.0924
 4945W        W22469  13.557   4.604   5.023  0.1628  0.0676 -0.2760
 4946W        W22470  13.300  17.639  12.784  0.3380  0.2063 -0.0438
 4947W        W22471   7.853  10.868  13.849 -0.1912  0.1668  0.1554
 4948W        W22472   6.915  17.074   3.733 -0.1523  0.3396 -0.1114
 4949W        W22473  17.817   9.002  12.668  0.0901 -0.0029  0.5292
 4950W        W22474   4.851  12.027  12.112  0.1253  0.2143 -0.1531
 4951W        W22475  12.030   5.252   0.417  0.1657 -0.3009 -0.2304
 4952W        W22476  15.723   3.030   1.940  0.0237 -0.1383  0.2341
 4953W        W22477   6.533  10.252   3.080  0.0047  0.0629  0.1397
 4954W        W22478  13.019  12.201   4.031 -0.1476 -0.0723  0.2037
 4955W        W22479  15.484   4.194  14.601 -0.0708 -0.1164 -0.0383
 4956W        W22480  14.614  10.520  13.981 -0.5393  0.3208 -0.0066
 4957W        W22481  16.510  10.008   3.419 -0.0842  0.4752 -0.3002
 4958W        W22482   7.348   8.344   4.363  0.0926 -0.0725 -0.1315
 4959W        W22483   3.540   0.940  11.995  0.1220 -0.3003  0.0874
 4960W        W22484   0.196   7.145   2.733  0.1850 -0.0572 -0.0585
 4961W        W22485   4.110   2.390   0.694 -0.0765  0.1550  0.2825
 4962W        W22486   2.340   4.678   2.971 -0.2176  0.0846  0.0268
 4963W        W22487  10.814  10.651   3.370 -0.2061  0.2919  0.0001
 4964W        W22488  18.116   5.578   4.367  0.2806 -0.0060 -0.0008
 4965W        W22489  13.665   0.388   0.097  0.1934  0.1609  0.2824
 4966W        W22490  16.433  18.316  11.079 -0.1631 -0.1604 -0.1711
 4967W        W22491   0.948   9.641  11.328 -0.1932 -0.0380  0.2545
 4968W        W22492  15.230  15.866  15.415 -0.0660  0.2031 -0.1919
 4969W        W22493  15.688  10.307  13.596 -0.5091 -0.0272  0.0109
 4970W        W22494   6.367   7.162   2.481  0.1673  0.0679 -0.0997
 4971W        W22495   8.635   3.085  14.074 -0.1552  0.1456  0.0000
 4972W        W22496  12.122   8.569  11.076  0.0949 -0.0277 -0.1404
 4973W        W22497  14.353  12.239   2.022  0.2278  0.2414 -0.4899
 4974W        W22498   8.762  15.533   4.527 -0.0095  0.1778 -0.1201
 4975W        W22499   8.459   7.670  15.172 -0.1442 -0.1147 -0.2187
 4976W        W22500  17.396  13.663   3.372  0.3285 -0.2694  0.2074
 4977W        W22501  16.917  11.767  12.701  0.1131 -0.1842 -0.2994
 4978W        W22502   9.621  14.620   2.422 -0.0421 -0.0509 -0.0571
 4979W        W22503  14.603   0.133  14.105 -0.0721  0.1984 -0.0780
 4980W        W22504  10.141   6.975  13.625  0.0291  0.0992  0.1225
 4981W        W22505  15.084   5.203  13.203  0.2905 -0.0264  0.0220
 4982W        W22506   3.417  15.143   3.879  0.2500  0.1222 -0.2100
 4983W        W22507   4.089   1.822  15.727  0.2303 -0.0445  0.1428
 4984W        W22508   1.008  13.563   4.690  0.0653  0.1386  0.1538
 4985W        W22509   3.230   4.240   1.650  0.0820  0.1684 -0.2671
 4986W        W22510  14.448  17.750   2.255  0.0859 -0.1907  0.0032
 4987W        W22511   9.010  14.165   0.233 -0.1227  0.1083  0.0768
 4988W        W22512  11.763  18.219   3.725 -0.0178  0.0523  0.1150
 4989W        W22513  17.702  16.334   3.088 -0.0790 -0.1920 -0.0840
 4990W        W22514  17.296   0.307   1.641  0.0220 -0.3672  0.0134
 4991W        W22515  12.181   3.237  12.068  0.1826 -0.1316 -0.1730
 4992W        W22516   8.512   8.437  14.378  0.2821  0.0038 -0.1749
 4993W        W22517   3.640  16.734  15.734 -0.0321 -0.1883 -0.4793
 4994W        W22518   5.957  10.072  15.329 -0.2910  0.1452  0.1462
 4995W        W22519  11.033  11.185   1.133  0.0259  0.1986 -0.0918
 4996W        W22520  12.280   5.545   1.542 -0.3356 -0.0046 -0.0938
 4997W        W22521  16.816  12.067  13.597  0.2272 -0.1805 -0.2142
 4998W        W22522  12.028  13.123  13.371  0.1197  0.0260 -0.0348
 4999W        W22523  12.655  10.947  15.032 -0.0640 -0.2536  0.1259
 5000W        W22524  16.049   1.159  11.297 -0.5084  0.3482  0.1007
 5001W        W22525   0.416  18.104  12.548 -0.0414  0.1138  0.3057
 5002W        W22526  13.158   6.118  12.742  0.0849 -0.2512 -0.1254
 5003W        W22527  11.195  10.289   0.753  0.0083  0.1113 -0.0816
 5004W        W22528  11.162   2.482   0.341 -0.1871  0.2277 -0.0260
 5005W        W22529  10.700  18.311  11.501  0.3088 -0.1225  0.1828
 5006W        W22530  14.755   2.685  11.820  0.2540 -0.2274 -0.2514
 5007W        W22531  13.239   0.679  15.276  0.0315  0.2701 -0.3469
 5008W        W22532   0.280   2.530   0.702  0.1837 -0.1640 -0.0701
 5009W        W22533  10.786  17.378  12.162 -0.2089  0.0633  0.3274
 5010W        W22534   0.612  12.448   3.731 -0.0825 -0.1442  0.0157
 5011W        W22535   5.753   0.616   1.242  0.0400 -0.0480  0.3242
 5012W        W22536  12.894   9.278   1.013 -0.2685  0.0732  0.2372
 5013W        W22537  13.350   0.508   4.426 -0.2665 -0.0237 -0.1909
 5014W        W22538   6.603   5.113  12.742  0.0177  0.2130  0.1110
 5015W        W22539  12.065   8.508   4.147  0.1179  0.1511 -0.0196
 5016W        W22540   0.467  10.927   2.770 -0.0055 -0.1273  0.2664
 5017W        W22541  11.788   3.982   3.765  0.1673  0.0994 -0.1064
 5018W        W22542   7.216  17.259   2.360 -0.0948  0.0624  0.0219
 5019W        W22543  12.686   0.373   3.619 -0.0985  0.1345  0.0279
 5020W        W22544  13.129   3.862  10.646 -0.1903  0.0351  0.0726
 5021W        W22545  13.345   0.836  15.789 -0.5656 -0.0745 -0.1988
 5022W        W22546  13.266   2.880  14.712 -0.0643 -0.1775 -0.2816
 5023W        W22547   0.691   4.230   2.397 -0.0621  0.0965 -0.1691
 5024W        W22548   4.060  11.117  11.300  0.3435 -0.3136 -0.0281
 5025W        W22549   1.211   6.829  14.742  0.2588 -0.2355 -0.1174
 5026W        W22550  17.753  10.455   1.732 -0.0024 -0.2262 -0.2354
 5027W        W22551   1.460   2.126   2.820 -0.2291 -0.1125 -0.1865
 5028W        W22552   7.451   6.073  13.757 -0.1792 -0.0430  0.0175
 5029W        W22553  14.986   3.049  11.483 -0.0183 -0.1061  0.0300
 5030W        W22554  14.086  10.682   4.746  0.0404  0.0005  0.0105
 5031W        W22555   4.071   0.598   1.806  0.0879 -0.1745 -0.0470
 5032W        W22556  13.092   3.609   0.251  0.1606  0.0642 -0.1562
 5033W        W22557  14.159  10.181   1.563  0.2927  0.0790  0.1169
 5034W        W22558  18.034  16.505  15.404 -0.0024  0.2041  0.0338
 5035W        W22559   7.135   0.102   0.663  0.2190 -0.2400  0.1249
 5036W        W22560   7.212   9.842   2.057  0.0810  0.0197 -0.1676
 5037W        W22561  13.110  11.911   0.075  0.2023  0.0307 -0.2690
 5038W        W22562   2.638   9.902  15.382  0.1046 -0.4874 -0.1000
 5039W        W22563   3.791   9.840  11.102 -0.0617  0.1389  0.0670
 5040W        W22564   3.120  12.680  14.424 -0.2021 -0.0948  0.0029
 5041W        W22565   3.230  14.933  14.954 -0.4024 -0.1078 -0.2628
 5042W        W22566  10.740  14.068   3.723 -0.2081  0.1166  0.0558
 5043W        W22567   0.987   2.460   0.574 -0.1329 -0.0223  0.1271
 5044W        W22568   3.493   3.513  11.329  0.1762 -0.0574 -0.1439
 5045W        W22569   8.407  11.780   2.138  0.0236 -0.3800 -0.1001
 5046W        W22570   7.725   2.331  11.725  0.0728  0.0366 -0.3269
 5047W        W22571   0.505   8.576  15.148 -0.1150 -0.1588  0.2934
 5048W        W22572  14.903   8.170   1.791 -0.3447 -0.1254  0.1091
 5049W        W22573   8.245  14.632   3.104 -0.1298 -0.2053 -0.0594
 5050W        W22574  12.140  12.781  14.331  0.3291 -0.0828  0.3676
 5051W        W22575  10.849   7.548   1.125  0.0638  0.2664 -0.4047
 5052W        W22576   0.744  15.043   2.890 -0.0105  0.0195 -0.5627
 5053W        W22577   6.770   4.221   4.623 -0.0767 -0.0515  0.0261
 5054W        W22578   2.516   9.923   2.960 -0.0291 -0.1692  0.0039
 5055W        W22579   8.245  16.604  15.301 -0.2517  0.1293 -0.2989
 5056W        W22580   1.076  11.172   0.825 -0.1203 -0.1879 -0.1280
 5057W        W22581  12.615  17.459   4.497  0.1606  0.1969  0.1045
 5058W        W22582   2.332   1.084  12.775 -0.0463 -0.0904  0.3059
 5059W        W22583  11.172   4.126   4.502  0.0865  0.1851  0.0888
 5060W        W22584  12.877  11.704   3.990 -0.3568 -0.0793  0.2861
 5061W        W22585   6.570   7.902  15.345  0.1909 -0.0461 -0.2298
 5062W        W22586   1.021   4.109   2.806  0.0475 -0.1070 -0.0262
 5063W        W22587   1.309  12.444   3.996  0.0464  0.2653 -0.2858
 5064W        W22588  15.631   4.051   0.914  0.0206  0.0491 -0.0253
 5065W        W22589  16.522  13.139   3.373  0.1594  0.1853 -0.0663
 5066W        W22590   6.559   8.739   2.101  0.0883  0.2137  0.0629
 5067W        W22591   3.076   4.480  13.242 -0.0346 -0.0817  0.2269
 5068W        W22592  12.934   8.159   0.634 -0.0157  0.0231 -0.1049
 5069W        W22593   6.869  16.143  12.511 -0.2208 -0.0598 -0.2562
 5070W        W22594  11.935  13.566  13.153  0.3997  0.0057 -0.1408
 5071W        W22595   0.746  14.265  15.219 -0.1593 -0.0497  0.3169
 5072W        W22596   0.265   1.194  12.813 -0.4295  0.1225  0.1398
 5073W        W22597  11.328  14.478   0.659  0.3246  0.1485 -0.0805
 5074W        W22598   9.730   5.912   4.585 -0.1402 -0.0236  0.1322
 5075W        W22599  17.265   3.476  11.373  0.0743 -0.1267  0.0850
 5076W        W22600  14.344  14.908   0.582  0.4040  0.1642 -0.2469
 5077W        W22601  11.916   2.924   3.287  0.2241 -0.3852 -0.1088
 5078W        W22602  11.627  15.102   3.787 -0.0302  0.3756  0.0062
 5079W        W22603   4.144  14.659   2.792 -0.1129 -0.1709 -0.5154
 5080W        W22604   3.236   3.500   0.934  0.0328 -0.0706  0.1483
 5081W        W22605   6.060   3.111  11.458  0.0471  0.1592 -0.1286
 5082W        W22606   5.004   7.695  12.436 -0.1095 -0.0348  0.0104
 5083W        W22607  13.377  11.141  14.332  0.1702  0.1225  0.4581
 5084W        W22608   9.469   8.114   2.557 -0.0150  0.0403  0.2110
 5085W        W22609  15.527   4.740   5.404  0.2646  0.0343 -0.3150
 5086W        W22610   9.162   3.634  11.908 -0.1399 -0.3189  0.0500
 5087W        W22611  17.201  14.391   2.808 -0.1335 -0.2342  0.0446
 5088W        W22612  11.753  16.884   0.862 -0.1818  0.2287 -0.0102
 5089W        W22613  13.184   4.689  13.364 -0.0017  0.0546 -0.0057
 5090W        W22614  14.128   3.911   2.941 -0.1506 -0.1045  0.3306
 5091W        W22615   9.438  15.568  13.613  0.0198  0.0180  0.1712
 5092W        W22616  10.513  14.293  14.290  0.0577  0.0859  0.1755
 5093W        W22617   4.790   0.749   9.930  0.3901 -0.1935  0.1335
 5094W        W22618  14.753  16.317  14.170  0.1368 -0.0410  0.0863
 5095W        W22619  11.360   3.851   4.956  0.1729  0.4107  0.3743
 5096W        W22620   9.464   1.427  13.526 -0.2404 -0.0606 -0.0242
 5097W        W22621   0.017   6.470  12.887  0.1680  0.0819 -0.0482
 5098W        W22622   7.936   8.007  12.204 -0.1327  0.3550  0.0613
 5099W        W22623   7.657   3.300   4.264 -0.1058  0.6518 -0.1307
 5100W        W22624   8.365  13.024   0.624  0.0064  0.0047  0.0043
 5101W        W22625  14.565   5.967  14.508 -0.0288 -0.1013  0.2849
 5102W        W22626   6.962  14.664   2.592 -0.2902  0.1833  0.0889
 5103W        W22627   4.121  14.970   3.381 -0.0206 -0.0362  0.0610
 5104W        W22628   7.979  15.048  14.835  0.0259 -0.3546 -0.3088
 5105W        W22629  16.662  17.984   4.448 -0.0764  0.2100  0.0999
 5106W        W22630   3.902   5.652  12.793  0.0767 -0.2971  0.0061
 5107W        W22631  17.866   9.142  15.510 -0.0455 -0.1313 -0.1095
 5108W        W22632  11.023  14.619  14.349  0.1508  0.0786  0.0574
 5109W        W22633   7.224   9.013  14.741 -0.1423  0.1604  0.1484
 5110W        W22634  10.062  12.006  13.791  0.1924  0.0885 -0.0547
 5111W        W22635  17.923  16.061  11.132  0.1511 -0.1629  0.0075
 5112W        W22636  11.542  11.737   4.157 -0.0488 -0.3386  0.0180
 5113W        W22637   3.283   5.596  12.341  0.0328 -0.1059 -0.0392
 5114W        W22638   4.217  15.450   3.996 -0.1080 -0.1310  0.2984
 5115W        W22639   5.543   4.274   0.131 -0.0111  0.1515 -0.1245
 5116W        W22640  12.196  17.724   0.888  0.0607  0.2643 -0.2072
 5117W        W22641  16.516  11.159  15.401 -0.2251 -0.1252 -0.0504
 5118W        W22642  12.791  13.830   0.700  0.0337  0.0805  0.1691
 5119W        W22643   5.496  11.319  11.230 -0.1514  0.1210 -0.1452
 5120W        W22644  13.796  10.129   5.179 -0.2116 -0.3091  0.3282
 5121W        W22645   6.961  13.125   3.044 -0.0437 -0.0596 -0.5110
 5122W        W22646  15.681   6.473   0.732  0.2681 -0.1351 -0.0175
 5123W        W22647   1.127  13.652   2.111  0.2028  0.0765  0.1322
 5124W        W22648  16.495  16.748   2.946 -0.1785  0.2540 -0.2213
 5125W        W22649  17.559   8.394   1.314 -0.4627  0.0015 -0.0019
 5126W        W22650  15.691   9.258  12.012  0.1920 -0.1707 -0.0829
 5127W        W22651   0.289   7.034   4.278 -0.0407 -0.0354 -0.0753
 5128W        W22652  13.509   0.542   4.890 -0.1416  0.0683 -0.0590
 5129W        W22653   9.932   5.867   0.798  0.1476  0.2798 -0.1874
 5130W        W22654  15.926   1.467   1.923  0.1461  0.4980  0.2142
 5131W        W22655   3.407  18.392   4.010  0.4234  0.1250  0.0881
 5132W        W22656   3.299  10.375   5.191 -0.1642 -0.2595  0.1338
 5133W        W22657   5.313   5.812  11.589  0.0117  0.2994 -0.2963
 5134W        W22658  10.472  14.560  13.586  0.0376  0.2642  0.4348
 5135W        W22659   0.417  14.522  14.020  0.2875  0.0026  0.0937
 5136W        W22660   8.562  17.494   2.961  0.0680 -0.0969 -0.1291
 5137W        W22661   1.351  13.233  10.423 -0.2602  0.0848  0.1114
 5138W        W22662   8.677   4.207   0.237  0.0621  0.0275  0.1011
 5139W        W22663  16.792  18.261   1.019 -0.0587 -0.1450 -0.0658
 5140W        W22664   0.652  16.694   2.574 -0.2711 -0.1371 -0.1965
 5141W        W22665   9.479  13.463   0.896  0.1131  0.3343 -0.1188
 5142W        W22666  12.645   5.626   2.441 -0.1993 -0.2009  0.0117
 5143W        W22667   2.224   6.714  14.629  0.0499  0.2170  0.1633
 5144W        W22668   9.363   2.532   1.996 -0.2774 -0.0309  0.2219
 5145W        W22669   1.207   2.789   4.864  0.0432  0.0082  0.3680
 5146W        W22670  13.932   6.926  13.465  0.1145  0.4186  0.4141
 5147W        W22671   5.999   8.321   4.235 -0.1694 -0.1313  0.3040
 5148W        W22672  10.204   4.713  10.653 -0.0168  0.1588  0.2925
 5149W        W22673  11.144  14.928  12.839 -0.0921 -0.2600 -0.2635
 5150W        W22674   6.690   6.839  14.248 -0.0500  0.0832  0.0275
 5151W        W22675   3.773  10.545  11.651 -0.1829  0.2427  0.0199
 5152W        W22676   0.292   7.189   2.237  0.1301 -0.1434  0.0500
 5153W        W22677  15.039  15.154  15.655 -0.1589 -0.3387 -0.0218
 5154W        W22678   2.314   2.221   3.188 -0.1852  0.0201 -0.1332
 5155W        W22679   1.985   9.451  11.175 -0.0686  0.3875 -0.0110
 5156W        W22680  14.190  10.317   3.059 -0.1862  0.1338 -0.1994
 5157W        W22681   7.296   0.404  13.357  0.3427 -0.2312 -0.1757
 5158W        W22682   0.511   8.829  14.038 -0.2375 -0.3506 -0.3462
 5159W        W22683   8.705  17.418   2.373  0.0171  0.1910  0.2122
 5160W        W22684   0.645  11.854   4.792 -0.0090 -0.0218  0.1954
 5161W        W22685   3.890  17.087  12.742  0.0596  0.0680 -0.2185
 5162W        W22686   9.478   7.941   1.603  0.0135  0.3314  0.3406
 5163W        W22687  17.613   2.774   3.776 -0.0458  0.0796  0.0364
 5164W        W22688  10.774  13.122  14.726 -0.2290 -0.1334 -0.1415
 5165W        W22689  14.119  16.456   1.342  0.0304  0.1894 -0.0663
 5166W        W22690  11.813  10.913   4.294 -0.2422 -0.1018  0.1758
 5167W        W22691   6.041   2.074   4.741  0.2006  0.0022  0.3337
 5168W        W22692  11.636  13.480  14.496 -0.2889  0.1180 -0.2708
 5169W        W22693   3.269   4.787  11.646 -0.0566  0.1580 -0.1352
 5170W        W22694   8.599   8.240   3.141 -0.1311  0.1601  0.2961
 5171W        W22695   9.062   4.375  15.266  0.0479 -0.0807 -0.0498
 5172W        W22696  16.206  16.412   0.586 -0.0022 -0.3365  0.3094
 5173W        W22697  13.088   1.185   1.492  0.1125  0.1052  0.1366
 5174W        W22698   5.033  11.574   3.551 -0.0671  0.0007 -0.1625
 5175W        W22699   8.124   4.224   5.393  0.0018  0.0820 -0.2757
 5176W        W22700   3.935  17.181   1.904  0.2070 -0.0642  0.3453
 5177W        W22701   2.613   2.976  14.995 -0.0293  0.2113  0.0599
 5178W        W22702   6.569  15.123  12.560  0.2723  0.1365 -0.0530
 5179W        W22703   1.027  13.650   5.237 -0.0318  0.3151  0.2172
 5180W        W22704   6.222   1.929   3.865 -0.0997 -0.1100 -0.0630
 5181W        W22705  16.398  11.601   2.011  0.1285  0.0555  0.1975
 5182W        W22706   9.819  18.156   4.085 -0.0863 -0.2822 -0.0280
 5183W        W22707   8.849  13.261  14.500  0.0254  0.0786 -0.0873
 5184W        W22708   6.345  12.392   2.219  0.0967  0.1058 -0.3180
 5185W        W22709  13.247  10.835  11.727  0.1624  0.2544  0.0037
 5186W        W22710  10.711   4.397  15.512  0.1755 -0.0504  0.2350
 5187W        W22711   8.865   3.760  14.501  0.0394 -0.3177 -0.0868
 5188W        W22712   5.016  11.547   0.376 -0.0144 -0.0140 -0.1632
 5189W        W22713   9.205  11.199   1.999 -0.0809 -0.2997  0.0874
 5190W        W22714   9.674  18.201   2.819 -0.0816  0.0481 -0.1296
 5191W        W22715   2.185   5.915  14.385  0.0223  0.0870  0.0497
 5192W        W22716  10.900   1.060   5.011  0.1390  0.0860 -0.3380
 5193W        W22717   2.552   2.782  15.567  0.4679 -0.0533 -0.1782
 5194W        W22718  13.995  11.421  13.901 -0.3060 -0.0550  0.4606
 5195W        W22719   9.570   2.666  14.301  0.2865 -0.1554 -0.1202
 5196W        W22720  12.548   1.535   4.262  0.1385 -0.2751 -0.0537
 5197W        W22721  12.538   4.915   5.404 -0.0784 -0.3993  0.1075
 5198W        W22722   6.024   1.713   3.399  0.0058 -0.0353  0.0418
 5199W        W22723  15.736  11.373   2.851  0.1502 -0.5870  0.0033
 5200W        W22724  12.699   8.126  13.890 -0.0667  0.1481  0.2989
 5201W        W22725  16.270   8.409   0.512  0.0252 -0.2580  0.0720
 5202W        W22726   6.120  10.016   1.086 -0.1977 -0.0226 -0.0368
 5203W        W22727  17.133  15.410  12.151  0.1188 -0.0776  0.1136
 5204W        W22728  13.549  17.025   1.337 -0.0562  0.2061  0.1204
 5205W        W22729  16.380  17.531   4.678  0.2607 -0.1137  0.1116
 5206W        W22730   8.248   0.967   1.676 -0.0857  0.0526  0.1427
 5207W        W22731   3.748  12.963  15.435  0.3652  0.0954  0.1301
 5208W        W22732   2.351   4.208   4.006  0.1109  0.1669  0.0638
 5209W        W22733   3.397   1.780  11.618  0.3005 -0.0037  0.0816
 5210W        W22734  13.025   9.105  14.789 -0.0943  0.0579 -0.1763
 5211W        W22735   5.566   3.913  15.600 -0.2945  0.2987  0.0713
 5212W        W22736   2.127   3.729  15.799 -0.1090  0.0276  0.4802
 5213W        W22737   9.510   7.237   3.843 -0.1996  0.0547  0.1746
 5214W        W22738  18.158  13.925   9.726  0.2885 -0.0980  0.0653
 5215W        W22739  17.200   8.869  11.599 -0.3444 -0.2616 -0.1201
 5216W        W22740  16.548  13.347   5.323 -0.1909 -0.1734  0.0852
 5217W        W22741   9.782  17.554   4.048  0.2000  0.0209 -0.1064
 5218W        W22742   2.371  10.330  15.336  0.4020  0.0511  0.1483
 5219W        W22743  16.622  10.624   3.971 -0.3318  0.3269 -0.0010
 5220W        W22744   9.625   2.036   0.526 -0.3264 -0.1225  0.0719
 5221W        W22745  14.285   4.986   9.851  0.0465  0.1936 -0.1914
 5222W        W22746   9.941   8.979  11.407  0.2247  0.0586 -0.1087
 5223W        W22747  14.477   1.563   3.075  0.0492 -0.1165  0.1956
 5224W        W22748   7.122   4.559   4.581 -0.5365 -0.1397 -0.0911
 5225W        W22749  17.265  12.317  12.809  0.1998 -0.2430 -0.1470
 5226W        W22750  17.447   1.673  13.619  0.1165  0.1488 -0.1797
 5227W        W22751   2.583   7.048  15.333 -0.1388 -0.2279  0.1091
 5228W        W22752   5.809   0.796   4.484 -0.1257  0.0206 -0.3394
 5229W        W22753   7.434   7.870   3.796  0.3089 -0.4007  0.2818
 5230W        W22754   7.382   4.312  11.232 -0.0273  0.2767  0.0180
 5231W        W22755   9.294   7.932   2.123 -0.3210  0.4535 -0.0750
 5232W        W22756   6.545  17.331   3.505  0.1089  0.0029 -0.0598
 5233W        W22757   3.767  13.313  13.696 -0.1071  0.2446  0.0803
 5234W        W22758   4.169   1.146  12.674 -0.2321  0.1691 -0.0278
 5235W        W22759  16.817   3.355   1.454 -0.1884 -0.0906 -0.1475
 5236W        W22760   3.794   9.033   4.402 -0.0263 -0.1176 -0.1404
 5237W        W22761   9.314  11.244  11.546 -0.0714  0.3104  0.0827
 5238W        W22762   8.492  11.328  13.089  0.5561 -0.0462  0.0428
 5239W        W22763  18.196   7.179   3.003 -0.1801 -0.2625  0.1088
 5240W        W22764  11.259  11.219  11.492 -0.0252  0.1397 -0.0213
 5241W        W22765  10.535   3.808   3.574 -0.2361 -0.2279 -0.0613
 5242W        W22766  13.709   9.547   5.291 -0.1417 -0.3652 -0.1761
 5243W        W22767  12.063   5.805  13.031 -0.3676  0.2074  0.2306
 5244W        W22768  11.967   2.671  13.960 -0.5775  0.0858 -0.2387
 5245W        W22769  18.050   5.141  13.440 -0.1772  0.3146  0.0899
 5246W        W22770  14.275   1.824   3.494  0.1018  0.2917  0.5097
 5247W        W22771  16.007  12.772  12.231  0.0072  0.0403  0.6149
 5248W        W22772  12.081  15.900  11.989  0.0874  0.1345 -0.1381
 5249W        W22773  16.219   2.304  15.430 -0.2020  0.0296 -0.1700
 5250W        W22774   9.253  15.975   2.434 -0.1283  0.1224  0.1201
 5251W        W22775   7.697   4.887   2.138 -0.0810 -0.0490  0.1868
 5252W        W22776  16.341  12.324  14.826 -0.0165 -0.1084 -0.1233
 5253W        W22777   4.947  11.705   2.098  0.0302 -0.1701  0.0554
 5254W        W22778  11.404   9.380   2.466  0.0108  0.3425  0.2123
 5255W        W22779   9.094  16.435   0.169  0.2814  0.1390 -0.4270
 5256W        W22780  14.341   9.929   1.127 -0.2283 -0.1518  0.0224
 5257W        W22781   3.225  17.806  15.653 -0.0208  0.0918  0.0503
 5258W        W22782   1.416  13.061   1.294 -0.1346 -0.0497  0.2964
 5259W        W22783   9.183  14.582  11.446 -0.1698  0.1241 -0.0774
 5260W        W22784  13.876   8.695  11.461  0.0046  0.0305 -0.2148
 5261W        W22785  12.440  10.546  10.548 -0.1145  0.0156  0.3423
 5262W        W22786  16.595  10.778  11.974 -0.1634  0.1897  0.0927
 5263W        W22787   9.112  12.016  10.515  0.1029  0.3172  0.2733
 5264W        W22788  17.826  15.169   4.553  0.1344  0.2653  0.0107
 5265W        W22789   7.409   5.425  15.299 -0.1045 -0.0867  0.0920
 5266W        W22790   6.980  10.578   3.907  0.1721 -0.0311 -0.1513
 5267W        W22791   8.914   2.843   2.823  0.2197 -0.2899  0.0862
 5268W        W22792   4.135   9.516  13.027  0.0545  0.2208 -0.0853
 5269W        W22793  10.664  15.479  14.165 -0.2446  0.0556 -0.1411
 5270W        W22794  18.054   3.720   0.993  0.0950  0.1742 -0.0343
 5271W        W22795  17.212  17.172  14.887 -0.1826  0.1304  0.2336
 5272W        W22796   4.892  11.537   5.125 -0.3063 -0.2099 -0.1203
 5273W        W22797  10.630  18.194   0.502 -0.0425 -0.2341 -0.0446
 5274W        W22798  12.324   1.176  13.139 -0.1521 -0.0604  0.0719
 5275W        W22799   7.444  12.139   0.771 -0.2753  0.0526  0.0815
 5276W        W22800   5.142   4.936   0.641 -0.2913  0.1672 -0.2771
 5277W        W22801   3.612  10.391   1.587 -0.2317 -0.3983 -0.2979
 5278W        W22802   3.369   0.327  10.624 -0.0666 -0.0988  0.2262
 5279W        W22803   6.921   9.158   4.296 -0.1507 -0.0110  0.0763
 5280W        W22804  17.499   6.458   4.885  0.3751 -0.2586  0.0012
 5281W        W22805   1.230  16.384   3.105 -0.0076  0.1844  0.1160
 5282W        W22806   9.142  14.245   2.613 -0.1887 -0.3100  0.2009
 5283W        W22807  18.346   8.045  15.561  0.0126  0.0238 -0.0640
 5284W        W22808   5.397  10.560   3.967  0.0981  0.1372 -0.0983
 5285W        W22809  13.636   0.368   0.611 -0.1649 -0.2575 -0.0793
 5286W        W22810  17.918   8.005   1.198 -0.0894 -0.5262  0.0585
 5287W        W22811  17.223   7.721  10.746  0.0595  0.0351  0.1541
 5288W        W22812  11.488   0.040   2.315 -0.3568  0.1507  0.0339
 5289W        W22813  14.379  12.770  15.857 -0.0787 -0.1240  0.0179
 5290W        W22814  18.018  18.195  12.442 -0.1003  0.1591  0.1297
 5291W        W22815  17.070  12.443   0.028  0.0335  0.4038  0.0474
 5292W        W22816   1.479  10.758  13.168  0.0335 -0.2976  0.2208
 5293W        W22817  14.794   1.320   4.107 -0.0358  0.1798  0.1852
 5294W        W22818   7.638  13.159  12.753  0.0602 -0.1956  0.0438
 5295W        W22819   0.843  16.179   1.869 -0.0599 -0.3208  0.0921
 5296W        W22820  13.426  13.806  14.348  0.2416  0.1364  0.0753
 5297W        W22821   6.737   4.006  14.527  0.2806 -0.0401 -0.5056
 5298W        W22822  12.603   8.867   0.033 -0.1668  0.1285 -0.1724
 5299W        W22823   3.021   6.864   2.358  0.3248 -0.1534  0.2328
 5300W        W22824  16.685   6.356  12.437  0.3908  0.2106 -0.3458
 5301W        W22825   4.709   4.200   2.151  0.3144  0.2003  0.1638
 5302W        W22826  14.349  13.819  14.659 -0.1950 -0.1793  0.0684
 5303W        W22827  16.668  14.626  14.918 -0.1619  0.1890  0.0243
 5304W        W22828  15.489  12.624   1.948 -0.0657 -0.2257  0.1751
 5305W        W22829  11.842   5.192  15.788 -0.0546  0.1310 -0.1794
 5306W        W22830  14.518   5.288  13.022  0.1671  0.1163 -0.2830
 5307W        W22831  12.465   4.976  14.613 -0.0743  0.0598 -0.1024
 5308W        W22832  11.265   0.190  14.670 -0.0324  0.1605 -0.2322
 5309W        W22833   6.135  13.777  15.395  0.1121  0.1179  0.1259
 5310W        W22834   2.023   8.809   1.333 -0.2225  0.1852 -0.2120
 5311W        W22835  12.594  15.433  14.285  0.0844  0.1733  0.0153
 5312W        W22836   0.049  11.020   4.360  0.2488 -0.2605  0.2417
 5313W        W22837  13.504   0.953   4.689 -0.4498  0.0479 -0.3084
 5314W        W22838   0.577  14.583  10.314  0.0535 -0.1644  0.2218
 5315W        W22839  11.604   2.871   2.850 -0.2530  0.0027  0.3598
 5316W        W22840   8.965   0.391   3.220  0.1843  0.1273 -0.1663
 5317W        W22841  12.200  17.249   2.055 -0.0654  0.0081  0.2036
 5318W        W22842   4.038   8.879   5.411 -0.1001 -0.1447  0.0288
 5319W        W22843   5.302  10.001  14.213 -0.2358 -0.2249 -0.1593
 5320W        W22844   3.637   2.036   3.281 -0.4349  0.0954 -0.0743
 5321W        W22845  11.987   6.093   2.485 -0.1598 -0.0353 -0.0037
 5322W        W22846   6.263  11.213   0.090 -0.0312 -0.0056 -0.2309
 5323W        W22847  17.862   2.872   0.864 -0.1180  0.0457  0.0165
 5324W        W22848  14.725   6.737  11.106  0.0748 -0.0332  0.0424
 5325W        W22849   5.104   6.720  14.035  0.0525  0.0074 -0.0642
 5326W        W22850   7.188  15.938  12.136 -0.1080 -0.0994 -0.2064
 5327W        W22851  16.454  13.515  12.440  0.0119  0.0185 -0.1627
 5328W        W22852   1.963  15.162  13.234 -0.0091  0.1638 -0.1405
 5329W        W22853  17.142   1.694  12.642  0.0136 -0.1111 -0.2941
 5330W        W22854  11.104  15.948   2.125  0.0997 -0.3601  0.0679
 5331W        W22855  14.842   4.783   3.654 -0.1332  0.1160  0.2266
 5332W        W22856   7.166  17.292   1.160  0.2444 -0.0753  0.1219
 5333W        W22857   4.898   7.929  13.728 -0.1641 -0.0145  0.2432
 5334W        W22858   5.655   5.880  12.349 -0.2181 -0.1242  0.0969
 5335W        W22859   7.968   3.425   2.574  0.1652 -0.2640 -0.1186
 5336W        W22860   6.205   6.254  13.618 -0.2519 -0.0123 -0.1595
 5337W        W22861   5.478  14.772  14.811  0.0924  0.3054  0.2186
 5338W        W22862   4.157  15.181  10.849  0.0793 -0.0621  0.0894
 5339W        W22863  17.066  11.180  14.707 -0.2398  0.1461  0.0765
 5340W        W22864   2.973  15.344   3.804  0.5314  0.3070  0.0042
 5341W        W22865   7.604  11.043  11.568  0.1064  0.2562  0.1643
 5342W        W22866  14.867  12.844   5.205 -0.2464  0.1769 -0.0047
 5343W        W22867   6.843  11.962  14.697 -0.0570 -0.2020 -0.1409
 5344W        W22868   5.543   5.529  12.037 -0.4325 -0.1305  0.1774
 5345W        W22869   2.435   5.260   5.610 -0.1690  0.2612  0.2506
 5346W        W22870   1.126  17.792  15.009  0.1425 -0.1825  0.1772
 5347W        W22871   6.643   6.105   0.849  0.2068 -0.0217  0.1442
 5348W        W22872  10.937  10.022   2.170 -0.0231 -0.0812  0.1064
 5349W        W22873   2.097  14.015  11.145  0.1131 -0.2059  0.0298
 5350W        W22874  11.072   0.421  11.194 -0.0972 -0.0705 -0.2954
 5351W        W22875  10.887   7.033   2.766  0.0122 -0.1428 -0.0413
 5352W        W22876   4.079   7.968   1.460 -0.1197 -0.0149  0.0354
 5353W        W22877  13.151  17.866   3.364 -0.0869  0.0645 -0.1609
 5354W        W22878   1.420   4.465   0.046  0.0040  0.2570  0.0334
 5355W        W22879   6.640  17.899  15.704 -0.2240 -0.0268  0.1862
 5356W        W22880   9.090  17.216  13.558 -0.1106 -0.1431  0.0051
 5357W        W22881   5.103  10.288  15.051 -0.1211  0.0806 -0.1812
 5358W        W22882   0.580   7.457   1.399  0.1885  0.2192  0.2821
 5359W        W22883  15.676   5.372  12.244  0.0837 -0.0968 -0.0536
 5360W        W22884   3.796  10.835  12.835 -0.0807 -0.0784  0.2275
 5361W        W22885   9.682   1.056  14.105  0.5243 -0.0548 -0.2199
 5362W        W22886   7.987   1.965   2.542 -0.2132 -0.0296 -0.4501
 5363W        W22887  15.883   2.914   2.623 -0.0802 -0.2196 -0.1771
 5364W        W22888   7.225  10.397   4.351  0.0221  0.0281 -0.0880
 5365W        W22889   2.591  15.320  15.512 -0.0762  0.0253 -0.0883
 5366W        W22890   1.903   4.408  11.180 -0.0722  0.2021  0.2093
 5367W        W22891  13.347  14.229  11.889  0.0249  0.0837  0.0817
 5368W        W22892   1.163   5.617  10.886  0.0811 -0.0847 -0.1349
 5369W        W22893   8.773   4.684  12.466  0.2474 -0.0483 -0.2093
 5370W        W22894  14.373  17.349   4.811  0.2631  0.0437  0.3863
 5371W        W22895  10.436   4.521   1.899 -0.0733  0.1540  0.0823
 5372W        W22896  17.789  10.382  11.570  0.0066  0.5571  0.2260
 5373W        W22897  12.300   2.354   3.943  0.2484 -0.3070 -0.2954
 5374W        W22898  13.855  14.396   1.125 -0.2101 -0.3195  0.1411
 5375W        W22899  12.813   8.127   1.157 -0.2092  0.5182 -0.0206
 5376W        W22900  16.185   6.758  10.224  0.2478  0.3530 -0.0174
 5377W        W22901   4.209  10.622  13.801 -0.1505  0.0828 -0.0644
 5378W        W22902   0.989   3.156   4.552  0.2451 -0.0523 -0.1158
 5379W        W22903  11.773  16.163  14.000 -0.2990 -0.2018  0.1181
 5380W        W22904   5.989   0.915  13.742 -0.1139 -0.0599  0.1747
 5381W        W22905   0.495   9.740  12.488  0.1636 -0.2625 -0.2717
 5382W        W22906  12.844   2.124   1.561  0.1090  0.0933 -0.0770
 5383W        W22907   1.423   5.622   3.110  0.2562  0.4210 -0.1773
 5384W        W22908  15.446  14.128  14.708  0.2228 -0.3281  0.1513
 5385W        W22909   0.603   0.934   1.088  0.1832  0.0651 -0.0758
 5386W        W22910   1.663   3.982   3.844 -0.0726  0.1528 -0.2048
 5387W        W22911  15.312   0.769   2.306 -0.0296  0.0568  0.4537
 5388W        W22912  15.950   9.639  11.855 -0.0207 -0.3409 -0.3365
 5389W        W22913  15.480  13.631  14.320  0.0327 -0.1156  0.0239
 5390W        W22914   6.313  14.195  12.563 -0.0811  0.0465  0.0863
 5391W        W22915   5.428   2.216  15.163  0.1196 -0.4321  0.0351
 5392W        W22916   5.356   9.740   4.131  0.0791  0.0909 -0.2450
 5393W        W22917   6.149  12.929   3.003 -0.3089 -0.0384 -0.2471
 5394W        W22918   9.066   1.035   1.071 -0.0317  0.2856  0.1427
 5395W        W22919   7.545   5.879   1.813  0.3667 -0.0033 -0.0656
 5396W        W22920  16.049   9.752  10.759  0.0877 -0.2290  0.2396
 5397W        W22921  14.468  10.458   4.568 -0.0195 -0.0584 -0.4380
 5398W        W22922   2.831   5.133  10.487 -0.0778  0.2135 -0.2295
 5399W        W22923  11.467  10.474  13.169  0.0459 -0.2010  0.1056
 5400W        W22924   0.270  16.817  12.628  0.0227 -0.2520 -0.0835
 5401W        W22925   6.754   6.771  12.133  0.0052  0.0916  0.0588
 5402W        W22926   4.890  15.098  15.196  0.0665  0.3007 -0.0273
 5403W        W22927   5.275   4.701  12.560  0.3152 -0.0059  0.0165
 5404W        W22928   3.446  13.104  14.591  0.1848 -0.1442  0.0177
 5405W        W22929  17.196  16.422  15.506  0.0109 -0.0238  0.1506
 5406W        W22930  11.230   0.224  10.757 -0.0267 -0.0158 -0.0616
 5407W        W22931   6.667   4.635  15.479  0.1300  0.1096 -0.0388
 5408W        W22932  17.946   1.738  12.454  0.2718  0.0612 -0.0288
 5409W        W22933   6.582  14.883  12.145 -0.2020 -0.2567 -0.1708
 5410W        W22934  18.247   1.771   4.475  0.0300  0.0086 -0.1751
 5411W        W22935  11.965  11.930   2.574  0.0232 -0.1853 -0.0035
 5412W        W22936   4.797  14.960  15.683 -0.0357  0.0620 -0.1442
 5413W        W22937   2.723   7.282   4.103  0.5174  0.1556 -0.2013
 5414W        W22938   3.614   2.410  15.743 -0.3443  0.1168  0.4347
 5415W        W22939   9.558   0.137  12.797 -0.1432  0.4408 -0.0212
 5416W        W22940  10.555   7.569  14.241  0.3623 -0.3002 -0.1410
 5417W        W22941  10.338   0.923   1.911 -0.1181  0.1060 -0.1011
 5418W        W22942   3.434  11.868   0.660  0.1100 -0.2434 -0.0982
 5419W        W22943   5.353   3.757  10.677 -0.2960 -0.1043 -0.3785
 5420W        W22944   3.340   1.260   1.832 -0.2877 -0.0744  0.0514
 5421W        W22945   0.077   9.613  14.184  0.0894 -0.0632 -0.1899
 5422W        W22946   7.101  14.111   2.523  0.0786 -0.1657  0.3289
 5423W        W22947  15.590   5.686   4.490  0.0369  0.0595  0.0802
 5424W        W22948   3.459  12.266   4.351 -0.1688 -0.1830 -0.0677
 5425W        W22949  16.193  10.352  13.839 -0.0128 -0.0022  0.3350
 5426W        W22950   3.990   8.738   1.257 -0.0680 -0.0877 -0.1780
 5427W        W22951   3.299  11.595  15.656  0.2337  0.3636 -0.1297
 5428W        W22952  16.051  16.791  14.641 -0.2342 -0.1561 -0.1121
 5429W        W22953  17.840   5.181   3.933  0.0747 -0.0955 -0.0601
 5430W        W22954  10.025   2.467  14.628 -0.1722  0.0536  0.0621
 5431W        W22955   2.717  11.395  13.688  0.0316 -0.1796 -0.0651
 5432W        W22956  13.824   6.479   0.598  0.1206  0.0893  0.1778
 5433W        W22957  13.088   1.649   4.455 -0.1793 -0.2360  0.3879
 5434W        W22958  14.142  11.191   5.009  0.1153  0.3613  0.0445
 5435W        W22959  17.914   8.602  13.681  0.0653 -0.1270  0.1533
 5436W        W22960  13.731   3.282  14.658 -0.2398  0.0238  0.0509
 5437W        W22961  13.669   0.808   0.336  0.0101 -0.0558 -0.2502
 5438W        W22962   6.295  18.413  15.597 -0.2777  0.0091  0.0834
 5439W        W22963   9.402   5.196  10.733 -0.2323 -0.0830  0.1653
 5440W        W22964   3.391  13.964  12.866  0.0035 -0.1369  0.0865
 5441W        W22965   3.364   8.442   3.927  0.1519  0.0615 -0.0381
 5442W        W22966   8.926   8.770   2.254  0.0132 -0.3583 -0.1023
 5443W        W22967  11.844  13.859  12.369 -0.0681  0.0263  0.0631
 5444W        W22968  15.818   9.485   1.654 -0.0741  0.2137 -0.2611
 5445W        W22969   6.668   6.987  10.246  0.1077  0.1143  0.1355
 5446W        W22970   2.607  13.277   2.095  0.1675  0.3544  0.0797
 5447W        W22971  12.140   7.117  11.287 -0.0189  0.2766 -0.0610
 5448W        W22972   1.587  10.834  15.078  0.0849  0.1671 -0.1112
 5449W        W22973   2.578   5.570  11.123  0.0891  0.0801  0.2734
 5450W        W22974  11.065  13.651   0.284  0.1943 -0.0467 -0.1015
 5451W        W22975  14.508  14.509  13.863  0.3231 -0.1675  0.0095
 5452W        W22976   1.717  11.156   3.470  0.0912  0.0344  0.1178
 5453W        W22977   6.988   3.814   4.035 -0.1384  0.1578 -0.2288
 5454W        W22978   4.567  15.266  12.307  0.2781  0.0350  0.0536
 5455W        W22979   0.478   9.966   5.112  0.2007  0.0099  0.1419
 5456W        W22980  13.831   8.236  12.588  0.0628  0.0990 -0.3213
 5457W        W22981   5.988   9.105  14.915  0.2817 -0.0028 -0.2688
 5458W        W22982   4.133  11.552   4.448 -0.0849 -0.3293  0.0100
 5459W        W22983  10.287   5.229  12.068  0.4467 -0.1890 -0.3396
 5460W        W22984  15.761  10.361  12.606  0.0852  0.0707 -0.1506
 5461W        W22985  15.421  15.312   3.875  0.0536  0.0614  0.1530
 5462W        W22986   8.551   4.754   0.202 -0.0371 -0.1919  0.0802
 5463W        W22987   1.749  18.229   2.306  0.0202 -0.1508 -0.1375
 5464W        W22988  10.405   2.454  13.439 -0.0215 -0.1911  0.0330
 5465W        W22989  17.370  10.400  14.721  0.2279  0.4181  0.5626
 5466W        W22990   3.887  16.060   4.159 -0.0250  0.1431 -0.2583
 5467W        W22991  17.133  17.782   5.596  0.0717  0.2433  0.0073
 5468W        W22992   2.467   0.143  11.937  0.0699 -0.4131 -0.1243
 5469W        W22993   5.286   0.275  14.806 -0.4981 -0.1306 -0.1106
 5470W        W22994  13.035   7.436   2.820  0.2465  0.2628 -0.2360
 5471W        W22995  16.599  17.611  13.195 -0.2193 -0.0161  0.0435
 5472W        W22996   9.277   7.694  13.817  0.0156  0.1346  0.0740
 5473W        W22997  16.291   2.210  14.949 -0.1047  0.0109 -0.1410
 5474W        W22998   9.300   9.210   1.991  0.2838 -0.1983  0.2357
 5475W        W22999  14.212   2.067   2.830  0.0419  0.4187 -0.0805
 5476W        W23000   2.097   3.835   4.192  0.1428  0.2597  0.0239
 5477W        W23001   5.881   8.402   0.960  0.1862 -0.0769 -0.1516
 5478W        W23002  17.830   2.285  12.318 -0.0316 -0.1207 -0.0343
 5479W        W23003   2.358  11.525  12.206  0.2056 -0.2936 -0.3303
 5480W        W23004   0.729   1.175  15.412  0.1374 -0.3671 -0.1209
 5481W        W23005  17.408  12.108   0.302  0.0996 -0.1710  0.0863
 5482W        W23006  17.519  16.006  14.836 -0.1159  0.0007 -0.2638
 5483W        W23007  10.045   9.655   0.077 -0.3090  0.2390 -0.1616
 5484W        W23008   2.852  17.164   4.063 -0.3707 -0.0554  0.1744
 5485W        W23009  12.836   8.017  15.394  0.0629 -0.1283 -0.0220
 5486W        W23010  16.787   2.673  15.031  0.1562 -0.0762 -0.1986
 5487W        W23011   7.508  16.371  14.342  0.0021 -0.1428 -0.1732
 5488W        W23012   1.993   4.967  12.146  0.0858  0.2990 -0.2375
 5489W        W23013   8.137   3.019   0.309 -0.0649  0.0239  0.1682
 5490W        W23014   7.750  11.512   2.498  0.0868  0.2769 -0.1072
 5491W        W23015   4.701  11.845  12.536 -0.2397 -0.2223 -0.3895
 5492W        W23016  11.203  12.263   2.237 -0.0495 -0.0617 -0.0127
 5493W        W23017  17.255  10.791   5.450 -0.0448 -0.3298  0.2582
 5494W        W23018   3.847  15.978   4.712 -0.0443  0.2507 -0.1310
 5495W        W23019  14.998  10.505  12.747  0.0903  0.0594 -0.0961
 5496W        W23020   6.665   4.337  14.945  0.1169  0.0366 -0.7240
 5497W        W23021  17.424   3.537  12.904  0.2952 -0.2086 -0.2264
 5498W        W23022   1.231  11.366  14.397  0.2096 -0.0793 -0.0227
 5499W        W23023  13.840  12.686  14.223  0.1270  0.0834 -0.1985
 5500W        W23024   0.821   6.662  12.988  0.2466 -0.0346 -0.0989
 5501W        W23025   3.785  18.300   3.641  0.0798 -0.1935  0.2946
 5502W        W23026  17.895   6.738   3.206  0.2093  0.0679  0.2249
 5503W        W23027  15.191  16.643  12.498  0.0085  0.1614 -0.0280
 5504W        W23028  13.074  10.988   1.584  0.0207  0.0674 -0.4594
 5505W        W23029  15.141  16.068   2.146  0.0227  0.1641 -0.2200
 5506W        W23030   3.614   5.186   0.853 -0.0572 -0.3073  0.2022
 5507W        W23031  11.645   9.570  14.388  0.0389 -0.1795  0.0791
 5508W        W23032  12.442   5.064   0.810  0.1443 -0.0315 -0.0750
 5509W        W23033  16.466  13.102  12.015 -0.0980  0.1709 -0.0314
 5510W        W23034  16.005  16.100   3.526 -0.0644  0.0094  0.0615
 5511W        W23035   3.622  16.751  14.220 -0.1296  0.0936 -0.1056
 5512W        W23036   1.940  10.434   0.940 -0.1052  0.1832 -0.2990
 5513W        W23037   1.551   0.214   1.342  0.0932  0.0568  0.0502
 5514W        W23038   4.686   4.250   0.624  0.2014  0.4512  0.1809
 5515W        W23039  16.802   2.156  12.880 -0.2588  0.2258 -0.2202
 5516W        W23040  16.372   7.521   4.953  0.0658  0.0009  0.0888
 5517W        W23041   4.259  14.136   2.825  0.0333 -0.0248  0.0270
 5518W        W23042  10.315   2.125  13.857  0.0588  0.0478 -0.1631
 5519W        W23043   0.119   8.873  14.783  0.1363 -0.0212 -0.0585
 5520W        W23044  13.216   9.833  10.942 -0.0838 -0.0104 -0.0048
 5521W        W23045  10.317   7.289  13.930  0.0930 -0.2931 -0.0213
 5522W        W23046  16.799  18.249  11.988 -0.1634  0.0871 -0.2496
 5523W        W23047  12.522   6.086   3.148  0.2004 -0.2708  0.1822
 5524W        W23048   8.793  11.379   4.912  0.1898  0.2005  0.0733
 5525W        W23049   3.731  11.916   1.768  0.0529 -0.4221  0.2250
 5526W        W23050   5.415   7.762  11.842  0.0853  0.1858 -0.2499
 5527W        W23051  15.699   3.839   4.467  0.2641  0.2642  0.1270
 5528W        W23052   1.559   1.272  10.815 -0.0871  0.3970  0.1136
 5529W        W23053  14.377  15.530  12.183  0.3026  0.1425 -0.2222
 5530W        W23054   6.151  12.804  15.395  0.0380  0.0334  0.0945
 5531W        W23055   3.830  12.678  14.622  0.0788  0.0991 -0.1216
 5532W        W23056  16.847   7.310  13.046  0.4299 -0.1992 -0.1370
 5533W        W23057   8.137   8.712   4.554  0.1647 -0.0502 -0.1694
 5534W        W23058   0.503   4.623  15.435 -0.1631 -0.0339  0.1887
 5535W        W23059  12.709  10.146  11.872 -0.0004 -0.1915 -0.2710
 5536W        W23060   5.571  13.075   0.516 -0.2785  0.2424  0.1164
 5537W        W23061   6.399  17.172   0.065  0.1235 -0.0650 -0.2046
 5538W        W23062   9.121  13.202   1.151 -0.0378 -0.2154 -0.0329
 5539W        W23063  17.499   3.251   3.516 -0.2321 -0.0935  0.2163
 5540W        W23064   2.860  14.485  15.674  0.1180  0.1872  0.1659
 5541W        W23065   1.676  14.483   3.857 -0.1120 -0.0821 -0.0754
 5542W        W23066  11.432  16.239  12.670 -0.1552 -0.0829  0.0771
 5543W        W23067   4.601   2.699  12.869 -0.2563 -0.0433 -0.0302
 5544W        W23068  12.133   7.950   1.929  0.1597  0.1796  0.1434
 5545W        W23069   8.224   4.795   2.823 -0.0941  0.2567 -0.1208
 5546W        W23070   0.980   7.832  10.173 -0.1007  0.0277  0.2934
 5547W        W23071   7.096   5.890  13.463 -0.2585  0.0266 -0.0399
 5548W        W23072   9.562  15.183  10.920  0.0813 -0.1013 -0.2798
 5549W        W23073   7.656  15.862   2.715 -0.0139  0.0974 -0.2527
 5550W        W23074  16.353   5.485  14.059 -0.0309  0.0352  0.2977
 5551W        W23075   4.646  10.870  11.786  0.1679  0.2583 -0.2688
 5552W        W23076  13.400   2.261  11.930  0.3584 -0.0124  0.0247
 5553W        W23077  13.928  14.715   4.465  0.0786  0.0009  0.3370
 5554W        W23078   6.244   0.065   0.539  0.5434 -0.2654 -0.0809
 5555W        W23079  16.630   2.319   2.672  0.0821 -0.3587 -0.0531
 5556W        W23080  11.743   8.620   0.128  0.0110 -0.0683  0.0012
 5557W        W23081  11.566  17.570   4.358 -0.1526  0.2225  0.0052
 5558W        W23082  16.274  16.448  11.507 -0.0233 -0.1301 -0.1883
 5559W        W23083   1.364   3.751  14.375 -0.0405  0.4509  0.0675
 5560W        W23084   5.738  10.503  14.406 -0.0889 -0.1910  0.1364
 5561W        W23085   9.215  16.530  11.446  0.0452  0.1696 -0.0514
 5562W        W23086   5.804  16.916  11.294  0.0527  0.1008 -0.1376
 5563W        W23087   4.586  13.627   1.501 -0.1399  0.2993  0.2784
 5564W        W23088   6.141  16.971   2.626 -0.2961 -0.1488  0.0521
 5565W        W23089   8.109   9.448  12.673 -0.1549  0.1165  0.1030
 5566W        W23090  10.220   2.657   4.730 -0.1629 -0.2543  0.0235
 5567W        W23091   0.804  14.457   0.731 -0.0289  0.1260  0.0284
 5568W        W23092  17.681  10.268  11.057 -0.3466 -0.1696 -0.1344
 5569W        W23093   9.837   8.949   1.387  0.0512 -0.4189 -0.0889
 5570W        W23094   1.035   2.149  10.777 -0.4197  0.0106  0.0075
 5571W        W23095  13.671   2.659   0.464 -0.4393 -0.3860 -0.0965
 5572W        W23096  17.158  15.793   4.890  0.1261  0.0318  0.1772
 5573W        W23097  14.750  16.276   2.521  0.0853  0.1305 -0.1878
 5574W        W23098  16.031  15.488  14.120  0.2029 -0.3156  0.2081
 5575W        W23099  12.466  12.111  12.997 -0.0959  0.3750  0.0784
 5576W        W23100  11.898   4.809  13.722 -0.1071  0.0866  0.0643
 5577W        W23101   6.307  12.652   0.075  0.2630 -0.1107 -0.1162
 5578W        W23102   1.812   5.575  14.443 -0.0663 -0.0972 -0.4379
 5579W        W23103   1.522   5.704  11.840 -0.0623  0.4584  0.2300
 5580W        W23104   0.695  10.670  15.466 -0.0004  0.0595  0.2578
 5581W        W23105  13.549  14.885  12.132  0.1904  0.1240  0.0192
 5582W        W23106   1.045  11.456  15.763 -0.3157  0.2623 -0.1085
 5583W        W23107   6.145   4.417  12.276 -0.2750  0.0852  0.0707
 5584W        W23108   3.897  11.469  13.538  0.2417 -0.1511 -0.1089
 5585W        W23109  14.131  13.143  15.506 -0.0950  0.1222  0.0833
 5586W        W23110  12.682   5.399   3.780  0.2463 -0.2176  0.1246
 5587W        W23111  16.810   5.336   3.016  0.1135  0.0431 -0.0336
 5588W        W23112   0.692   9.937   1.399  0.2811  0.2554 -0.1630
 5589W        W23113  10.722   6.838  11.130 -0.0705 -0.2119  0.2188
 5590W        W23114  13.943  13.461   4.411  0.0462  0.1957 -0.0288
 5591W        W23115   1.739   9.238   1.738 -0.0414  0.1846  0.2614
 5592W        W23116   7.737   5.389   0.266 -0.0572 -0.1503 -0.0325
 5593W        W23117  17.645  12.259  14.143  0.3658  0.3004  0.4445
 5594W        W23118  14.935   7.822   2.575  0.1965  0.0194  0.2043
 5595W        W23119   7.277   8.020   0.992 -0.3343  0.0108  0.0874
 5596W        W23120  12.432   4.652   2.587  0.0970 -0.1394 -0.1410
 5597W        W23121   9.429  14.088  14.764  0.0153 -0.1126 -0.0893
 5598W        W23122  15.734   1.509  14.693 -0.1050  0.2701 -0.1732
 5599W        W23123  10.746  12.878   2.058 -0.1501 -0.2620 -0.3976
 5600W        W23124  16.651  10.910   1.268  0.0157  0.4405  0.1177
 5601W        W23125  12.793   5.725   1.266 -0.3150 -0.0805  0.1636
 5602W        W23126   8.667   4.975   1.636 -0.1166 -0.1683 -0.1635
 5603W        W23127   5.285  11.845  11.847  0.3586 -0.2980  0.0695
 5604W        W23128  17.819  14.716  12.643 -0.0343 -0.2849  0.2241
 5605W        W23129   5.550  11.286   3.579 -0.3314 -0.0321  0.1209
 5606W        W23130  15.371   4.464  11.345  0.3057 -0.0252 -0.1362
 5607W        W23131   6.890   2.833  13.871  0.2055 -0.1580 -0.1633
 5608W        W23132  10.416   5.455   1.394  0.3528  0.0547  0.1589
 5609W        W23133  11.731  12.539  11.821  0.2656  0.3725 -0.1653
 5610W        W23134   9.905   4.555  13.240  0.4061  0.0736  0.0160
 5611W        W23135  16.866   6.342  14.645  0.0600 -0.1098  0.1093
 5612W        W23136   4.719   1.924  14.045  0.1945 -0.0690  0.2665
 5613W        W23137   1.105  10.356   0.675  0.0565 -0.2451  0.0440
 5614W        W23138   6.981   1.899  14.080  0.3529 -0.0932  0.0288
 5615W        W23139   7.677  16.615  13.833 -0.0875 -0.0829  0.0382
 5616W        W23140   6.452   9.464   4.573  0.3395 -0.0602  0.2214
 5617W        W23141  13.877   6.210  11.048 -0.1612  0.0955 -0.0519
 5618W        W23142   5.098  16.301   5.457  0.1816 -0.0998 -0.2250
 5619W        W23143  13.793   8.786   3.485  0.2932  0.0145  0.0621
 5620W        W23144  10.452  13.740   1.663  0.0340  0.1569  0.1345
 5621W        W23145  13.395  10.899  12.780 -0.0588  0.0069 -0.1638
 5622W        W23146   3.744   6.467  14.938 -0.2484  0.2340 -0.1802
 5623W        W23147   2.366  17.182  14.160  0.0173 -0.2677  0.4216
 5624W        W23148   3.847   1.169   4.987  0.1377 -0.2121 -0.1098
 5625W        W23149   3.216   2.760   2.954 -0.1052 -0.0062  0.1827
 5626W        W23150   6.098   4.406   1.940 -0.1218  0.1903 -0.1421
 5627W        W23151  12.891  18.323  15.484  0.2171 -0.1712 -0.1605
 5628W        W23152   5.514  16.238  15.272  0.0381  0.0924  0.2350
 5629W        W23153  12.302  15.457   2.027 -0.0647 -0.1610 -0.2400
 5630W        W23154  15.886   1.821   4.051  0.1309 -0.0536  0.1404
 5631W        W23155   6.019   6.383   4.528 -0.0304 -0.2958  0.0564
 5632W        W23156  13.957  10.075  11.417  0.3599 -0.1541 -0.2932
 5633W        W23157   4.752  18.336  13.171 -0.0822  0.1759  0.1356
 5634W        W23158   6.110  11.595  14.278 -0.3677  0.0749  0.0301
 5635W        W23159  17.417  15.206   0.192  0.0180 -0.1119 -0.2867
 5636W        W23160   6.108  18.143  10.895 -0.1665 -0.1915 -0.0320
 5637W        W23161   9.364  12.843   2.647  0.2249 -0.1040 -0.2774
 5638W        W23162   5.531   8.141   5.588  0.0985  0.1031  0.1380
 5639W        W23163   9.702   7.125  12.344  0.0864  0.1398 -0.2059
 5640W        W23164   8.303   7.661   1.461 -0.0512  0.0686  0.3877
 5641W        W23165  13.529   7.626   1.097 -0.0956  0.1414 -0.3407
 5642W        W23166   1.588  17.900  15.204 -0.0786  0.0446 -0.1961
 5643W        W23167   6.091  13.199  12.734 -0.0714  0.0746  0.0820
 5644W        W23168  13.312   3.986  15.161 -0.0527  0.2592 -0.0417
 5645W        W23169   9.569   2.778   4.584 -0.1159  0.0069 -0.0446
 5646W        W23170  11.709  15.618  11.825 -0.2857 -0.1249  0.1391
 5647W        W23171  12.193   3.662  13.513 -0.1460 -0.1864 -0.1082
 5648W        W23172   3.212   1.804   0.550  0.0303  0.0301 -0.1878
 5649W        W23173  16.435  13.493  12.950 -0.0529 -0.0239 -0.2981
 5650W        W23174   7.707  17.818  15.053 -0.1491 -0.1053 -0.2351
 5651W        W23175   5.524  16.123   2.063  0.0038 -0.5445  0.2819
 5652W        W23176   1.118  13.428  12.243  0.2883  0.0204 -0.1096
 5653W        W23177   5.096   0.720   4.147 -0.3807 -0.1750  0.0256
 5654W        W23178   5.095  18.109   3.203 -0.0166 -0.0789  0.6007
 5655W        W23179   7.266  16.515   1.683 -0.4568 -0.1471 -0.1360
 5656W        W23180   1.219   8.051   0.378  0.2559 -0.1401  0.1595
 5657W        W23181  14.696  12.253   2.463 -0.3116  0.0022  0.1480
 5658W        W23182   0.936  13.589  11.706 -0.1326  0.0618  0.1528
 5659W        W23183  17.486  18.183   3.424 -0.1222  0.0155 -0.0039
 5660W        W23184  15.763  13.689  12.221 -0.0244  0.0869  0.3174
 5661W        W23185   5.282   5.167  12.296  0.0780  0.2219  0.0771
 5662W        W23186   2.259  13.560   1.684 -0.0306 -0.1806  0.0628
 5663W        W23187   2.778  12.203   0.894  0.0598 -0.1025  0.2015
 5664W        W23188  17.579   1.693   1.702  0.1846 -0.2520 -0.2959
 5665W        W23189  16.255   8.362  11.604  0.1576 -0.4803 -0.0165
 5666W        W23190   1.271  10.858   4.618  0.0560 -0.0311  0.0108
 5667W        W23191  15.266   2.154   0.195 -0.0724  0.2797  0.5019
 5668W        W23192   2.897   1.810  11.478  0.0558 -0.1841 -0.0032
 5669W        W23193   4.878   0.105  15.677  0.0269 -0.0453 -0.3068
 5670W        W23194  15.255   8.222  11.170  0.2113  0.0141 -0.1219
 5671W        W23195  16.338   8.832  11.459 -0.0496  0.1567 -0.1362
 5672W        W23196  11.228  18.030   5.165 -0.0105  0.2187 -0.0147
 5673W        W23197  11.412  12.917   4.007  0.1317 -0.1313  0.1685
 5674W        W23198  17.332  10.151  13.622  0.0754  0.4053  0.4995
 5675W        W23199   0.107   4.469  12.987  0.1259  0.1847 -0.1341
 5676W        W23200   6.215   1.504  10.429 -0.0351  0.3128  0.3661
 5677W        W23201   8.141   2.814  10.384 -0.1865 -0.0708  0.0480
 5678W        W23202   4.548  14.402   3.939  0.0743 -0.1403  0.0150
 5679W        W23203  11.970   7.850  15.675  0.0491  0.1049 -0.0951
 5680W        W23204   1.526  12.444   2.643  0.0242 -0.0300  0.1451
 5681W        W23205   3.986   2.135   1.705 -0.1000  0.2308  0.0713
 5682W        W23206  17.089   7.534  15.606  0.2631  0.0531 -0.0183
 5683W        W23207   0.669   0.595   0.682 -0.0801 -0.1107 -0.0808
 5684W        W23208   6.877  13.698   2.877  0.0329  0.1711 -0.0702
 5685W        W23209   7.468  18.109   4.540  0.0519 -0.0903  0.2630
 5686W        W23210  13.517  15.412  14.651 -0.2965  0.0368 -0.2872
 5687W        W23211   7.340  15.056  10.772  0.1663  0.2165  0.1950
 5688W        W23212  15.954  18.323  15.686 -0.0128 -0.3347  0.0628
 5689W        W23213  14.953   3.524  11.781  0.0858  0.3524 -0.0306
 5690W        W23214   9.438  10.651   2.236  0.2326  0.1048 -0.2060
 5691W        W23215   2.632  17.793   3.031 -0.1003  0.0075  0.0666
 5692W        W23216   3.668  11.667  11.619  0.0820 -0.0506  0.2392
 5693W        W23217   1.413  14.663   3.476 -0.2864 -0.0108  0.2433
 5694W        W23218  10.322   5.154  14.846 -0.2440  0.1374  0.1537
 5695W        W23219  10.769  15.704  13.738 -0.0570  0.0150  0.1975
 5696W        W23220   8.152  17.278   4.180 -0.2144 -0.1193 -0.0711
 5697W        W23221  17.781   9.035  14.590 -0.1188  0.1047 -0.0479
 5698W        W23222   4.822   9.959   4.784  0.2373  0.0740  0.0796
 5699W        W23223  12.581   0.205  14.386  0.0405 -0.2033 -0.1609
 5700W        W23224   8.592   8.839  13.390  0.1812  0.2127  0.0088
 5701W        W23225  15.752   2.483  13.301 -0.2122 -0.1202  0.2585
 5702W        W23226  16.750  17.978  15.194  0.0313  0.0997  0.1281
 5703W        W23227  10.742  13.617   3.464 -0.0815 -0.3291  0.2848
 5704W        W23228   2.431  17.828   0.455  0.2250  0.4398  0.0763
 5705W        W23229  10.481   9.490   0.772 -0.1141  0.0932 -0.1355
 5706W        W23230   4.090   3.057   3.964  0.0137  0.0160  0.2919
 5707W        W23231  15.691  16.231  15.721  0.1571 -0.0804  0.2375
 5708W        W23232  13.886   4.665  13.893  0.3008  0.0834  0.1081
 5709W        W23233  11.011   6.189  14.366  0.1016  0.2074 -0.1245
 5710W        W23234   9.770   1.341   5.239 -0.1740  0.0141  0.1162
 5711W        W23235   5.617   4.035   1.526 -0.0432  0.3352  0.1233
 5712W        W23236  12.783  13.468  14.910  0.0017  0.3573 -0.1293
 5713W        W23237   8.473   6.527   0.085 -0.3547  0.1330  0.3001
 5714W        W23238   8.804   5.464  13.442 -0.1279 -0.0949  0.0737
 5715W        W23239  14.552  10.197  13.442  0.0676 -0.1426 -0.1303
 5716W        W23240  16.692   2.301  13.484  0.0381  0.0190 -0.0920
 5717W        W23241  11.201  17.576  12.581  0.1465 -0.0256  0.0855
 5718W        W23242   1.189   2.296   3.194 -0.3349  0.0024  0.0453
 5719W        W23243  14.869  13.074   4.379  0.1002 -0.2131  0.3310
 5720W        W23244   3.582  11.377  12.803 -0.2004 -0.1923 -0.0419
 5721W        W23245  10.933  13.443   2.960  0.0049 -0.1159  0.0339
 5722W        W23246  11.960   7.606  15.270  0.0064  0.1243 -0.2480
 5723W        W23247   1.361   2.065  11.192 -0.0551 -0.0910 -0.0397
 5724W        W23248  16.917   1.698   3.756  0.1650  0.2384 -0.0857
 5725W        W23249  11.979   1.986   0.478 -0.0790  0.2108 -0.3445
 5726W        W23250  16.846   5.198   0.765 -0.1387  0.1383  0.1650
 5727W        W23251   4.302   0.776   2.711  0.0235  0.0213  0.2410
 5728W        W23252   0.987  17.126   1.481  0.1401 -0.1164  0.1845
 5729W        W23253   2.449   9.933  14.427  0.0053 -0.2533  0.0030
 5730W        W23254   6.704  15.586   0.554  0.1367  0.1715  0.2303
 5731W        W23255  11.825   9.067   4.746  0.1152 -0.1359 -0.0303
 5732W        W23256   6.985   4.884  12.481 -0.1343 -0.1215 -0.1291
 5733W        W23257  15.652  16.688  15.040  0.0979  0.0493  0.0523
 5734W        W23258  16.278   1.783  11.118 -0.0383 -0.2085  0.1305
 5735W        W23259   3.246   2.322   0.658  0.0595 -0.2308  0.0566
 5736W        W23260   2.096  11.178   0.497  0.0670 -0.4946 -0.1002
 5737W        W23261   9.955   7.086  14.866  0.0551  0.0684 -0.0763
 5738W        W23262  11.005   8.251   2.650 -0.0869 -0.0566  0.0912
 5739W        W23263   9.658   1.171  15.351 -0.0239 -0.1174 -0.1351
 5740W        W23264  14.544   9.935  14.804 -0.0462  0.1973  0.0885
 5741W        W23265   8.690  10.526   2.734  0.0423  0.0422  0.3002
 5742W        W23266  12.777   1.226   2.093  0.3177  0.0636  0.1721
 5743W        W23267   7.626   3.722   0.809 -0.0940  0.0745  0.3129
 5744W        W23268   7.309   6.878   1.714 -0.2979  0.1403  0.1345
 5745W        W23269   6.429   9.099  11.640 -0.2101  0.3587  0.2294
 5746W        W23270   6.858  12.961   1.450  0.0510  0.0167 -0.1248
 5747W        W23271  15.015  13.251   0.635  0.1729 -0.0206  0.0689
 5748W        W23272   0.765   1.541   4.797 -0.2724  0.1999  0.1046
 5749W        W23273  12.750  17.616  15.827  0.2046  0.0868  0.0196
 5750W        W23274   7.387   0.807  13.824 -0.0542  0.1535 -0.2200
 5751W        W23275   3.923   5.496  13.578 -0.2412  0.0453 -0.1600
 5752W        W23276   7.377   9.338   2.352  0.2195  0.0795  0.3439
 5753W        W23277   5.318  13.047  14.325 -0.1547  0.1637 -0.2453
 5754W        W23278   8.553   5.621  11.315 -0.1245 -0.2599  0.3686
 5755W        W23279   5.500   0.553   4.804  0.0740 -0.0186 -0.0464
 5756W        W23280  15.916   8.542   2.525 -0.1046 -0.0989 -0.3513
 5757W        W23281   6.082  12.284  10.668  0.0695 -0.2186  0.0202
 5758W        W23282   2.378  15.737  12.825 -0.0807 -0.0379  0.0008
 5759W        W23283  15.784  14.572  14.700  0.1202 -0.1276 -0.1080
 5760W        W23284  11.602   1.853   4.959  0.0242  0.1511  0.1304
 5761W        W23285   6.390   2.915   2.208 -0.1797  0.1307 -0.1974
 5762W        W23286   8.409   5.237  11.605  0.4621  0.0804 -0.0622
 5763W        W23287  15.408  12.970   4.391  0.0546  0.1317 -0.0578
 5764W        W23288   0.937   5.417  15.443 -0.2229  0.0121 -0.1409
 5765W        W23289   2.036  12.331  10.776  0.0302  0.0671  0.0585
 5766W        W23290   5.471  15.029   0.950  0.1628 -0.0256 -0.3065
 5767W        W23291  14.214  17.621   0.329  0.0212  0.2146  0.1529
 5768W        W23292  11.073   9.162  13.789  0.3120  0.4406  0.0243
 5769W        W23293   8.686  15.574  14.857  0.1850 -0.1231 -0.0170
 5770W        W23294   0.906  15.388  11.388  0.2501 -0.1107  0.1362
 5771W        W23295  11.079   6.769  12.544 -0.2604 -0.5660 -0.1183
 5772W        W23296   9.223   8.023   0.324 -0.1608 -0.1182  0.0862
 5773W        W23297   3.163   8.074  14.225 -0.4105  0.2292 -0.0136
 5774W        W23298  13.386   2.437   5.484  0.0030  0.0162 -0.0494
 5775W        W23299  14.151   3.831  15.266 -0.0606 -0.2396  0.0391
 5776W        W23300   9.423   5.585  13.776  0.0981  0.1439  0.2265
 5777W        W23301  17.986  10.699  11.107  0.0461 -0.1013 -0.2513
 5778W        W23302   2.926   4.332   0.089  0.2219 -0.1893  0.1368
 5779W        W23303  12.939  16.827   0.878  0.0507  0.1999 -0.3198
 5780W        W23304  10.188   7.515   3.210 -0.2057  0.1005  0.3123
 5781W        W23305   4.074  13.300   2.334  0.2538  0.1197  0.1978
 5782W        W23306   8.792   8.292  15.540 -0.1999  0.0626 -0.1833
 5783W        W23307   5.118  13.993  15.265  0.1477  0.2191  0.1006
 5784W        W23308  13.198  17.489   3.698 -0.0392 -0.0076  0.1336
 5785W        W23309   7.627  13.455   0.658  0.0352  0.1239 -0.0172
 5786W        W23310   2.040  17.790   1.506  0.0332  0.1439  0.1078
 5787W        W23311  12.776  15.878  14.584  0.0038  0.0217  0.2648
 5788W        W23312  12.221   9.536  12.380  0.2717  0.0076  0.1581
 5789W        W23313  11.152   8.393   0.856  0.0088  0.1819  0.0374
 5790W        W23314  11.863   9.609   1.948  0.0471  0.0223  0.1010
 5791W        W23315  18.216   4.546   0.775  0.1569  0.0392 -0.2375
 5792W        W23316  12.153   0.606  12.370  0.0410  0.1261  0.0691
 5793W        W23317  10.410  10.549   5.486  0.0840  0.0832 -0.1078
 5794W        W23318  10.767  17.722   1.337  0.1135 -0.0805  0.1498
 5795W        W23319  15.138   9.925  11.467  0.1935  0.1885  0.2273
 5796W        W23320   4.008  12.720   2.264  0.0314  0.1703 -0.1807
 5797W        W23321  14.978   0.598  13.840 -0.0762  0.1599 -0.2250
 5798W        W23322   8.960  17.577   0.794  0.0486  0.2040 -0.3798
 5799W        W23323   7.199  15.278   0.521  0.2009 -0.0338 -0.1981
 5800W        W23324  12.013  17.056  12.673  0.0186 -0.0946 -0.0271
 5801W        W23325   4.532  13.817  13.273  0.0522 -0.1498  0.6494
 5802W        W23326  15.338   9.984  15.465  0.1197 -0.3350 -0.2603
 5803W        W23327   1.633  14.171  10.977 -0.4219 -0.1190 -0.1400
 5804W        W23328   6.635   4.491   4.992 -0.0194  0.0269 -0.1727
 5805W        W23329   0.117  11.928  14.214  0.0532 -0.1247 -0.0514
 5806W        W23330   3.535  18.229  15.528 -0.2125  0.1271 -0.1748
 5807W        W23331   7.317  17.975   3.950 -0.1771 -0.2309  0.1385
 5808W        W23332   1.369   2.111   1.822 -0.2807  0.1155  0.2501
 5809W        W23333   8.199   7.347   3.778 -0.2890 -0.1256 -0.0207
 5810W        W23334   8.689   9.647  11.321  0.3968 -0.1503 -0.1243
 5811W        W23335  14.376  10.388   3.577 -0.1806  0.2730 -0.0013
 5812W        W23336  14.723  12.260  14.627 -0.0325 -0.0240 -0.0986
 5813W        W23337  15.286   5.243  14.112 -0.0245  0.5288 -0.0451
 5814W        W23338   2.003   0.285   1.474 -0.2631 -0.2221 -0.1976
 5815W        W23339   3.251  12.039   6.014  0.0531 -0.1274 -0.3654
 5816W        W23340   5.664   7.593  11.396 -0.1449 -0.0020 -0.2787
 5817W        W23341  14.834   2.237  11.766  0.1823  0.0162  0.0271
 5818W        W23342   8.683  13.346   4.639  0.0322 -0.0968 -0.2004
 5819W        W23343   1.100   8.117   1.260  0.0895  0.0694  0.0291
 5820W        W23344   6.701   4.848  14.887 -0.2655  0.1388  0.0418
 5821W        W23345   1.950  13.399   1.255 -0.0808 -0.0661  0.2119
 5822W        W23346  11.247  11.331  15.041  0.0469 -0.1250 -0.0680
 5823W        W23347   0.646   9.200   1.869  0.0275 -0.4486 -0.1534
 5824W        W23348   6.379   3.300   3.277  0.2570 -0.1044 -0.1130
 5825W        W23349   1.274   8.964  14.030  0.0903  0.2993  0.2558
 5826W        W23350   7.055   0.092  14.077 -0.0482 -0.3333 -0.0851
 5827W        W23351  16.081   9.100  14.698  0.0502 -0.0718 -0.3348
 5828W        W23352  17.962   7.770  14.672 -0.3350  0.1895 -0.0505
 5829W        W23353  17.438  17.222  13.414  0.0198 -0.2543  0.0949
 5830W        W23354  11.766  17.602   2.083  0.0768  0.0322 -0.2310
 5831W        W23355   1.484   7.152   3.454 -0.0795 -0.1103 -0.2912
 5832W        W23356   1.899  17.315   1.139 -0.0862 -0.0293 -0.1109
 5833W        W23357   8.961   4.684  15.758  0.1364 -0.1032 -0.5548
 5834W        W23358  12.947   3.882  14.888  0.1374  0.2172  0.1817
 5835W        W23359   9.396  16.911   2.947  0.2148 -0.3180  0.1462
 5836W        W23360   0.228  17.480  15.416 -0.0654  0.0269  0.2335
 5837W        W23361   0.734   8.128  11.655  0.2833 -0.0278 -0.1125
 5838W        W23362  15.417   8.641  14.333  0.0887  0.4076  0.2097
 5839W        W23363   4.332   0.110   4.304 -0.0070 -0.0283  0.2384
 5840W        W23364   6.615  17.073  13.107 -0.0368  0.0066  0.3020
 5841W        W23365   8.293   2.266   0.887  0.2681  0.1203  0.1978
 5842W        W23366  10.635  11.238   1.501  0.2184 -0.0105 -0.2137
 5843W        W23367  14.922   2.499  13.524  0.0438  0.1710 -0.0026
 5844W        W23368   2.788   4.925   2.215 -0.0083  0.3113  0.1114
 5845W        W23369   1.898  14.780  12.818 -0.0276 -0.2471  0.0735
 5846W        W23370  16.944   7.330   0.141  0.3720  0.0492  0.0316
 5847W        W23371  13.652  14.144  14.072 -0.1518 -0.0059 -0.0744
 5848W        W23372   6.125   9.107   4.462 -0.0490  0.0472  0.1281
 5849W        W23373  17.589  12.612  11.587 -0.1299 -0.1071 -0.1280
 5850W        W23374   3.550   7.684   4.126 -0.1057  0.0337 -0.1989
 5851W        W23375  13.284  11.949  13.660  0.4320 -0.0316  0.1935
 5852W        W23376  13.094  17.680  14.814 -0.1132  0.2960  0.1029
 5853W        W23377   0.782   1.566  14.718  0.0522  0.0855  0.3032
 5854W        W23378  15.000  13.747   5.205 -0.0642 -0.4415  0.0478
 5855W        W23379  13.786   1.932  13.484 -0.1562 -0.3395  0.2910
 5856W        W23380   1.719  16.127   0.436  0.0834  0.2586  0.2056
 5857W        W23381   0.309  16.772   3.375  0.1935  0.3546  0.0592
 5858W        W23382   3.881  13.646   0.209 -0.1440 -0.0890 -0.2445
 5859W        W23383  17.650  17.742   3.642 -0.3300  0.3953 -0.1256
 5860W        W23384   5.066  16.178  13.234 -0.0181 -0.5005  0.2751
 5861W        W23385   5.322   3.951   1.097  0.1574  0.2181 -0.0152
 5862W        W23386   3.782   9.535  14.808 -0.1802 -0.0847 -0.0435
 5863W        W23387   8.219  11.129   0.266 -0.0115  0.0663 -0.0487
 5864W        W23388   0.649   8.775   2.736  0.1865  0.0631 -0.1190
 5865W        W23389   2.384   8.387  12.954  0.1673 -0.0154  0.0478
 5866W        W23390  15.069   3.514   1.492  0.1711 -0.0820 -0.1122
 5867W        W23391  10.974  13.969  15.715  0.4300 -0.0540 -0.0177
 5868W        W23392   2.177  16.196   0.412 -0.0225 -0.2757  0.0671
 5869W        W23393   4.399   8.474   0.619  0.0030  0.1082 -0.2407
 5870W        W23394  15.284  17.876   2.173 -0.0993 -0.1208 -0.0880
 5871W        W23395   1.639   7.165  11.429 -0.0883 -0.4394 -0.2409
 5872W        W23396   9.698  14.214   2.758  0.3511  0.2193  0.1925
 5873W        W23397   8.637  16.063   4.638  0.1032 -0.1572 -0.3065
 5874W        W23398  13.922   4.082   1.757 -0.0223 -0.0163 -0.0788
 5875W        W23399   8.536  15.100  12.871 -0.2023  0.1190 -0.0855
 5876W        W23400  16.859  16.343  13.346  0.1557 -0.1754  0.0537
 5877W        W23401   6.099   2.594  13.084  0.2311  0.1186 -0.2571
 5878W        W23402  16.976   6.978  11.772 -0.2292  0.2871 -0.0527
 5879W        W23403   0.781   6.386  12.073  0.1503  0.0761 -0.0897
 5880W        W23404  10.404   6.523   2.335  0.2310 -0.0250  0.0992
 5881W        W23405   7.142  16.449  12.088 -0.1637 -0.1664 -0.3220
 5882W        W23406  15.750  14.649   4.417  0.0539 -0.0833 -0.0619
 5883W        W23407  15.102   7.370  14.138  0.0331  0.1132  0.3887
 5884W        W23408  12.315  10.466  14.377 -0.0274 -0.0734  0.0214
 5885W        W23409   8.306   0.655   2.129  0.3046 -0.2858  0.3478
 5886W        W23410  12.304   7.248  15.216 -0.1093  0.1382  0.0266
 5887W        W23411  12.751   5.120   2.879  0.0607  0.1967  0.0098
 5888W        W23412  11.049   9.375   4.610 -0.0440  0.1943 -0.1128
 5889W        W23413   6.563   7.324  14.508  0.1079  0.2996 -0.0377
 5890W        W23414  17.845  14.555   1.048 -0.3076  0.3387  0.1221
 5891W        W23415   5.007   8.926  11.973 -0.0506 -0.4000 -0.0359
 5892W        W23416  17.120  11.305  10.962 -0.4626 -0.3251 -0.0416
 5893W        W23417  11.105   8.425  12.630  0.1952  0.0166 -0.1083
 5894W        W23418   6.068  11.089  15.285  0.1728  0.2727 -0.1411
 5895W        W23419  11.879  14.270  11.907 -0.3996 -0.3863 -0.1045
 5896W        W23420  17.450  15.416   0.958  0.0615  0.3050  0.0082
 5897W        W23421  17.237   0.528   2.520 -0.1997  0.2615 -0.4254
 5898W        W23422   6.315   0.558   2.242  0.0745  0.2466 -0.1382
 5899W        W23423  10.859   5.164   2.851 -0.1529  0.0431  0.0704
 5900W        W23424   5.709   7.464   2.281  0.1940 -0.2491  0.1631
 5901W        W23425   1.413  13.996  13.488 -0.0259 -0.3927 -0.1930
 5902W        W23426  16.205  15.657   3.399  0.2707 -0.1506 -0.0467
 5903W        W23427   0.124   0.718  11.401  0.0895 -0.1102 -0.1414
 5904W        W23428  10.074  18.188   5.148 -0.0337 -0.0452 -0.2480
 5905W        W23429  16.904   2.420  15.601  0.4536 -0.1831 -0.1113
 5906W        W23430  17.146   4.421   4.021 -0.2625 -0.2216 -0.1339
 5907W        W23431   1.490  18.104   3.679  0.1001  0.1544 -0.1730
 5908W        W23432   5.204   6.474  12.852  0.0476 -0.0002 -0.2395
 5909W        W23433  17.154   2.492  13.477  0.2069  0.0744 -0.1850
 5910W        W23434   3.113  15.519  13.463 -0.0110 -0.1058  0.1023
 5911W        W23435  13.753  10.749   4.376  0.0651 -0.0761  0.2467
 5912W        W23436   0.104   4.562  12.496 -0.1768 -0.1703  0.2065
 5913W        W23437   8.383   1.183  12.872  0.4347 -0.1601 -0.2003
 5914W        W23438  16.407   8.059   3.636  0.4226 -0.0623 -0.1264
 5915W        W23439   9.687   5.159   4.567 -0.0569 -0.1093 -0.0574
 5916W        W23440   8.874   5.098  14.777  0.1835 -0.0986 -0.1093
 5917W        W23441   8.818  12.964   2.789 -0.0488 -0.0090  0.1555
 5918W        W23442  11.087  14.937   5.067 -0.2357 -0.2155  0.0054
 5919W        W23443  15.968  14.816   3.272  0.2115 -0.0593 -0.3308
 5920W        W23444   6.690   9.647  12.001 -0.1536  0.1955 -0.0036
 5921W        W23445   4.057   0.535   0.206  0.2686  0.3993  0.0833
 5922W        W23446   7.750   4.003  13.746 -0.0882 -0.1476 -0.2301
 5923W        W23447  16.833   2.191  11.997  0.0731 -0.1947 -0.2578
 5924W        W23448   4.692   6.278  15.777  0.2112 -0.0210  0.0148
 5925W        W23449  13.278   8.896  13.238 -0.2931  0.1549  0.0231
 5926W        W23450  11.899   7.990   2.763 -0.1255  0.2495 -0.0094
 5927W        W23451   3.303   6.644  13.980  0.0433 -0.1258  0.0918
 5928W        W23452   9.156   3.963  11.068  0.1260 -0.1731  0.0150
 5929W        W23453  14.975  10.355   4.388  0.1299  0.0041 -0.0559
 5930W        W23454  11.233   9.261   5.819 -0.1648  0.0674 -0.1163
 5931W        W23455   8.826  16.512   6.217 -0.0273 -0.0698 -0.1198
 5932W        W23456   8.586   1.370   2.459  0.0869 -0.0280  0.1576
 5933W        W23457   7.018   0.425  11.434  0.0219  0.0353  0.0997
 5934W        W23458  10.728   7.346  11.417  0.1108  0.0739  0.0689
 5935W        W23459   9.455   5.560   0.086 -0.0580 -0.1303  0.1422
 5936W        W23460   6.172  10.342   3.502  0.0600  0.4520 -0.0820
 5937W        W23461  17.317  16.088   1.200 -0.0786 -0.0360  0.2062
 5938W        W23462  16.203   3.356   2.568  0.0231  0.2326  0.2764
 5939W        W23463  18.263  17.892  15.608  0.0556  0.1117 -0.3641
 5940W        W23464  15.163   6.763  14.919 -0.1894  0.0955 -0.0102
 5941W        W23465   5.123  15.270   3.209  0.2997 -0.1942 -0.2713
 5942W        W23466   8.968  13.718  14.587 -0.0941  0.0188 -0.2900
 5943W        W23467  13.341   5.888   1.173  0.1464  0.2924  0.2290
 5944W        W23468  10.451   7.233  10.966 -0.3629 -0.3150 -0.2920
 5945W        W23469  10.042  12.854   5.054 -0.1466  0.0624  0.0479
 5946W        W23470   3.450   9.302  12.428  0.1175 -0.0988  0.0740
 5947W        W23471   6.695  14.474  12.871 -0.1779 -0.2856 -0.1903
 5948W        W23472  13.217  11.139  15.349  0.0037 -0.3263  0.1201
 5949W        W23473  12.600   7.427  11.046  0.0524 -0.1485  0.1765
 5950W        W23474   9.052   8.717  13.292  0.3388 -0.1804  0.4829
 5951W        W23475  16.780  13.498  12.043 -0.3790  0.1942 -0.0683
 5952W        W23476  12.098  17.469   2.469  0.2671  0.2533 -0.2710
 5953W        W23477   3.698   8.947  12.072 -0.3397  0.0443 -0.2969
 5954W        W23478  18.223  10.309   1.799 -0.0577  0.1831  0.1155
 5955W        W23479  12.665   7.132  11.434  0.0231 -0.4094  0.2582
 5956W        W23480  12.805  10.591   4.319 -0.0450 -0.0862 -0.3652
 5957W        W23481   2.019   6.947  11.938 -0.1165 -0.3099  0.2136
 5958W        W23482   8.419   8.769   2.938  0.0760 -0.0133 -0.2246
 5959W        W23483   1.964   4.750  13.403 -0.2160 -0.1160  0.4544
 5960W        W23484   5.692  10.464  15.701 -0.0236  0.4715  0.0959
 5961W        W23485   6.387   5.593  14.398 -0.2109 -0.1752  0.0878
 5962W        W23486  14.082   1.245   3.881 -0.2160 -0.3254  0.0940
 5963W        W23487   6.640   6.904   3.006  0.1035  0.0202 -0.0657
 5964W        W23488   0.527  13.671  12.559 -0.1360 -0.2654  0.0417
 5965W        W23489  15.106   0.177  14.141 -0.0369  0.0262 -0.6687
 5966W        W23490   1.233   1.478   1.454 -0.2003 -0.2530  0.1947
 5967W        W23491  17.299  17.445   4.407  0.0631 -0.0967 -0.0135
 5968W        W23492   9.589  11.110  15.856  0.3103  0.1182  0.0550
 5969W        W23493  14.389  18.048  13.541 -0.0776  0.0047 -0.1481
 5970W        W23494  13.006   8.783  12.624  0.0080 -0.0400  0.1032
 5971W        W23495  11.100   6.385   0.163  0.0267  0.2011 -0.2475
 5972W        W23496  15.050  11.215  14.277  0.1703 -0.0616 -0.1734
 5973W        W23497  11.796   9.798  12.875 -0.1559  0.1107 -0.2954
 5974W        W23498   5.564  14.926  15.827  0.3579  0.2199 -0.0421
 5975W        W23499   7.167   3.401   0.904 -0.3622  0.2097 -0.0988
 5976W        W23500  14.307  14.996   3.663 -0.0690 -0.1047  0.0636
 5977W        W23501   9.551   1.339   4.801 -0.1696  0.1744 -0.1463
 5978W        W23502   4.636   4.673   4.286  0.1739  0.1439 -0.1183
 5979W        W23503  15.065  13.898  12.738  0.0153 -0.3012  0.2748
 5980W        W23504  16.142  16.386  12.165  0.0838  0.2277  0.0821
 5981W        W23505  15.050  10.383   2.830 -0.1991  0.3977  0.0798
 5982W        W23506  10.805  15.135   1.819 -0.1397  0.0610 -0.1136
 5983W        W23507  12.566  12.927   4.841  0.0535  0.2750 -0.1220
 5984W        W23508   1.083   0.747  12.552  0.1168  0.0758  0.0760
 5985W        W23509   3.792   9.384   1.659 -0.0265 -0.4889  0.2019
 5986W        W23510  16.097  11.577  13.213  0.2188  0.2447 -0.0574
 5987W        W23511   6.939  11.072  15.654 -0.2815  0.2576  0.3145
 5988W        W23512   1.284   4.382  12.694  0.1220 -0.1612  0.0407
 5989W        W23513  11.789   3.772   0.505 -0.3066  0.0415  0.0118
 5990W        W23514   3.859   5.981   4.613  0.0676  0.0772  0.3205
 5991W        W23515  12.620   7.636   2.668  0.0390  0.0968  0.1759
 5992W        W23516   5.738   6.613  13.032 -0.1681  0.0398  0.0130
 5993W        W23517  17.690   0.551   0.886 -0.0822  0.0038 -0.0023
 5994W        W23518  11.791  10.281  15.252 -0.1111  0.1285 -0.3833
 5995W        W23519   6.454   9.824   0.656  0.1109 -0.3307 -0.1516
 5996W        W23520  14.742   5.400  15.143  0.2089  0.0186 -0.3959
 5997W        W23521  11.064   4.541   3.248  0.1038  0.0114  0.1379
 5998W        W23522   1.277  16.709  13.601 -0.1760  0.2367  0.3368
 5999W        W23523   4.408   2.743   2.293  0.0036 -0.3935 -0.2836
 6000W        W23524  12.908   8.639  15.186  0.0174  0.1705  0.1852
 6001W        W23525  12.934   4.654   2.746  0.0740  0.3258 -0.0620
 6002W        W23526   7.650   6.202   2.157 -0.1513 -0.0339 -0.0164
 6003W        W23527  16.879   3.528  15.579  0.1117 -0.2185 -0.0937
 6004W        W23528   0.191   6.976  15.335  0.1285  0.1385 -0.0575
 6005W        W23529   9.697   6.453  12.442 -0.2201  0.1765  0.2250
 6006W        W23530  10.745  16.086  14.071 -0.0519 -0.1753 -0.1139
 6007W        W23531  15.939   8.156   6.044  0.1080 -0.1167 -0.2871
 6008W        W23532   5.630  14.455  13.048  0.2317 -0.0244  0.2903
 6009W        W23533   9.168   8.507   0.171 -0.0321 -0.3540  0.1835
 6010W        W23534   3.283  16.262   0.558 -0.1938  0.1637  0.1400
 6011W        W23535  10.846   9.123  11.798  0.0665 -0.0612 -0.0046
 6012W        W23536   6.800   7.681  14.005  0.0050  0.1109  0.5322
 6013W        W23537   8.660  15.583   0.191 -0.2273 -0.0928  0.2114
 6014W        W23538  16.188   4.563  13.729  0.1239  0.0430 -0.0856
 6015W        W23539  13.332  12.136   0.573  0.0456 -0.2760 -0.1251
 6016W        W23540  17.335   0.714   1.929 -0.1397 -0.3572 -0.0386
 6017W        W23541  13.145  15.362   1.595 -0.0153 -0.1778  0.0182
 6018W        W23542  12.045   6.648  11.344  0.1207 -0.2234  0.1671
 6019W        W23543   9.767  14.478   1.308  0.1243 -0.4822  0.0205
 6020W        W23544  17.411   3.524   1.130  0.0054  0.0232 -0.0276
 6021W        W23545   3.653   6.796  13.542  0.3465  0.1277  0.2146
 6022W        W23546   1.545   9.248   3.245  0.0547 -0.1688  0.1323
 6023W        W23547  15.244  11.452   2.007 -0.0713 -0.0110 -0.0534
 6024W        W23548   8.357  11.280   1.533 -0.0109 -0.1520 -0.1437
 6025W        W23549  15.632  10.362  15.649 -0.1021 -0.1598 -0.2621
 6026W        W23550  14.695  11.373  15.109  0.1742 -0.0807 -0.0429
 6027W        W23551   9.928  17.699   2.964 -0.3745  0.1715  0.0831
 6028W        W23552  16.659   8.305   5.443 -0.6036 -0.0718 -0.0093
 6029W        W23553   4.778   2.998   0.256  0.0084 -0.4658 -0.2148
 6030W        W23554   5.069   2.216  15.704 -0.0599 -0.2071 -0.1215
 6031W        W23555  17.780   7.092   3.565  0.1489  0.3112  0.3777
 6032W        W23556   8.099  16.256   2.277 -0.0965  0.3023  0.2336
 6033W        W23557   4.841  10.008   1.867 -0.4083  0.1748 -0.1221
 6034W        W23558   1.261   2.601   1.891 -0.1400 -0.0003  0.0206
 6035W        W23559   4.848  12.073   9.851 -0.0638  0.2212 -0.2144
 6036W        W23560   3.385   9.082   1.923 -0.2804 -0.0138 -0.0657
 6037W        W23561  13.539   9.309   1.576  0.0466  0.3053  0.1096
 6038W        W23562   1.777  14.962  13.789 -0.1124  0.2344 -0.0522
 6039W        W23563  10.373  15.498   4.690 -0.1619 -0.0708  0.3986
 6040W        W23564   6.721   9.390   0.520 -0.2782 -0.0341  0.2457
 6041W        W23565  10.011   3.915   4.957 -0.0825 -0.2751  0.1712
 6042W        W23566  17.121  18.320  13.276  0.0495 -0.3641 -0.0614
 6043W        W23567  12.971  11.997   2.857 -0.2679 -0.2056  0.1538
 6044W        W23568  13.429  14.495   0.522  0.0276 -0.3344 -0.1769
 6045W        W23569  13.862  12.403  12.985  0.1894 -0.2180 -0.2501
 6046W        W23570   5.263  12.687   4.283 -0.2173  0.1297  0.0408
 6047W        W23571   4.979   9.960   3.720 -0.0110 -0.0071  0.1449
 6048W        W23572  17.195  18.350   0.685 -0.4206  0.0585 -0.3110
 6049W        W23573  18.080  16.123  13.994  0.1808 -0.1724 -0.0256
 6050W        W23574   3.586   9.093  11.557 -0.0243 -0.3057 -0.2496
 6051W        W23575  16.366   1.344  13.329 -0.1913  0.1057  0.2661
 6052W        W23576  15.649  12.050   1.385 -0.0537 -0.2414  0.0008
 6053W        W23577   2.518   3.240   2.266 -0.0596 -0.1587 -0.3328
 6054W        W23578   2.632  11.071  12.375 -0.0620  0.1754  0.0870
 6055W        W23579   5.082   0.660   1.313  0.4110  0.1996  0.1108
 6056W        W23580  15.421  18.076   3.828 -0.1673  0.0858  0.1039
 6057W        W23581  17.002  16.106   3.500  0.0585 -0.0840 -0.0478
 6058W        W23582   7.828   9.451  14.135 -0.1989  0.1679  0.2306
 6059W        W23583  14.870  14.610   1.055 -0.3110  0.3146 -0.1337
 6060W        W23584  13.070  15.654  15.420 -0.3775 -0.1917  0.0746
 6061W        W23585   4.154  16.740  13.085 -0.0491  0.2238 -0.0221
 6062W        W23586  14.994  10.831  13.756 -0.2210  0.3686  0.0455
 6063W        W23587  17.301   5.648   4.607 -0.3013 -0.3213 -0.0577
 6064W        W23588   3.288  12.161  13.638  0.0908 -0.0449 -0.1898
 6065W        W23589   1.924  13.988   2.394 -0.3745 -0.0523  0.0004
 6066W        W23590   8.779  17.235   5.329 -0.2688  0.0169  0.0324
 6067W        W23591   4.120  17.118   1.108 -0.0788  0.1215  0.4928
 6068W        W23592   4.124  14.932  11.625 -0.1302 -0.1867 -0.3127
 6069W        W23593   7.103  13.685   4.072  0.3518 -0.4055 -0.0860
 6070W        W23594  18.010  17.175   1.712  0.2146  0.4108 -0.2872
 6071W        W23595  14.522  17.678   1.759 -0.4095 -0.1376  0.3830
 6072W        W23596  10.331   8.747  11.265  0.2569 -0.0894  0.0855
 6073W        W23597   2.279   4.203  12.395 -0.1571 -0.1375 -0.1375
 6074W        W23598   5.381   0.639   2.633 -0.1934 -0.0485 -0.2821
 6075W        W23599  12.396  12.796   2.682  0.2678 -0.3621  0.0003
 6076W        W23600  15.225  17.403  11.691 -0.2035 -0.0684 -0.0143
 6077W        W23601   8.551  13.848  15.434  0.0635  0.2087 -0.1045
 6078W        W23602   9.739  13.143  12.690 -0.1530 -0.1077 -0.3136
 6079W        W23603   4.389  14.820  14.645  0.1406  0.0595 -0.7070
 6080W        W23604  17.467   1.682   3.620  0.2810 -0.2630  0.0718
 6081W        W23605  14.366   8.304  14.839  0.0299  0.0659 -0.1164
 6082W        W23606  15.141  13.706   1.524 -0.0766 -0.1806 -0.2121
 6083W        W23607  14.555   7.079   2.785  0.2159 -0.0477 -0.0984
 6084W        W23608  16.017   4.936  13.453 -0.4673 -0.3683  0.0084
 6085W        W23609  17.573   9.906  11.517  0.2918  0.1951  0.0298
 6086W        W23610   5.112   3.852   5.406 -0.2167  0.0231  0.1886
 6087W        W23611   8.028   8.882   2.487 -0.1611 -0.4025  0.1671
 6088W        W23612  16.257  12.855  11.129  0.2515 -0.1343 -0.0294
 6089W        W23613  17.306   6.506   2.579 -0.2997 -0.4372 -0.0826
 6090W        W23614   9.739   0.889   5.042 -0.0454 -0.2493  0.0100
 6091W        W23615   0.930   7.289   1.785 -0.1811 -0.0402 -0.0938
 6092W        W23616   6.177   9.503  11.448 -0.1677 -0.0147 -0.2469
 6093W        W23617   3.588  17.245   4.486  0.0389  0.0355 -0.1504
 6094W        W23618  14.624   7.502   2.423 -0.0423 -0.0819 -0.4007
 6095W        W23619   0.176  12.645  13.256 -0.0826 -0.0770  0.0613
 6096W        W23620  11.497   5.955  10.682  0.4075  0.2228  0.1587
 6097W        W23621  13.964   0.561  14.217  0.1217 -0.0733  0.0169
 6098W        W23622  12.903  12.368   0.844  0.3792  0.2200  0.1943
 6099W        W23623   0.747   2.832   2.049 -0.2688  0.0723  0.3650
 6100W        W23624  18.291  12.603  10.934 -0.1176 -0.3204  0.2372
 6101W        W23625  17.359   3.018   0.039  0.0814  0.1100  0.2043
 6102W        W23626  11.320  13.885   0.988 -0.0761 -0.0665  0.2982
 6103W        W23627   6.377  16.145   1.414 -0.4868  0.2313  0.1843
 6104W        W23628   8.277   3.425   1.256  0.0881  0.1456 -0.3185
 6105W        W23629  18.328  18.202  12.808 -0.0134  0.0479 -0.1744
 6106W        W23630  13.734  18.140  14.087  0.4641  0.1116  0.2651
 6107W        W23631   9.189  16.609  13.607  0.1256  0.1324  0.0519
 6108W        W23632  14.610  16.727   0.523  0.2693 -0.0138 -0.2846
 6109W        W23633   5.251  18.263  13.210 -0.0494 -0.2046  0.0718
 6110W        W23634  13.109  13.076  11.433 -0.1319 -0.1060  0.0281
 6111W        W23635   8.348   0.651  13.547  0.1945  0.0313 -0.0137
 6112W        W23636   7.979  16.271   3.657  0.0304  0.0063  0.1968
 6113W        W23637  10.490   2.158   2.081  0.0381  0.1009  0.0545
 6114W        W23638   1.594  17.858  15.761 -0.3744 -0.0665 -0.1772
 6115W        W23639  11.337   0.275  13.081  0.1397 -0.3689  0.1398
 6116W        W23640   8.285  10.741   5.831 -0.2889  0.2177  0.1329
 6117W        W23641   0.046  14.502   3.876  0.1830  0.0370  0.1919
 6118W        W23642   0.444  12.958   4.571  0.2096  0.0466 -0.0071
 6119W        W23643   3.001   0.846  11.981  0.0123  0.0515  0.2763
 6120W        W23644  11.460  17.766  13.522  0.1528 -0.0075  0.0912
 6121W        W23645  17.027   5.100   3.519 -0.1452  0.1580 -0.0229
 6122W        W23646   1.940   6.113   2.255  0.0351 -0.2490 -0.3285
 6123W        W23647  11.707   4.970   4.442  0.0539  0.2629  0.1059
 6124W        W23648  17.813   5.568  12.135  0.0666 -0.2963 -0.0922
 6125W        W23649   3.640  17.523  13.483  0.0672  0.3767  0.1667
 6126W        W23650  16.665   5.507   4.994 -0.0043  0.2364  0.1617
 6127W        W23651  14.397   6.444   5.023 -0.0235 -0.2121  0.0783
 6128W        W23652   7.447  17.353  13.237 -0.3000  0.3914  0.1068
 6129W        W23653   9.618  10.090   1.030  0.2138  0.3615  0.1199
 6130W        W23654  12.545   2.526   1.316 -0.2159 -0.1186  0.1244
 6131W        W23655  11.576   3.316  12.387  0.1155 -0.5059 -0.0316
 6132W        W23656   9.752   2.735   3.015 -0.0947 -0.1262  0.0149
 6133W        W23657   7.944   5.045   1.667 -0.0727  0.2550 -0.4061
 6134W        W23658   0.568  17.802  13.826  0.4065  0.0405 -0.1118
 6135W        W23659   4.615   3.742  10.810 -0.1704  0.1365  0.0739
 6136W        W23660   3.633   8.127  11.410 -0.2861  0.1387  0.0323
 6137W        W23661   5.460  11.626  14.744 -0.2669  0.0576  0.0124
 6138W        W23662   2.120   8.356   0.964 -0.1597  0.1889  0.0311
 6139W        W23663   3.459  16.803  11.480  0.1997  0.1930 -0.1381
 6140W        W23664   0.814   4.051  13.173  0.0006  0.1120  0.0918
 6141W        W23665  15.851  16.704  15.521  0.4340  0.0014  0.1784
 6142W        W23666   2.891  17.667   5.255 -0.2625  0.3943  0.1459
 6143W        W23667   4.348  11.659  13.338  0.6420  0.0754 -0.0055
 6144W        W23668  12.117  17.489  12.495  0.1741 -0.2065 -0.1324
 6145W        W23669   1.194  14.394   4.625 -0.0154  0.2760  0.1257
 6146W        W23670   1.960   1.474   4.875 -0.3063 -0.1726 -0.0063
 6147W        W23671   0.693  17.858   2.205  0.1612  0.0151  0.0727
 6148W        W23672   0.832   4.364  12.358 -0.0710  0.0051  0.0913
 6149W        W23673  12.469  15.294   3.971  0.1726 -0.0148  0.2334
 6150W        W23674   2.513   9.404   4.245 -0.2214  0.2688 -0.2169
 6151W        W23675  14.269   4.563   2.986 -0.2914 -0.2674 -0.2899
 6152W        W23676   0.984   6.735   0.873 -0.1465 -0.2304  0.0921
 6153W        W23677   1.776  10.624  10.022 -0.1256 -0.2711  0.2099
 6154W        W23678  12.240   3.759   2.019 -0.4385  0.1284 -0.0042
 6155W        W23679  10.230  18.118   2.818  0.0649  0.4146  0.0551
 6156W        W23680  12.777  11.353  12.326 -0.2105 -0.0383  0.0701
 6157W        W23681  12.747  12.120  14.303 -0.0287 -0.1244  0.0941
 6158W        W23682  11.320   4.269   4.012  0.2030  0.0719 -0.1231
 6159W        W23683   8.932  12.166   3.779  0.0370 -0.0017 -0.0474
 6160W        W23684   2.507   1.672   2.896 -0.1223  0.0256 -0.0041
 6161W        W23685   5.840   1.864  15.244 -0.2168 -0.0882  0.1121
 6162W        W23686   4.034  18.077  11.260 -0.3502 -0.2420  0.2556
 6163W        W23687   5.326   8.311  10.987 -0.1817 -0.1536 -0.0642
 6164W        W23688   4.805  17.850  13.234  0.1176 -0.3990  0.0945
 6165W        W23689  10.777   3.137   2.590 -0.0707  0.2897 -0.1827
 6166W        W23690  12.294   0.479  10.359  0.1201  0.0653  0.1921
 6167W        W23691   2.632   9.054   3.312  0.1107 -0.3354  0.0692
 6168W        W23692   6.651  11.998   2.511  0.2718 -0.1825 -0.2676
 6169W        W23693  11.193   8.756  11.787  0.3580  0.2216  0.4752
 6170W        W23694   3.373  10.021   2.048 -0.0993  0.2337 -0.1951
 6171W        W23695   1.849   1.398   1.120  0.2020 -0.4857 -0.2026
 6172W        W23696   2.422  16.025  14.303  0.0371 -0.4495 -0.2263
 6173W        W23697  14.849  16.480  14.708 -0.0880 -0.3433 -0.1941
 6174W        W23698  17.836   7.997   3.904 -0.0455  0.0870  0.1286
 6175W        W23699   9.950  16.726   4.011 -0.2982  0.0453 -0.2026
 6176W        W23700   3.186  14.766   4.556  0.3047  0.3250  0.1114
 6177W        W23701   1.939   2.851   3.377 -0.1616  0.0426  0.0702
 6178W        W23702  12.858  13.171   5.217 -0.1779  0.0987 -0.0486
 6179W        W23703   7.016  12.225   1.012  0.1479 -0.0402  0.4583
 6180W        W23704  14.351   7.422  13.651  0.0059 -0.3014  0.1496
 6181W        W23705  17.853  14.641  10.865  0.2474  0.1245 -0.1690
 6182W        W23706   2.872  17.177   9.997 -0.1249  0.2002  0.2415
 6183W        W23707   2.891   4.795  11.286 -0.3062 -0.1677  0.0504
 6184W        W23708  15.663   7.041  13.697 -0.0149  0.0106 -0.1422
 6185W        W23709  12.351   6.698  12.739 -0.1516  0.1526 -0.1075
 6186W        W23710   4.816  12.575   1.147  0.1838  0.0225  0.0980
 6187W        W23711  12.202   4.845   0.303  0.0149 -0.3049  0.0809
 6188W        W23712  15.120  13.166   1.394 -0.2068  0.2848 -0.5299
 6189W        W23713   5.521   5.953  14.262 -0.2474 -0.0503 -0.0138
 6190W        W23714   2.937  16.429  13.510 -0.1331 -0.4225 -0.0340
 6191W        W23715   9.141   4.991   1.862 -0.2578 -0.2513  0.2047
 6192W        W23716  11.656   7.949  11.574  0.2856 -0.0086  0.1744
 6193W        W23717  12.710   8.604   1.288  0.1479 -0.2273  0.0090
 6194W        W23718   3.740   7.577  13.181 -0.1849  0.2714 -0.0625
 6195W        W23719   6.759   0.450   3.533 -0.3659 -0.1017  0.2442
 6196W        W23720   4.858  14.549  15.411 -0.1639  0.0454 -0.2971
 6197W        W23721   8.355  17.248   1.680  0.0632  0.1181 -0.1736
 6198W        W23722   4.655  15.274  10.928  0.0351 -0.2482  0.2826
 6199W        W23723   6.277   8.652  12.614  0.2376  0.1239 -0.0033
 6200W        W23724   9.140   2.250  12.628 -0.0577 -0.0303 -0.2613
 6201W        W23725   8.966   5.726  11.649 -0.2487  0.0145 -0.5016
 6202W        W23726   6.723   1.098  14.216  0.1703 -0.1976  0.0955
 6203W        W23727   8.569  13.448  12.237 -0.1106 -0.2236 -0.3151
 6204W        W23728   1.130   4.320  13.680  0.2970 -0.1947  0.0775
 6205W        W23729   7.303  15.605  11.726  0.2661  0.3504  0.1110
 6206W        W23730   4.988   8.544  12.292 -0.0650  0.1973 -0.1902
 6207W        W23731  10.882  11.178   4.689 -0.1048  0.1443  0.1814
 6208W        W23732  12.313  11.525   1.606  0.1329 -0.5716 -0.0748
 6209W        W23733  17.859  10.672   1.251 -0.0449 -0.1837  0.3851
 6210W        W23734   5.049   1.371  12.367 -0.3651 -0.1084  0.0524
 6211W        W23735  13.479  15.860   1.756 -0.1575  0.0754 -0.0061
 6212W        W23736  10.920  10.337  11.592 -0.0979  0.1879  0.0648
 6213W        W23737  18.159  13.890  12.491 -0.1559 -0.0645  0.1808
 6214W        W23738  15.802  13.040   1.244  0.2676  0.4255 -0.1170
 6215W        W23739   8.335   2.714   3.594  0.2789 -0.1541 -0.2730
 6216W        W23740  11.999  14.811   4.653  0.1380  0.3436 -0.2097
 6217W        W23741   1.701  16.182   4.290 -0.0740 -0.0303  0.3325
 6218W        W23742  10.122   0.044  12.366 -0.0048  0.2863  0.2256
 6219W        W23743  17.883   9.466   4.725  0.4847 -0.1460  0.0748
 6220W        W23744   8.979   4.022  14.119 -0.1190 -0.2360 -0.0749
 6221W        W23745   2.340  11.158   0.062  0.2386  0.3135  0.0169
 6222W        W23746   9.108   2.341   0.222  0.1174 -0.1171 -0.3538
 6223W        W23747   0.943  11.704   0.328  0.0661  0.0221  0.0730
 6224W        W23748   6.753  17.767  11.801  0.2408  0.2080 -0.2694
 6225W        W23749  15.788  10.540  14.038 -0.2281 -0.0072  0.0448
 6226W        W23750  15.798   4.031  14.045 -0.0050 -0.2591 -0.0922
 6227W        W23751   3.988   0.675   2.282  0.1979  0.2524  0.3344
 6228W        W23752   9.530   4.358   2.417 -0.0342 -0.1479  0.3003
 6229W        W23753  16.353  12.125  13.280 -0.0304 -0.1001  0.0442
 6230W        W23754   4.859   2.953   4.610  0.0670  0.3731 -0.0413
 6231W        W23755   7.837  14.696   4.561 -0.3115 -0.0901  0.2003
 6232W        W23756   8.455  10.040   0.329 -0.1799  0.3716 -0.1415
 6233W        W23757  13.591  11.200   0.887 -0.0632  0.2027 -0.2103
 6234W        W23758  13.122  18.049   4.870  0.0594 -0.0354  0.0621
 6235W        W23759  15.432   9.881  13.739  0.1294 -0.0173  0.2101
 6236W        W23760  12.865   4.700  15.786 -0.1005 -0.1875  0.2123
 6237W        W23761  10.473  12.072  12.694 -0.0280  0.2355  0.1121
 6238W        W23762  13.233   1.324   2.462 -0.0492 -0.1120 -0.1103
 6239W        W23763   1.603   5.989   4.362 -0.2129 -0.0590  0.0108
 6240W        W23764   9.895  13.527   0.642 -0.2189 -0.2198  0.3221
 6241W        W23765  15.700   4.140  15.052 -0.1793 -0.0620  0.1274
 6242W        W23766   0.799  18.290  11.168  0.0692 -0.4127  0.0219
 6243W        W23767   1.159   7.628   2.562  0.0157 -0.2489 -0.0176
 6244W        W23768  14.189  11.660   0.010  0.1164  0.2107  0.3537
 6245W        W23769  17.538   6.257  12.684 -0.1229 -0.0178  0.2561
 6246W        W23770  17.459   4.178   2.646 -0.1427  0.0020 -0.0184
 6247W        W23771  18.085   8.145  13.702 -0.0947 -0.4360 -0.3351
 6248W        W23772   4.061  12.789  15.071  0.1232  0.1266 -0.2709
 6249W        W23773   6.214   6.768  11.984  0.0033 -0.1584 -0.0983
 6250W        W23774   8.730   1.964   0.253 -0.0604 -0.2929  0.1045
 6251W        W23775   7.592  12.591   0.953 -0.1886  0.1416 -0.1207
 6252W        W23776   2.760  17.435   0.541  0.1690 -0.2801  0.0010
 6253W        W23777  12.266  13.510  14.934 -0.0711  0.2883 -0.1379
 6254W        W23778   6.929   8.443   3.048 -0.0175  0.0516 -0.4133
 6255W        W23779  13.069   8.696   0.970 -0.0560 -0.3292 -0.3212
 6256W        W23780   6.013  16.756  15.768  0.2169 -0.2866 -0.2149
 6257W        W23781  17.872   8.710   2.517 -0.4039  0.1486  0.0986
 6258W        W23782   7.275   4.652   4.057  0.1337 -0.0775 -0.0699
 6259W        W23783   7.018  17.356  12.905 -0.2015 -0.0695 -0.3361
 6260W        W23784   8.242   2.377   4.576  0.1169  0.1446 -0.0160
 6261W        W23785  17.924  17.126  14.224 -0.0414 -0.0066 -0.1059
 6262W        W23786   2.236   4.845  12.996 -0.0692 -0.1006 -0.0746
 6263W        W23787  17.198  11.869   4.633  0.3184 -0.2374  0.0189
 6264W        W23788   6.169   4.892  14.597  0.1857  0.2284  0.2919
 6265W        W23789   8.337  14.137   1.525  0.0494 -0.1571 -0.1228
 6266W        W23790  11.837  17.468  12.944  0.0036  0.0915 -0.2404
 6267W        W23791  11.619   4.519   1.488 -0.2572  0.1985 -0.2329
 6268W        W23792  14.419   8.432   0.429 -0.1413 -0.0498  0.0471
 6269W        W23793   2.841  14.724  12.172  0.1348 -0.0324 -0.1904
 6270W        W23794   3.980   2.163  12.617 -0.0595  0.1195  0.1120
 6271W        W23795  12.562  13.969   4.660 -0.0348  0.2814 -0.0832
 6272W        W23796   4.413  15.880  13.989 -0.5341  0.1765  0.3507
 6273W        W23797   6.701  11.226  14.075  0.2571  0.0065  0.0644
 6274W        W23798   4.962  13.120   1.984 -0.3281  0.0199  0.2009
 6275W        W23799   4.613   7.996  12.995  0.4696 -0.0947 -0.0322
 6276W        W23800  17.959  11.221  14.507  0.1518  0.0800  0.1622
 6277W        W23801   4.716   7.227  11.735 -0.0030 -0.2266 -0.0781
 6278W        W23802   3.692   7.756   3.058  0.3976 -0.2186 -0.1859
 6279W        W23803   6.067   1.316  12.778  0.0895 -0.0243 -0.0754
 6280W        W23804   2.335   2.332   3.979  0.1056 -0.5403  0.3412
 6281W        W23805   2.253   9.831   0.271  0.3506 -0.1240  0.1567
 6282W        W23806   4.071  11.641  11.338 -0.0243 -0.3188  0.0232
 6283W        W23807  13.199   5.191  13.196 -0.1744 -0.0456 -0.1836
 6284W        W23808  13.697   5.770  10.946  0.2927 -0.0776 -0.1077
 6285W        W23809  17.164  13.015   4.072 -0.0552 -0.3637 -0.1654
 6286W        W23810  10.189  13.202   4.222 -0.2504 -0.1655  0.3229
 6287W        W23811  14.355   7.451  12.315  0.1301  0.1910  0.2561
 6288W        W23812   6.453  13.757  11.988 -0.0110  0.0808 -0.1996
 6289W        W23813  13.453  16.122  12.522  0.0511  0.1034 -0.0259
 6290W        W23814   4.436  15.328   0.689  0.0474 -0.0057  0.0327
 6291W        W23815  14.038  16.237   3.048 -0.1085  0.1622  0.0234
 6292W        W23816   1.914   9.221  12.749 -0.1135 -0.1777  0.0273
 6293W        W23817   3.247   7.525  12.990 -0.0275 -0.0124 -0.1365
 6294W        W23818  11.850  10.861   3.287 -0.0683  0.0588  0.0021
 6295W        W23819  13.448   2.218  11.152  0.1190 -0.0966 -0.0680
 6296W        W23820  12.424   4.129  11.153 -0.1827 -0.3306 -0.0323
 6297W        W23821   2.029   9.811  14.557 -0.1946 -0.0102 -0.0695
 6298W        W23822   7.504   1.625   4.398  0.2338 -0.3581  0.0104
 6299W        W23823   8.588  13.080   1.934 -0.0906 -0.0315  0.0780
 6300W        W23824  15.010  10.410   3.398  0.0736  0.2370 -0.4049
 6301W        W23825   3.744   0.081   2.577 -0.2024 -0.0943  0.1397
 6302W        W23826  13.250   2.353   0.693 -0.0225 -0.0862  0.2630
 6303W        W23827  14.950  11.297   0.985 -0.2384 -0.0506  0.0037
 6304W        W23828  17.560  10.865  13.661 -0.0582  0.3764  0.0815
 6305W        W23829   8.476  17.830  14.020 -0.4164 -0.1743  0.0030
 6306W        W23830  12.910  14.982  13.519  0.0940 -0.0418 -0.0338
 6307W        W23831  15.693  16.675   0.635  0.0702  0.0352 -0.2551
 6308W        W23832   2.944  13.820   2.917 -0.1493  0.3013  0.3857
 6309W        W23833  17.732   4.932  11.361  0.1545 -0.1446 -0.3262
 6310W        W23834  15.579   0.259   2.356  0.1708  0.1607 -0.2155
 6311W        W23835  10.779   6.272  15.680  0.0483 -0.0661  0.0206
 6312W        W23836   8.517  18.107  14.399  0.1070 -0.2948  0.3824
 6313W        W23837   0.051  16.534  10.680 -0.0909 -0.3056  0.1238
 6314W        W23838   1.953   9.933   2.821  0.3858 -0.0175  0.1336
 6315W        W23839   3.397   3.947   5.215  0.1151 -0.3432 -0.1231
 6316W        W23840  14.438  17.430  11.495 -0.1430 -0.1673  0.1942
 6317W        W23841  10.859  16.637   3.963  0.1379 -0.1580  0.3055
 6318W        W23842  14.243  13.466  15.102  0.0610 -0.0819  0.2191
 6319W        W23843  17.119   8.545   4.587 -0.1372 -0.1071  0.0459
 6320W        W23844  12.974  13.491  15.765 -0.4758 -0.2292 -0.1567
 6321W        W23845   3.895   9.373   0.322 -0.3214  0.0247  0.1174
 6322W        W23846   8.247   5.235   1.994  0.0845 -0.0871 -0.2084
 6323W        W23847   9.930  10.844   2.629 -0.2102  0.0120 -0.3427
 6324W        W23848   8.641   1.106  15.598 -0.3451  0.0928 -0.0544
 6325W        W23849  13.368  11.816   4.133 -0.1417  0.1684 -0.0276
 6326W        W23850  10.197   9.778   4.811 -0.1662  0.0211  0.0602
 6327W        W23851  10.335  15.943  13.833  0.0170 -0.2048  0.1112
 6328W        W23852   1.604   2.620   1.229  0.4111 -0.2298 -0.3395
 6329W        W23853  15.224   5.271   4.577  0.2039 -0.0199  0.0881
 6330W        W23854   2.959  14.463   4.216  0.1157 -0.5394 -0.1008
 6331W        W23855   9.480   7.041   3.217 -0.2792  0.1881  0.0817
 6332W        W23856   4.216  10.332  13.360  0.0780 -0.1019  0.0541
 6333W        W23857  11.906   1.383   3.248  0.4643  0.0217 -0.5566
 6334W        W23858   8.261   9.618  13.838  0.1122  0.1344 -0.1808
 6335W        W23859  15.168  11.319  13.786 -0.1538  0.1182  0.0323
 6336W        W23860   7.385  13.217  13.630  0.0552  0.1351 -0.0059
 6337W        W23861   1.040  15.476  11.844 -0.0706 -0.0483  0.0449
 6338W        W23862   8.780   1.775  12.189  0.0484 -0.1045  0.0569
 6339W        W23863   0.969   6.090  11.036  0.0641  0.2575 -0.0546
 6340W        W23864   8.193  11.396  12.710 -0.4041  0.2474  0.1484
 6341W        W23865  10.618   3.617   0.209  0.2564 -0.5653 -0.0861
 6342W        W23866  11.222   3.452  13.427 -0.0780  0.1835 -0.0527
 6343W        W23867   6.546  15.327   4.692 -0.2145  0.2297 -0.0925
 6344W        W23868  12.986  16.920  12.402  0.3494 -0.1420  0.0935
 6345W        W23869  13.334   2.440   1.463 -0.0916  0.2147  0.1160
 6346W        W23870   3.793   0.528   2.799 -0.0571 -0.1096 -0.1665
 6347W        W23871   9.465  14.722  15.104  0.3376 -0.3144 -0.0453
 6348W        W23872   8.088  17.470  14.040  0.3331  0.4109 -0.1127
 6349W        W23873   1.406  18.001   2.040  0.2094  0.2702  0.2091
 6350W        W23874  15.952  14.504  12.242  0.0012 -0.2187  0.0241
 6351W        W23875  18.070   9.286   0.091 -0.2068 -0.0440 -0.2713
 6352W        W23876   5.040   1.672   1.989  0.2152 -0.0169  0.0382
 6353W        W23877  17.638  11.751  11.384  0.0151  0.0573 -0.4582
 6354W        W23878   8.202   4.900  12.864  0.0360  0.3901 -0.0085
 6355W        W23879  16.604  12.848  13.818  0.3170 -0.1799 -0.5162
 6356W        W23880   8.656   3.638  14.945  0.0729  0.3868 -0.0089
 6357W        W23881   4.970  10.057   2.427 -0.4449  0.0788 -0.0726
 6358W        W23882   1.995   3.229   2.398 -0.0982  0.4146  0.0277
 6359W        W23883   8.321  12.857  13.707  0.3517 -0.1813 -0.0995
 6360W        W23884  12.641  13.043  12.248  0.0022  0.1751 -0.0275
 6361W        W23885  12.264  16.135  14.299  0.0097  0.1129 -0.0625
 6362W        W23886   6.774  12.454  14.809  0.1464 -0.0494  0.0959
 6363W        W23887   8.256  14.701  12.526 -0.1654 -0.1622  0.1242
 6364W        W23888  11.953   4.302  13.532  0.2863 -0.0406 -0.0340
 6365W        W23889  13.948   3.759   0.158  0.3976  0.1967 -0.0991
 6366W        W23890  14.663   2.514   4.526 -0.1307 -0.0789  0.0367
 6367W        W23891  14.275  14.670   1.485  0.1125  0.1578  0.0501
 6368W        W23892  16.422  14.739  12.246  0.5597 -0.0048 -0.1011
 6369W        W23893  13.269   7.104  12.816  0.2030  0.1490 -0.1019
 6370W        W23894  17.854   0.265  11.265  0.0140 -0.1260 -0.0888
 6371W        W23895   6.807  16.038   0.464 -0.0242 -0.2512  0.1356
 6372W        W23896   7.100  16.087   4.523 -0.0330  0.2019 -0.0180
 6373W        W23897   4.080  15.920  12.051 -0.2205 -0.1578 -0.4112
 6374W        W23898   5.040  13.710  13.425  0.3482  0.2527 -0.0864
 6375W        W23899   0.044   4.733  11.255  0.0135  0.1556  0.2541
 6376W        W23900   0.466  18.265   0.780  0.1015  0.0538 -0.1002
 6377W        W23901  13.792   0.842  14.600  0.1397 -0.0837 -0.0265
 6378W        W23902  14.209   7.779  15.482 -0.3052  0.2300  0.1640
 6379W        W23903  17.877   6.933   0.358 -0.0977 -0.3719  0.0235
 6380W        W23904   1.594   0.266   1.941 -0.0347 -0.1212 -0.1494
 6381W        W23905  10.827  11.505   5.333 -0.0105 -0.0921 -0.0555
 6382W        W23906   0.353   3.684   2.764  0.1358 -0.0956 -0.0980
 6383W        W23907   0.902   2.507  15.346 -0.3155  0.3103 -0.5548
 6384W        W23908   4.979   8.906   5.641 -0.1016 -0.2043 -0.0790
 6385W        W23909   6.442   4.175   2.896  0.0711  0.3806  0.2896
 6386W        W23910  16.746   5.614   1.928  0.0069 -0.1787 -0.0842
 6387W        W23911   8.816  16.251  11.487 -0.1525  0.0633  0.1348
 6388W        W23912   9.881   6.780   4.530 -0.0549 -0.0677 -0.2274
 6389W        W23913  18.312  14.154   4.151 -0.0065  0.1286 -0.2782
 6390W        W23914  10.721   6.619   1.843  0.2037  0.2595 -0.3043
 6391W        W23915  13.440   5.869  12.303 -0.3683 -0.2251  0.0229
 6392W        W23916  16.637  11.368  12.394  0.0073 -0.0874 -0.0646
 6393W        W23917   0.431   2.172   1.737 -0.0481  0.0540  0.1300
 6394W        W23918   8.131  13.718  11.152 -0.0663 -0.3525 -0.2712
 6395W        W23919  12.462   2.544   4.403 -0.0059  0.1954 -0.1808
 6396W        W23920   7.975  18.375   0.921 -0.1555 -0.0689 -0.2293
 6397W        W23921   5.277   7.569  13.527  0.2690  0.0006  0.1339
 6398W        W23922   6.670  16.674  12.760 -0.1874 -0.1215 -0.1636
 6399W        W23923  10.080   1.185  15.699  0.2272 -0.0013 -0.0475
 6400W        W23924  14.402  11.776  14.728 -0.2186 -0.0369 -0.0272
 6401W        W23925   4.957  10.992   3.172  0.0667 -0.1231 -0.0155
 6402W        W23926   6.724  14.466  14.555 -0.3088 -0.0456  0.0410
 6403W        W23927   8.078  11.633   5.464  0.2764 -0.1826 -0.0924
 6404W        W23928   8.815   6.342  15.187  0.1090 -0.1165 -0.3832
 6405W        W23929  18.399  14.307   1.054 -0.2302 -0.2141 -0.1037
 6406W        W23930   7.918  14.682   2.701  0.0402 -0.0300 -0.1258
 6407W        W23931   7.741  11.417   1.538  0.0836 -0.0872 -0.1679
 6408W        W23932   7.523   1.061  12.316 -0.1810 -0.1983 -0.0322
 6409W        W23933  15.217  15.270   0.997 -0.1084 -0.0095 -0.1707
 6410W        W23934  12.206  11.316  14.989 -0.1898 -0.6655  0.2484
 6411W        W23935   9.361  13.360   2.354 -0.1077  0.1716  0.0859
 6412W        W23936   7.738  10.491  15.550 -0.1860 -0.0280  0.4323
 6413W        W23937   8.440   5.093  13.284 -0.1755 -0.0578 -0.1674
 6414W        W23938   0.212   8.502   1.520 -0.0644  0.0376  0.2141
 6415W        W23939  11.052  11.892   3.941  0.0077 -0.1237  0.1725
 6416W        W23940   7.204  14.373  14.458  0.0527 -0.0616 -0.1206
 6417W        W23941   6.264  11.764  11.712  0.2496  0.0640 -0.0196
 6418W        W23942   3.571   5.672   2.923 -0.0347  0.1456  0.1050
 6419W        W23943   9.069   4.301  13.681  0.2160 -0.2174  0.1340
 6420W        W23944  13.491   2.971  15.562  0.1903  0.3559 -0.4257
 6421W        W23945   6.411   3.887  13.753  0.0915 -0.1593  0.1152
 6422W        W23946   4.269  11.109  13.608  0.2055  0.2234  0.2752
 6423W        W23947   6.212   0.721   1.384 -0.0142 -0.1093 -0.5580
 6424W        W23948   7.048   4.655  15.155  0.1405  0.1119  0.0663
 6425W        W23949   6.948  15.680  14.685 -0.0044  0.2521 -0.3502
 6426W        W23950   7.550  14.843   9.850 -0.1530  0.1670  0.0212
 6427W        W23951   2.774  18.299   0.501 -0.0652  0.0138  0.0248
 6428W        W23952   0.765  13.426  14.716 -0.1711  0.3156  0.3356
 6429W        W23953  14.603  13.079  13.387 -0.0678  0.2904  0.0263
 6430W        W23954  17.856   0.694   3.865  0.0446 -0.0936 -0.0725
 6431W        W23955   2.490   3.704  12.245  0.0947  0.1375  0.1956
 6432W        W23956  13.675  16.257  13.699  0.1222  0.1126  0.1893
 6433W        W23957  11.712   8.770   1.567  0.1774  0.1947 -0.3145
 6434W        W23958  14.029  13.812   4.861  0.2150 -0.0909 -0.0902
 6435W        W23959   1.632   7.493   1.105  0.2134 -0.1075  0.0977
 6436W        W23960  13.471   8.361   0.042 -0.1170 -0.1313 -0.0647
 6437W        W23961  14.352   8.551  12.937  0.2499  0.0630 -0.2786
 6438W        W23962  15.912  12.382  12.623 -0.0031 -0.0624 -0.2175
 6439W        W23963   1.091  13.984  10.521 -0.2798 -0.2429  0.0435
 6440W        W23964   0.985  13.048   4.541 -0.0904  0.0189 -0.0338
 6441W        W23965  16.594  17.998   2.305 -0.0441  0.2393  0.2093
 6442W        W23966  13.094   2.666   3.600  0.1111  0.0393  0.1624
 6443W        W23967  15.596  11.659  11.898  0.1680  0.1833 -0.1505
 6444W        W23968   5.942   5.811  11.811  0.0276  0.0730 -0.1404
 6445W        W23969   7.840  11.406   0.182  0.1069 -0.1067  0.1918
 6446W        W23970  11.381  13.468  12.149  0.3483 -0.3003 -0.1111
 6447W        W23971  17.128   2.459   3.971  0.0819  0.1210 -0.1541
 6448W        W23972  17.201   3.118  11.768  0.0656 -0.3245  0.0464
 6449W        W23973  17.857   2.090  13.222  0.1019 -0.1737 -0.0358
 6450W        W23974   3.256  17.817  14.751 -0.4238  0.1352 -0.3092
 6451W        W23975   1.248   4.180   1.255 -0.5047 -0.1353  0.3014
 6452W        W23976  18.188  13.075   1.098  0.0543  0.2283  0.3114
 6453W        W23977  13.324  14.344   3.367  0.2942 -0.0244  0.2674
 6454W        W23978  11.639  10.140  12.354 -0.2532  0.3080  0.0007
 6455W        W23979  15.287  11.838  13.859 -0.3964  0.1060  0.1846
 6456W        W23980   3.943   6.036   2.906 -0.1333 -0.2917  0.0141
 6457W        W23981  13.350   4.188   4.853  0.0126  0.0180 -0.1086
 6458W        W23982  14.223   5.501   2.090 -0.0840 -0.1951 -0.1916
 6459W        W23983  12.286  17.542  14.808  0.0759 -0.0612 -0.0917
 6460W        W23984   7.539  13.925  11.938 -0.3553 -0.2744 -0.1931
 6461W        W23985   6.736   1.800   4.111  0.0379 -0.0047 -0.0126
 6462W        W23986   4.923  13.185  13.608  0.1758  0.1765 -0.0117
 6463W        W23987   0.421  16.335  12.805  0.0013 -0.1445  0.2118
 6464W        W23988  16.142   7.858   3.969 -0.3165 -0.2334 -0.3138
 6465W        W23989  18.102  14.676   0.094 -0.0093  0.0196  0.1309
 6466W        W23990  14.359   1.694   1.151 -0.0225  0.0192 -0.2923
 6467W        W23991   7.331   7.437  15.202  0.1648  0.0223  0.3454
 6468W        W23992  13.976   2.823  13.637  0.1461 -0.0072 -0.1683
 6469W        W23993  15.242   7.200   4.313  0.4888 -0.2283  0.0426
 6470W        W23994  13.413  16.289   0.144 -0.0022 -0.0537 -0.0251
 6471W        W23995   5.251   3.456   1.202 -0.3360  0.2035 -0.3698
 6472W        W23996   0.522  16.209   3.603  0.0190 -0.3253 -0.1082
 6473W        W23997   5.168  15.457   3.796  0.1452 -0.1339  0.0257
 6474W        W23998  15.191   5.220   5.807  0.1809  0.3066 -0.0370
 6475W        W23999   9.558  13.506  11.819 -0.0469  0.0746  0.0255
 6476W        W24000   2.980  12.116   4.234 -0.2480  0.0866  0.1193
 6477W        W24001   4.894  16.232  14.131 -0.1451  0.0194  0.3475
 6478W        W24002  18.385   4.526  11.776 -0.1221  0.0820 -0.1603
 6479W        W24003  14.869  14.192  11.797  0.0166  0.3065  0.1437
 6480W        W24004  11.086  16.909  13.880 -0.1456  0.1477  0.1493
 6481W        W24005   9.740   0.940   2.237  0.0237 -0.1301  0.1209
 6482W        W24006   8.674  13.401   0.812  0.0030  0.1434  0.2515
 6483W        W24007   5.585  12.839  13.147  0.1350  0.0878  0.3199
 6484W        W24008  10.660  15.553   5.644  0.0270  0.2707  0.0570
 6485W        W24009   3.971  11.103   4.798  0.0561  0.0217 -0.2925
 6486W        W24010  15.086  18.127   0.260  0.1941 -0.4974  0.0396
 6487W        W24011  17.922   8.194  11.811  0.0112 -0.2171 -0.2696
 6488W        W24012   0.066   6.375   1.784 -0.1955  0.5893  0.2498
 6489W        W24013  13.084  17.715   4.477 -0.1957 -0.1053 -0.1274
 6490W        W24014  14.753   1.968   1.445  0.0934  0.0828  0.1768
 6491W        W24015   4.277  12.877   1.810 -0.0273  0.0615 -0.1225
 6492W        W24016  10.838   1.287  13.855  0.0487 -0.1648 -0.1307
 6493W        W24017   8.006   9.650   3.432 -0.0367 -0.1179  0.0084
 6494W        W24018   1.958  11.788   4.731 -0.2463  0.0235 -0.3617
 6495W        W24019   7.990   6.311  12.600 -0.0785  0.0605  0.1388
 6496W        W24020   4.810   7.386  11.079  0.4083  0.5058  0.0637
 6497W        W24021   6.799   4.450   4.209  0.0520  0.0893  0.0830
 6498W        W24022  15.611   0.136   1.612 -0.1634 -0.0751 -0.1575
 6499W        W24023  10.640   3.160   4.730 -0.1780  0.0199  0.0967
 6500W        W24024   8.462  13.724   3.211 -0.0898  0.4551 -0.5458
 6501W        W24025  11.997  13.747  13.829 -0.1863  0.1306 -0.1203
 6502W        W24026   0.621   9.474   2.325  0.0365  0.4557 -0.2248
 6503W        W24027  16.021   0.472   2.050 -0.0019 -0.0480 -0.2730
 6504W        W24028   2.846   1.720  10.925  0.0792 -0.0492 -0.1751
 6505W        W24029   7.646  15.556   3.146  0.2639  0.2255 -0.2665
 6506W        W24030   7.170   0.723   3.504  0.0760  0.2278 -0.2527
 6507W        W24031  12.066   2.485   5.395 -0.1440  0.0103 -0.1124
 6508W        W24032   8.522   3.820   1.008  0.2125 -0.0252 -0.1841
 6509W        W24033  13.797   9.625  13.588 -0.1922  0.1186  0.0324
 6510W        W24034   1.126   0.540   4.602 -0.0241  0.0240 -0.2663
 6511W        W24035  15.242  15.644  10.743 -0.1727  0.3092  0.2014
 6512W        W24036   3.053   5.956  13.339  0.1922 -0.3221  0.3167
 6513W        W24037  12.731   1.502  10.884 -0.0437  0.0897 -0.0975
 6514W        W24038   7.995   7.380   0.222 -0.2382  0.0996  0.2569
 6515W        W24039   2.402   9.012  12.248 -0.0486  0.1632 -0.1565
 6516W        W24040   2.054  15.992   1.373 -0.0688  0.0635  0.3436
 6517W        W24041  10.017  16.918  13.369  0.2981  0.1456  0.1561
 6518W        W24042   2.738   8.233  11.700  0.1269 -0.1342  0.2477
 6519W        W24043  14.082   8.514   4.490 -0.0777 -0.0890 -0.0319
 6520W        W24044   4.424  18.110  13.501 -0.2218 -0.0990  0.0222
 6521W        W24045   3.153   1.777  14.582 -0.1035 -0.2468 -0.0393
 6522W        W24046  17.195   4.368  15.088  0.0384  0.1015 -0.0699
 6523W        W24047  11.599  15.464   4.515 -0.2070 -0.2479  0.2719
 6524W        W24048  14.885   1.719  10.658 -0.0189 -0.1013  0.1529
 6525W        W24049  12.723  13.167  13.803 -0.4425  0.0733  0.0803
 6526W        W24050   8.891   4.124  14.865  0.2475  0.0652  0.0506
 6527W        W24051  12.032   8.304  10.641 -0.0681  0.1451 -0.3768
 6528W        W24052   0.319   2.546  15.108 -0.0913 -0.3398  0.0786
 6529W        W24053   4.050   4.057   2.843  0.0084 -0.1672 -0.0084
 6530W        W24054   6.948  14.629   1.140  0.1146  0.0090 -0.2751
 6531W        W24055  18.302  18.354  14.374 -0.0527 -0.1391  0.1239
 6532W        W24056  13.295   1.368   4.869  0.3273  0.3259 -0.1167
 6533W        W24057   2.150  13.403  12.347  0.1314  0.0293  0.2204
 6534W        W24058  17.617  15.656   4.799 -0.3350  0.0570  0.0285
 6535W        W24059  15.903  17.093   0.012 -0.3818 -0.0181 -0.0910
 6536W        W24060   3.805   9.856  15.423 -0.1320 -0.0998  0.1713
 6537W        W24061  15.438  16.321  11.896 -0.2173  0.0055  0.1138
 6538W        W24062  14.597   8.896   0.433  0.1189 -0.0409  0.3757
 6539W        W24063   2.111  16.408   2.187 -0.6576  0.1475 -0.2084
 6540W        W24064  15.600  12.164   0.631 -0.0765 -0.1187  0.0090
 6541W        W24065   3.992   2.243   0.188  0.0256 -0.2032  0.0434
 6542W        W24066   6.294   1.464   3.015 -0.1776 -0.0031  0.4312
 6543W        W24067  15.132  14.958   4.996 -0.1331 -0.0502 -0.1860
 6544W        W24068  16.313  13.672   1.576 -0.0745 -0.4887 -0.0436
 6545W        W24069   3.846   1.995  15.317 -0.0214  0.0854  0.2385
 6546W        W24070  11.177  14.848   4.596 -0.0786  0.0054 -0.1361
 6547W        W24071   2.723  15.071   4.518  0.4985 -0.0396  0.2368
 6548W        W24072  12.691  12.710  13.639  0.1859 -0.1514  0.0547
 6549W        W24073  14.256   7.866   4.815  0.4888  0.0756 -0.2871
 6550W        W24074   3.171   1.041  11.087  0.3666  0.1083  0.1724
 6551W        W24075  15.613  13.287   3.152  0.1493 -0.1453 -0.1241
 6552W        W24076   4.829   2.793  13.413  0.0323 -0.0685 -0.0451
 6553W        W24077   9.996   5.979   4.160  0.3067 -0.0799  0.0562
 6554W        W24078   9.831  16.316   0.667 -0.1648 -0.1180  0.0251
 6555W        W24079   7.133  13.992   4.493  0.2324 -0.2000  0.1680
 6556W        W24080  10.462  10.851  12.416 -0.0414 -0.1970 -0.0864
 6557W        W24081  16.302   5.169   4.871  0.1951 -0.2528  0.2577
 6558W        W24082  13.409   9.655  12.397  0.0813 -0.0722  0.1461
 6559W        W24083   5.837   2.689  12.325  0.0000  0.2159  0.2427
 6560W        W24084   5.406   3.227  15.499 -0.0544 -0.1727 -0.0185
 6561W        W24085  17.652  11.397  11.772 -0.1502  0.2768  0.0485
 6562W        W24086   2.891   2.639   0.409  0.2280  0.2514 -0.2291
 6563W        W24087  17.344  16.598  14.671 -0.1526  0.0472  0.0846
 6564W        W24088   3.036   0.929   4.020  0.1395  0.2029 -0.1773
 6565W        W24089  15.946  16.352   0.977  0.2450 -0.0329  0.0534
 6566W        W24090  10.014  15.745  15.647 -0.1698  0.2880 -0.3513
 6567W        W24091  12.102  14.720   0.984  0.0833 -0.0251 -0.2088
 6568W        W24092   6.108   5.003   1.805 -0.1136  0.1412 -0.0992
 6569W        W24093   7.740   8.418  13.241 -0.2842 -0.4133 -0.2200
 6570W        W24094   0.312   4.579   2.304  0.0146  0.0100  0.3517
 6571W        W24095  16.004  17.756  15.640  0.2298  0.1414 -0.0291
 6572W        W24096   0.841   0.684  15.225  0.1218  0.0049  0.0179
 6573W        W24097   5.984  11.455  13.446  0.2781 -0.0505 -0.0718
 6574W        W24098   4.668  17.886  14.809 -0.4072 -0.3437 -0.0995
 6575W        W24099  14.543   2.172   3.757  0.0218 -0.2954 -0.0204
 6576W        W24100  13.373   4.254  12.262  0.2475  0.0923  0.2344
 6577W        W24101  15.875   7.452   4.920 -0.2087  0.0637  0.1387
 6578W        W24102  15.794   1.333  11.765 -0.3461  0.1180  0.0276
 6579W        W24103   9.307   3.368  13.940 -0.1212 -0.0961 -0.1343
 6580W        W24104  18.203   9.194   1.888  0.0196 -0.1063 -0.0467
 6581W        W24105   4.749   0.001  15.002 -0.2630  0.2744 -0.1036
 6582W        W24106   3.757  17.351   4.044 -0.0200 -0.1384 -0.0285
 6583W        W24107   6.984  15.812  11.354 -0.0012 -0.1670  0.1100
 6584W        W24108  15.321   9.240   4.706  0.2166 -0.0035 -0.1702
 6585W        W24109   9.737   0.665   2.651 -0.1362  0.1084 -0.0480
 6586W        W24110   0.817   2.049  14.572 -0.1984  0.1845  0.2588
 6587W        W24111  13.165  14.447  13.603  0.1308 -0.0523 -0.0998
 6588W        W24112   3.070   5.578   3.026 -0.2927  0.0101 -0.2519
 6589W        W24113   4.990  14.077  12.333 -0.0438  0.1868 -0.1372
 6590W        W24114   7.881  12.883   4.660  0.2018  0.1148  0.4175
 6591W        W24115  17.019   3.155   1.960 -0.0711  0.1093 -0.0069
 6592W        W24116   7.927   5.233   2.474 -0.0557  0.0008  0.1155
 6593W        W24117   2.345   7.953   1.874  0.1907  0.3212  0.2251
 6594W        W24118   4.976   3.492   4.626  0.1557 -0.0148 -0.3554
 6595W        W24119   9.480  17.793  11.645 -0.1263 -0.1778 -0.0499
 6596W        W24120  12.189   1.071   0.124 -0.1611  0.3402  0.1840
 6597W        W24121   4.959  17.712   3.417 -0.0054  0.1758  0.1308
 6598W        W24122   8.409  15.547  11.595  0.1342  0.1102 -0.1000
 6599W        W24123  15.019   3.642  11.322  0.0374 -0.2820  0.2429
 6600W        W24124  10.090  14.871  12.310  0.0518  0.2755  0.2388
 6601W        W24125  18.224   8.270  12.739 -0.2166 -0.1392  0.0878
 6602W        W24126  15.015  13.591   6.171 -0.1735  0.0843 -0.0629
 6603W        W24127  11.069   2.959  11.504 -0.0291  0.1277 -0.2599
 6604W        W24128  11.090   5.325  14.775 -0.1718  0.0687  0.0519
 6605W        W24129   7.331   0.262   2.226  0.1909  0.0757 -0.2239
 6606W        W24130  13.126  17.693   1.873  0.1255  0.1563 -0.3521
 6607W        W24131   9.980  12.459  14.025 -0.2352 -0.2655 -0.1650
 6608W        W24132  12.425  14.857  13.221  0.0667  0.2214  0.1331
 6609W        W24133  12.492   9.055  12.425 -0.0968 -0.2642  0.2215
 6610W        W24134  17.927  16.491   4.502  0.0509 -0.0917 -0.1116
 6611W        W24135  14.920   3.209   2.117  0.1238  0.0932 -0.0561
 6612W        W24136  11.840  17.990  14.641  0.2521 -0.2124  0.3266
 6613W        W24137   3.607   5.036  13.650 -0.0017 -0.0167  0.0772
 6614W        W24138   7.528   2.281   2.424  0.1273 -0.1211 -0.0828
 6615W        W24139  15.844  16.752   1.847  0.1296 -0.1578 -0.1399
 6616W        W24140  12.328   0.494   2.793 -0.1305 -0.2518 -0.0384
 6617W        W24141  16.522   6.001   2.926 -0.0580 -0.4732 -0.0330
 6618W        W24142  16.958   9.938  11.708  0.1683 -0.1948  0.1887
 6619W        W24143   9.686   3.400   3.875 -0.2263  0.3662  0.0902
 6620W        W24144   1.543   9.285   4.458  0.0588  0.0271 -0.0501
 6621W        W24145  16.893   6.417  10.580  0.1107  0.0961  0.1236
 6622W        W24146   4.310  16.064   4.773 -0.3309 -0.1058 -0.1502
 6623W        W24147   6.434   5.954  13.258  0.0598 -0.5232 -0.3690
 6624W        W24148  10.048  11.035   3.932  0.4241 -0.2666  0.5025
 6625W        W24149   4.172   0.847   4.175 -0.1323 -0.1049 -0.0538
 6626W        W24150   2.151   8.991  11.314  0.1691  0.1362 -0.1231
 6627W        W24151   6.197  14.513   2.024  0.0594  0.1560  0.0363
 6628W        W24152   9.952   0.976   1.607 -0.2998  0.0444  0.2255
 6629W        W24153   5.833   3.552   0.631  0.0581 -0.1870  0.2280
 6630W        W24154   5.985  15.058   3.314 -0.1148 -0.2597 -0.1221
 6631W        W24155   5.581   1.614   2.464 -0.4112 -0.2867  0.3856
 6632W        W24156   5.315   1.151  15.066 -0.0859 -0.4248 -0.2072
 6633W        W24157   3.360   4.533   3.857  0.0993  0.1563  0.0937
 6634W        W24158   5.124  13.009   3.236  0.0653 -0.1220  0.1698
 6635W        W24159   1.709  17.681  14.741  0.2448 -0.0986 -0.5078
 6636W        W24160  11.752   6.887   4.268  0.0001 -0.0114 -0.0412
 6637W        W24161   4.669  18.332   2.197 -0.0932  0.0618  0.0449
 6638W        W24162  13.306   2.108   3.725 -0.0546 -0.1445  0.1587
 6639W        W24163   0.191   3.238   2.696  0.0236  0.0435 -0.2561
 6640W        W24164  12.914  13.912   1.672 -0.1125 -0.1892 -0.5048
 6641W        W24165   0.221   5.515  10.875  0.0256 -0.1239 -0.0768
 6642W        W24166  12.958  12.279  12.266 -0.0958 -0.1135  0.0233
 6643W        W24167   8.211  16.066  12.960 -0.2412 -0.1024 -0.2636
 6644W        W24168  15.876  14.458  13.800 -0.0512  0.4395  0.1907
 6645W        W24169   9.367  15.488   4.487  0.2298  0.1455  0.0243
 6646W        W24170   0.177  12.649   0.945  0.0823  0.2830  0.1775
 6647W        W24171  13.914   5.669  12.363  0.0636  0.3921  0.0800
 6648W        W24172  15.124   5.039   2.417 -0.2234  0.1091 -0.2147
 6649W        W24173   0.375  13.211  14.422 -0.4842  0.2782  0.2820
 6650W        W24174  13.105   2.997   4.007  0.0667 -0.0336  0.1810
 6651W        W24175   1.772  10.272  13.767 -0.0021  0.0327 -0.0962
 6652W        W24176  16.699  10.560  14.067  0.1953 -0.1523  0.0440
 6653W        W24177  10.532   9.660  15.791  0.0689  0.3166 -0.2326
 6654W        W24178  14.642  12.678   2.069  0.3004  0.0576 -0.0434
 6655W        W24179  16.494   6.032   1.187 -0.0019  0.0470  0.0001
 6656W        W24180   0.681  18.117   3.277 -0.0497 -0.2963  0.1209
 6657W        W24181   5.563  13.397  13.956 -0.0119 -0.3172  0.1145
 6658W        W24182   9.933   6.381   0.919  0.1301 -0.0354  0.0867
 6659W        W24183   6.346  13.732  11.430 -0.0215  0.0232 -0.0492
 6660W        W24184  16.003  13.070   5.744  0.2237  0.0182  0.0145
 6661W        W24185  11.695   8.722   2.072 -0.1453  0.1157 -0.2175
 6662W        W24186   5.690   7.139  11.534  0.0345  0.0005 -0.2290
 6663W        W24187  14.670  13.673   1.613 -0.0248 -0.0992  0.1038
 6664W        W24188   6.710   7.375   2.145 -0.0378  0.2034  0.5043
 6665W        W24189   7.275   6.044  15.254 -0.1032 -0.5732 -0.1975
 6666W        W24190   2.147  13.798   1.077  0.3268 -0.0807  0.1147
 6667W        W24191  15.362  10.610  13.090  0.0167 -0.2037 -0.3510
 6668W        W24192   5.884  16.928   5.349 -0.1638 -0.1496  0.3229
 6669W        W24193   5.961  16.464  13.592 -0.3604  0.0223 -0.0471
 6670W        W24194  18.368   4.511  14.820  0.0452  0.1191  0.5206
 6671W        W24195  11.545   3.812   2.815 -0.2635 -0.0878 -0.0753
 6672W        W24196   8.550   3.726   0.017 -0.0753 -0.0099  0.1550
 6673W        W24197   9.424   4.993  14.910  0.1929  0.1022  0.1641
 6674W        W24198  14.288   0.159   2.309 -0.0809  0.1041 -0.0459
 6675W        W24199  12.041  14.254   4.402 -0.1599 -0.0056 -0.2160
 6676W        W24200   1.913  17.619   5.631 -0.0650  0.2198 -0.0196
 6677W        W24201   0.740   7.426   4.139 -0.0176  0.1475  0.2640
 6678W        W24202  13.595   1.273   3.773 -0.1803 -0.0680 -0.3239
 6679W        W24203  10.962   5.921   0.159 -0.0658  0.2820  0.4292
 6680W        W24204   5.332  10.084  12.399 -0.1738 -0.0468  0.2169
 6681W        W24205   6.279  13.512  14.671 -0.1694  0.1484 -0.0502
 6682W        W24206   4.666   0.129   2.762 -0.0481 -0.1116  0.1210
 6683W        W24207  18.327  16.573   0.563 -0.0263  0.0033 -0.1323
 6684W        W24208   2.605   1.061   3.136 -0.1530  0.1345 -0.2922
 6685W        W24209  12.547   8.251   4.817 -0.1836  0.1340  0.1410
 6686W        W24210  15.828  10.317  13.098  0.2761  0.0957  0.0553
 6687W        W24211   3.139  13.054   3.940  0.1865 -0.2066  0.0562
 6688W        W24212   4.319   2.766  13.434  0.4840 -0.0193  0.2534
 6689W        W24213   8.855   7.676   0.425  0.0349  0.1302 -0.1761
 6690W        W24214   8.618  16.850  15.069  0.2047  0.1743  0.1531
 6691W        W24215   4.558   6.921   2.742 -0.0181  0.1101  0.1326
 6692W        W24216   7.937   3.018  15.102 -0.3376 -0.2676 -0.0734
 6693W        W24217  12.088   3.631   0.952 -0.5154  0.1545  0.1510
 6694W        W24218   3.555   7.779   0.606  0.1038 -0.1601 -0.2911
 6695W        W24219   1.305   6.112   3.535 -0.3395 -0.1380  0.0586
 6696W        W24220  16.233  15.834   1.246 -0.2513  0.2505  0.2302
 6697W        W24221   1.451  10.034  14.319 -0.1364  0.0773 -0.1797
 6698W        W24222   3.074  12.140  14.169  0.1542  0.0769 -0.2879
 6699W        W24223   3.855  15.955  12.550 -0.2052  0.0592 -0.3706
 6700W        W24224   1.667   1.227  13.582  0.1689  0.0157  0.1896
 6701W        W24225   5.055   3.072  12.703  0.2158  0.1384  0.4383
 6702W        W24226   8.899  17.682   4.420 -0.0468 -0.1262  0.0559
 6703W        W24227  16.311   4.980  14.219 -0.4362  0.3440 -0.2933
 6704W        W24228   3.473  16.163  11.160  0.0257 -0.1313  0.1595
 6705W        W24229   3.956  11.549   5.654  0.3164  0.3455  0.0316
 6706W        W24230  18.204   5.693  13.407  0.3710 -0.1440  0.0578
 6707W        W24231   8.097   0.784   3.045  0.0983  0.3097  0.2496
 6708W        W24232   9.173   8.848  14.859 -0.3234 -0.0648 -0.1396
 6709W        W24233   9.846   7.881   3.585 -0.1178 -0.1012 -0.0134
 6710W        W24234  14.250   4.739   2.458 -0.1440 -0.1423  0.1093
 6711W        W24235   1.339  17.195  11.769  0.1769  0.0553 -0.1546
 6712W        W24236  18.193   9.436   3.715  0.1219 -0.1315  0.1903
 6713W        W24237   3.500   7.613  10.078  0.2445  0.0352  0.0482
 6714W        W24238   6.333   1.336  11.814  0.1679  0.2960  0.1392
 6715W        W24239  12.915  14.357  14.045  0.0056 -0.2338 -0.0157
 6716W        W24240   1.224   8.531  14.385  0.0514  0.0746 -0.3211
 6717W        W24241   2.371  13.238  15.348  0.1172  0.2557  0.0436
 6718W        W24242  14.483  16.573   1.010 -0.1953  0.0747 -0.1230
 6719W        W24243   1.466  16.036   2.127  0.0323 -0.0069  0.0745
 6720W        W24244  11.372   7.003   3.007  0.1946  0.1113 -0.1774
 6721W        W24245   7.784  15.237  13.130  0.0768 -0.1163  0.0520
 6722W        W24246   8.635   9.876   0.815 -0.2391  0.0858 -0.1741
 6723W        W24247  12.586   2.104  14.188 -0.0086 -0.3124 -0.2658
 6724W        W24248  13.365  10.402  15.489  0.0930  0.1974 -0.0499
 6725W        W24249  17.196  14.676   3.257  0.1210  0.0682  0.2260
 6726W        W24250  12.661  13.387   0.473 -0.0619  0.0949  0.1032
 6727W        W24251  14.944   4.192  12.179 -0.1980  0.1159 -0.1541
 6728W        W24252   8.458  10.639  10.956  0.0045  0.3281 -0.1444
 6729W        W24253  12.015  18.218  15.352 -0.1040 -0.1953  0.0045
 6730W        W24254   7.322  14.603  13.841  0.2945  0.1112 -0.2301
 6731W        W24255   0.437  11.291  12.696 -0.1254  0.0816 -0.0513
 6732W        W24256  16.459   6.359   3.825 -0.0460  0.0519 -0.3500
 6733W        W24257   3.656   7.966  14.468 -0.0049  0.2305  0.1264
 6734W        W24258   3.012   8.288   0.524 -0.1525  0.2822  0.0764
 6735W        W24259   7.023   7.417  14.782 -0.1537 -0.1119  0.0819
 6736W        W24260   7.860  14.115   0.026 -0.0573  0.0096  0.2132
 6737W        W24261   8.110  16.399   0.563  0.5818 -0.0382 -0.1912
 6738W        W24262   7.892   7.270  11.903 -0.2436  0.0230  0.1129
 6739W        W24263  10.979   5.994  14.881  0.0462 -0.0855 -0.0529
 6740W        W24264   2.356   7.150  13.936  0.0473 -0.0406 -0.2477
 6741W        W24265  13.652   2.564   0.983  0.7556  0.2360  0.2222
 6742W        W24266   1.575  17.411  11.407 -0.0201  0.0884  0.1266
 6743W        W24267   9.657  14.559   3.095 -0.0917 -0.2301  0.0823
 6744W        W24268  17.495   1.110   1.501 -0.0370  0.2171 -0.1493
 6745W        W24269  17.393   0.310  12.472  0.0400  0.2150  0.1964
 6746W        W24270  15.286   3.926   2.133 -0.1287 -0.0117  0.1702
 6747W        W24271   7.368  15.972   3.242  0.1199 -0.1366 -0.0366
 6748W        W24272   1.429   0.983  11.795  0.0994 -0.4900 -0.0206
 6749W        W24273  14.902   3.747   4.472 -0.0987 -0.0190 -0.4011
 6750W        W24274   7.377  14.819   4.050 -0.1237  0.2896  0.1677
 6751W        W24275  11.269   5.429   2.059 -0.2593 -0.1740  0.5846
 6752W        W24276   9.331   2.314   4.764 -0.0995  0.1047  0.1306
 6753W        W24277   2.911  12.284  10.478  0.0913  0.2320  0.0945
 6754W        W24278   3.388   7.565   2.180 -0.0853  0.1167 -0.3017
 6755W        W24279   2.773   9.893   4.357  0.1184 -0.0859  0.2269
 6756W        W24280   0.429   4.337   0.942 -0.0685 -0.4098 -0.1526
 6757W        W24281  14.960   5.080   4.149 -0.0346 -0.1160  0.0631
 6758W        W24282   0.173   3.014   0.665 -0.2739  0.1436 -0.3737
 6759W        W24283  15.389   6.636   0.187 -0.1277 -0.1805  0.3268
 6760W        W24284  17.977   8.559   1.590 -0.1762  0.0383  0.0094
 6761W        W24285   1.301  13.956  12.941  0.1650 -0.0791  0.1698
 6762W        W24286   1.446   9.580   1.942  0.0115 -0.2916 -0.1522
 6763W        W24287  11.121  14.039  10.528 -0.0138  0.1074  0.0745
 6764W        W24288  14.006  14.265  13.283  0.1771 -0.1460  0.1130
 6765W        W24289  13.301   3.638  14.497 -0.0428 -0.2116 -0.2105
 6766W        W24290  11.644   1.802   4.336  0.1197 -0.0188  0.1209
 6767W        W24291   8.657   8.873   4.489  0.0974 -0.3056  0.1630
 6768W        W24292   3.132  10.427   2.347  0.2569  0.0255  0.1203
 6769W        W24293   8.381   3.947  14.672 -0.4023  0.3188 -0.0948
 6770W        W24294   5.129   5.635   5.247 -0.0141 -0.2151 -0.0157
 6771W        W24295  18.263   8.481   1.180 -0.0192 -0.1366 -0.1486
 6772W        W24296  16.394  12.327  13.785 -0.2355  0.1580 -0.1068
 6773W        W24297   8.859  17.832   3.162  0.0685  0.0544  0.2279
 6774W        W24298  10.302   1.248   1.396  0.1122  0.0175 -0.0447
 6775W        W24299   5.529  11.085   0.387 -0.1813 -0.1480  0.1863
 6776W        W24300  11.782  11.426  14.038  0.4111  0.1509 -0.0057
 6777W        W24301  11.600  14.970   2.456 -0.1919  0.0440  0.2721
 6778W        W24302  17.799  15.640   2.802  0.0917  0.0173 -0.1000
 6779W        W24303  16.616   3.217  11.244 -0.1862  0.0619 -0.1382
 6780W        W24304  13.489   6.086  14.710 -0.1251  0.0449  0.2095
 6781W        W24305   7.092  10.433   1.892  0.2739  0.1989 -0.0446
 6782W        W24306   6.606   6.348  14.069 -0.1720 -0.0556  0.0778
 6783W        W24307  13.537   1.664  12.622  0.0603  0.0190  0.1737
 6784W        W24308   0.572  11.998   0.967 -0.0536 -0.1688 -0.2162
 6785W        W24309   2.358  17.887   4.423  0.4062 -0.3724  0.0200
 6786W        W24310   9.580  10.383  13.216 -0.0884 -0.0680 -0.1239
 6787W        W24311  16.694  13.979  15.660  0.0434 -0.0404  0.0072
 6788W        W24312  15.853   4.776   4.143 -0.1915 -0.2049  0.2459
 6789W        W24313  12.220  16.351  11.404  0.0613  0.1349  0.3213
 6790W        W24314  16.943   0.050   4.524 -0.1197  0.1975 -0.3118
 6791W        W24315   4.208   3.962  15.358 -0.2952 -0.0291  0.3952
 6792W        W24316  15.786  16.542   2.347  0.0236  0.4121 -0.0536
 6793W        W24317  13.025   3.238  12.596  0.0024 -0.1132  0.0483
 6794W        W24318   0.402   6.447   0.408  0.0135  0.0366 -0.1303
 6795W        W24319  14.149   1.756  14.390 -0.1728 -0.0589 -0.0163
 6796W        W24320   8.239   5.826   1.295 -0.3810 -0.0990 -0.3083
 6797W        W24321  13.514   5.571  13.396 -0.0969  0.2894 -0.2474
 6798W        W24322   6.940   6.735   3.442 -0.2429  0.2208 -0.2221
 6799W        W24323  17.047   4.396   4.750 -0.2539 -0.1873  0.3056
 6800W        W24324  10.461  12.110  13.159  0.1617  0.2479  0.1733
 6801W        W24325   5.170   9.432   4.548  0.0573 -0.0248 -0.1022
 6802W        W24326   2.853   2.605   3.520  0.2626  0.1635 -0.1467
 6803W        W24327  17.743   2.523  12.770 -0.1210 -0.0353 -0.0608
 6804W        W24328   5.614  18.028   4.066 -0.1075 -0.1690 -0.3894
 6805W        W24329  15.064   2.487  12.142 -0.0647 -0.1143 -0.3648
 6806W        W24330   7.434  11.318   2.950  0.0637 -0.2898  0.0400
 6807W        W24331  14.104   2.292   3.430 -0.1744 -0.0561 -0.3680
 6808W        W24332   7.440  17.588  11.426  0.0320 -0.2647  0.0127
 6809W        W24333   4.622   9.552   6.030  0.1940 -0.3839  0.3093
 6810W        W24334  14.083   3.466   1.839 -0.1628 -0.1808 -0.2915
 6811W        W24335   8.027   6.280   4.383 -0.1459  0.1084  0.1669
 6812W        W24336   7.491  11.702  15.046  0.1141  0.3409 -0.1658
 6813W        W24337   5.391  18.213  12.413 -0.5276 -0.1150  0.0768
 6814W        W24338  15.864   1.830   0.691 -0.2626  0.2077  0.1333
 6815W        W24339   7.878   5.375   4.132  0.2466  0.1797  0.0116
 6816W        W24340   1.593  15.831  11.417 -0.0817  0.3726 -0.0145
 6817W        W24341   3.039   2.507  15.625  0.0845 -0.0731  0.4034
 6818W        W24342  10.125   0.494   3.510  0.1250  0.0859  0.0198
 6819W        W24343   9.657  14.160   1.786 -0.0467  0.3329  0.5051
 6820W        W24344  10.107  14.968  13.711 -0.1370 -0.1245  0.0705
 6821W        W24345   0.082  13.171  11.454  0.1472  0.2082 -0.0316
 6822W        W24346   8.664  11.912  14.338  0.1088 -0.2653 -0.0738
 6823W        W24347  12.983   0.943  12.542  0.1701 -0.2092 -0.2181
 6824W        W24348   6.713   1.700  15.585  0.0191  0.0365 -0.2309
 6825W        W24349  15.744  11.762   1.018 -0.2176 -0.2876  0.2075
 6826W        W24350  17.106   0.812   1.045  0.0402  0.2019 -0.2286
 6827W        W24351   4.490   2.151   0.382 -0.0426 -0.1301  0.3026
 6828W        W24352   8.389   5.973   1.872  0.1743 -0.2410  0.1486
 6829W        W24353   4.778  17.992   5.166  0.3625 -0.1884 -0.1524
 6830W        W24354   5.255  11.549   2.496  0.2064 -0.1580  0.0290
 6831W        W24355  16.131   4.356  15.395 -0.2608  0.0191 -0.2212
 6832W        W24356  18.249  15.198  15.562  0.2140  0.1136 -0.2851
 6833W        W24357  16.304  13.134   3.883 -0.2417 -0.2651  0.2042
 6834W        W24358   8.271   7.834   3.635 -0.0720 -0.0877 -0.2027
 6835W        W24359  11.715   5.742  11.194 -0.0682 -0.0563  0.0505
 6836W        W24360   9.067   3.641   1.031 -0.1951 -0.3441  0.0360
 6837W        W24361   7.577   6.414   4.170  0.0437 -0.2836 -0.0586
 6838W        W24362  12.483  18.030  15.559 -0.3844  0.1397  0.0874
 6839W        W24363   5.928   5.460   3.798  0.1473  0.0235  0.1787
 6840W        W24364   2.101  10.504   5.025  0.1824  0.2090  0.0757
 6841W        W24365   0.488   0.509  12.146  0.1519 -0.0792 -0.0843
 6842W        W24366  13.477   5.031  11.143  0.1984 -0.3084 -0.4935
 6843W        W24367  10.949  16.599   5.849 -0.0647  0.1609  0.1006
 6844W        W24368  11.365   1.111  12.621 -0.0447 -0.1038 -0.1831
 6845W        W24369   7.315   5.926   9.835  0.2773 -0.1111 -0.0013
 6846W        W24370   2.936   1.734   5.461 -0.2832  0.2254 -0.2055
 6847W        W24371  18.195   9.730   1.931  0.1058  0.1224 -0.0020
 6848W        W24372  14.827   8.486   3.719  0.1116 -0.2995 -0.1741
 6849W        W24373   0.416   1.981  12.156 -0.1527 -0.2008  0.1988
 6850W        W24374  11.914   5.718  14.677 -0.1475  0.1000  0.2317
 6851W        W24375  18.335  11.487   3.863 -0.1511 -0.2721  0.0816
 6852W        W24376   8.106   2.043  11.537  0.1721  0.4405 -0.1197
 6853W        W24377  13.116   3.014  15.162  0.1566 -0.2407  0.0654
 6854W        W24378  14.265   8.658  10.212 -0.2317 -0.0206  0.0392
 6855W        W24379  11.573   4.261  12.518  0.0254 -0.0778  0.0089
 6856W        W24380  16.536  13.597   3.602  0.3253 -0.0965  0.1410
 6857W        W24381   7.763   0.198  11.712 -0.0513  0.1963 -0.0604
 6858W        W24382   3.458  10.509   4.340  0.6591 -0.0539  0.1023
 6859W        W24383   2.513   1.116   3.686  0.0997 -0.2043 -0.1236
 6860W        W24384  13.724  11.959   0.223  0.3952 -0.0053  0.0814
 6861W        W24385  12.226  14.494   1.874  0.1885 -0.0250  0.0887
 6862W        W24386   8.329  11.753   1.645 -0.0022  0.3133 -0.1010
 6863W        W24387  17.848  13.534  11.901 -0.0914  0.0024 -0.1682
 6864W        W24388  11.785  14.014   0.883  0.0410  0.1159  0.0546
 6865W        W24389   7.985   1.323   4.466 -0.1157  0.0178  0.3194
 6866W        W24390  10.858   4.000   3.037 -0.0763  0.0941 -0.1583
 6867W        W24391   5.122   6.724  15.378 -0.1005 -0.1323  0.2337
 6868W        W24392   6.639  16.430  11.773  0.2261 -0.1591 -0.1308
 6869W        W24393   3.593  17.905   3.973 -0.1398 -0.2361  0.5107
 6870W        W24394   5.364   7.689   5.578  0.1754 -0.0006  0.1537
 6871W        W24395   1.160  15.853  13.359 -0.1884 -0.1004 -0.1556
 6872W        W24396   6.383   6.044   0.363  0.0159  0.1209 -0.1727
 6873W        W24397   7.706   5.271  14.114 -0.1444  0.0688 -0.0243
 6874W        W24398   0.027   9.391   3.223  0.0835 -0.1041  0.2811
 6875W        W24399  15.488   9.841  12.382 -0.0264  0.1214 -0.2350
 6876W        W24400  15.489   9.558  14.144 -0.1297  0.0132  0.2733
 6877W        W24401  13.140  13.312   6.030 -0.0848 -0.0901 -0.1674
 6878W        W24402  12.770  13.925  12.311 -0.1621  0.2158 -0.0292
 6879W        W24403  17.139   3.625   4.640  0.1712 -0.1186 -0.2162
 6880W        W24404   6.607  12.186  11.459 -0.1463 -0.0425  0.1564
 6881W        W24405   5.894  15.939  15.123 -0.0740  0.0969 -0.1975
 6882W        W24406   9.270   1.046   4.167  0.2058 -0.1357  0.0917
 6883W        W24407  15.752   0.975  15.509  0.0315  0.2286  0.2840
 6884W        W24408   4.520  17.662  13.601 -0.0765 -0.1322 -0.0179
 6885W        W24409   9.453   5.973  12.537 -0.2996  0.1395 -0.5755
 6886W        W24410  10.810   3.416   0.666 -0.1882  0.4292  0.0240
 6887W        W24411  11.743  10.430  13.607  0.2970  0.1197 -0.2156
 6888W        W24412  15.495  17.373   2.915  0.1304  0.2700 -0.2402
 6889W        W24413   2.351   2.213   0.922  0.1315  0.1157  0.3091
 6890W        W24414  13.767  14.059   1.948  0.2311  0.2169  0.1241
 6891W        W24415  17.676   6.833   1.654  0.1306  0.0944 -0.1614
 6892W        W24416   2.666   9.472   1.609  0.0321 -0.0989 -0.1226
 6893W        W24417   5.063  12.178   1.633  0.2041  0.0951  0.0741
 6894W        W24418   7.779   9.123   1.582 -0.0791  0.1972  0.0879
 6895W        W24419   8.254   5.138   4.378 -0.0691  0.0042 -0.3746
 6896W        W24420  11.585   1.531  12.441 -0.0781  0.0311 -0.1817
 6897W        W24421   5.873  18.201  11.950  0.3156 -0.2257 -0.2238
 6898W        W24422   1.036  15.596  15.360  0.3493 -0.1015  0.2869
 6899W        W24423  11.830  16.078  14.573 -0.2605  0.0938  0.3479
 6900W        W24424  11.417   3.239  15.786  0.0777 -0.4179  0.0917
 6901W        W24425  13.672   2.166  12.775 -0.2057  0.1574 -0.0940
 6902W        W24426  13.777  17.426  12.898 -0.1148 -0.0730  0.0114
 6903W        W24427  12.393  16.492   4.731 -0.1565 -0.2597 -0.3900
 6904W        W24428   3.958   4.878  14.434 -0.1268 -0.1241 -0.1955
 6905W        W24429  15.061   5.900   4.650 -0.3273 -0.2432 -0.2808
 6906W        W24430  16.219  14.618   1.781  0.0906  0.0139  0.2527
 6907W        W24431   0.667  14.505   2.730 -0.2365  0.2032 -0.0958
 6908W        W24432  15.428   0.995   0.071 -0.1935 -0.1603 -0.0352
 6909W        W24433   0.855   4.449  12.869  0.3337  0.3051  0.0562
 6910W        W24434  13.981   3.003  11.610  0.1733 -0.0215 -0.2245
 6911W        W24435   2.234   0.117  13.322  0.1579 -0.3542  0.0508
 6912W        W24436   5.337   5.997   1.286  0.0127  0.1379 -0.0865
 6913W        W24437  10.502  15.000  11.210  0.0892 -0.0319 -0.0815
 6914W        W24438  16.700  14.069  14.219 -0.0765  0.2015  0.1941
 6915W        W24439   3.012   8.697   1.492  0.0523  0.0870  0.1908
 6916W        W24440  16.089  17.467   3.664 -0.0451  0.2680 -0.0440
 6917W        W24441   0.017   4.155  14.490 -0.3212  0.1811 -0.2880
 6918W        W24442   8.712   3.578   1.465 -0.0301  0.2518 -0.1453
 6919W        W24443  14.734  15.460   1.222  0.2134 -0.2364  0.1808
 6920W        W24444  12.531  14.669   0.730 -0.0466  0.1760 -0.0219
 6921W        W24445   4.245   8.248  14.191 -0.1514  0.2589 -0.0310
 6922W        W24446   4.369   5.175  15.310 -0.0183  0.0894  0.2086
 6923W        W24447  14.705  12.265   1.668 -0.2963  0.1586 -0.1339
 6924W        W24448   8.054   1.691   5.714  0.3515 -0.0822 -0.0572
 6925W        W24449  16.712   9.543   3.166  0.0316 -0.1476 -0.1595
 6926W        W24450  13.492  13.271  14.483 -0.0648  0.1455 -0.2236
 6927W        W24451   0.938   7.598   0.293 -0.2790 -0.2925 -0.2190
 6928W        W24452   9.771  17.228   0.888  0.0489 -0.1569 -0.2394
 6929W        W24453   7.169  16.731  14.132 -0.0219 -0.1871  0.4560
 6930W        W24454  13.908  17.954  14.532  0.2650 -0.0987 -0.1491
 6931W        W24455   2.023  12.000  14.962 -0.1137 -0.1771 -0.3321
 6932W        W24456   7.341   9.663   3.403 -0.0635  0.0761  0.2953
 6933W        W24457   7.182   6.579   4.763 -0.0047  0.2870 -0.0690
 6934W        W24458  16.496   7.006  15.109 -0.0242 -0.0742  0.0711
 6935W        W24459   3.138   2.945  14.747  0.2067  0.0093  0.0651
 6936W        W24460   8.104   6.954   2.182  0.2948  0.1999 -0.0016
 6937W        W24461  10.941   1.514  15.627 -0.1353 -0.1187 -0.0622
 6938W        W24462   1.582  18.367  13.075 -0.2392  0.1058  0.0272
 6939W        W24463  17.538  10.871  11.810  0.1182 -0.2702  0.0596
 6940W        W24464  18.356   4.202  12.194  0.2543 -0.0845  0.2175
 6941W        W24465   3.594   6.294  13.680  0.4630  0.1613  0.2139
 6942W        W24466   5.261   8.467   2.821  0.1215  0.1984 -0.0778
 6943W        W24467   7.766   0.072   4.524  0.1185  0.0092  0.1240
 6944W        W24468   8.649   9.524   0.444 -0.0375 -0.0073 -0.1119
 6945W        W24469  12.175  12.487   0.056 -0.0784 -0.2427 -0.2198
 6946W        W24470   5.003  12.431   3.078 -0.0702  0.0150 -0.0869
 6947W        W24471   0.654   3.645  11.123  0.0449  0.1938 -0.3142
 6948W        W24472  10.278   5.881   1.169  0.1870  0.1388 -0.2502
 6949W        W24473  15.150   8.329   2.231  0.0422 -0.0615  0.0332
 6950W        W24474   7.910  11.072   3.218  0.0918 -0.3677  0.0666
 6951W        W24475   7.324   4.220  13.766 -0.1899 -0.2282 -0.3894
 6952W        W24476   8.276   2.773  14.293  0.0716 -0.0416  0.2538
 6953W        W24477  10.445   9.595  11.021  0.2275  0.0243 -0.3730
 6954W        W24478   6.930   6.930  14.690  0.1901  0.0962  0.2493
 6955W        W24479   2.197  17.719  13.741  0.0656 -0.2331  0.0093
 6956W        W24480   7.720   7.875   2.982  0.2133 -0.0161  0.2849
 6957W        W24481  17.084   1.071   0.232  0.0609  0.0417  0.3022
 6958W        W24482   1.463   5.131  12.618 -0.0620  0.0680 -0.1829
 6959W        W24483   1.462   2.133   4.241 -0.1657  0.0164  0.1331
 6960W        W24484   6.662  14.653   1.709  0.1355  0.1405 -0.3078
 6961W        W24485   0.879  17.407  13.725 -0.3376 -0.0408 -0.0249
 6962W        W24486  17.566  16.401   4.158 -0.0250  0.0675 -0.1047
 6963W        W24487   4.980  12.747   2.344 -0.2984  0.0719 -0.1153
 6964W        W24488  14.768   1.163   3.286  0.2208 -0.4199  0.0794
 6965W        W24489  17.441  16.022  13.907  0.0476 -0.0317  0.1741
 6966W        W24490  17.147   3.116   0.654  0.0393 -0.0881  0.1338
 6967W        W24491  13.450   6.159   4.272  0.0631  0.0184  0.0467
 6968W        W24492   2.289  13.309  10.926  0.0815  0.1485  0.1282
 6969W        W24493   2.608  13.670   1.254 -0.2657 -0.2106 -0.0293
 6970W        W24494   3.387   9.235  14.575 -0.2560 -0.0821  0.0819
 6971W        W24495  14.245  14.114  15.804 -0.0786 -0.2383 -0.1465
 6972W        W24496  12.923  17.496  12.454 -0.4746  0.1555 -0.0179
 6973W        W24497  13.708  11.604   1.402  0.1959  0.1526  0.0156
 6974W        W24498   2.294   6.723   2.652  0.0593  0.3306 -0.1198
 6975W        W24499   3.419  10.957   0.368 -0.1949  0.0087  0.1134
 6976W        W24500   5.402   9.417   3.734  0.2104 -0.0649  0.2675
 6977W        W24501   8.906   0.625  15.583  0.1044  0.0336 -0.3837
 6978W        W24502   4.230   5.731   3.235  0.1106 -0.1995 -0.3012
 6979W        W24503  16.933   3.597  12.878 -0.1827 -0.0692  0.3677
 6980W        W24504  13.182  11.354  12.659  0.2217 -0.1454 -0.0056
 6981W        W24505  15.284  14.698  13.340 -0.2334 -0.0110  0.1591
 6982W        W24506  10.845  10.680   0.979  0.1742 -0.1506  0.2247
 6983W        W24507   1.350   6.496  12.417  0.0414 -0.1275  0.0945
 6984W        W24508  10.217   4.243  14.721 -0.0195  0.0875  0.2764
 6985W        W24509   2.759  11.886  12.787 -0.2270  0.1038 -0.1831
 6986W        W24510   7.406   8.495   1.086 -0.2379 -0.1041  0.1629
 6987W        W24511  14.959   8.975   1.294  0.0198 -0.1289 -0.0012
 6988W        W24512  15.986  13.681  15.142  0.1802  0.0486 -0.1159
 6989W        W24513   5.193   1.001  10.031  0.0976  0.2052  0.1914
 6990W        W24514  14.511  17.775  14.868 -0.1584  0.1176  0.1063
 6991W        W24515  10.833   9.007   4.342 -0.2548  0.0918  0.0498
 6992W        W24516   2.919   8.845   4.805  0.2701  0.0126 -0.2088
 6993W        W24517   5.912   3.717   0.167 -0.0993  0.0774 -0.4450
 6994W        W24518   3.397   7.775   1.718 -0.2856  0.0399 -0.1916
 6995W        W24519   7.742   4.413   2.235 -0.1892  0.0575  0.0566
 6996W        W24520   5.960  11.929   3.017  0.1071 -0.3297  0.1176
 6997W        W24521   1.903  15.620  12.839 -0.2005  0.0041 -0.0548
 6998W        W24522   5.125   5.658  14.117 -0.0378  0.0288 -0.1249
 6999W        W24523  14.554   2.641  13.873  0.2455  0.2760  0.2197
 7000W        W24524   9.705  14.109  11.013  0.0103 -0.0533  0.0079
 7001W        W24525   5.947   3.524  12.468  0.1519  0.4640 -0.2604
 7002W        W24526  18.079   8.801  10.580  0.1007  0.1690 -0.0512
 7003W        W24527  15.614  12.670  11.439  0.1430  0.0522  0.0840
 7004W        W24528  14.037  16.022  12.882 -0.3658 -0.0974 -0.1709
 7005W        W24529   2.015  10.649   3.994 -0.0784  0.0580 -0.1856
 7006W        W24530  13.644  16.331   1.670  0.4314  0.0056 -0.2032
 7007W        W24531  13.961  17.039  14.903 -0.1606  0.1490  0.4415
 7008W        W24532  18.037  13.729  11.015 -0.0287 -0.0043  0.0339
 7009W        W24533  11.723   9.343   1.535  0.0636 -0.3965  0.3189
 7010W        W24534   9.261   3.531   2.030  0.2182 -0.0283  0.3356
 7011W        W24535   0.340  13.272   1.591 -0.1215 -0.2861 -0.1165
 7012W        W24536  11.579   2.512  14.683  0.1334 -0.0323  0.2282
 7013W        W24537  13.030   8.056  14.351  0.1727 -0.2479 -0.1316
 7014W        W24538  17.076  14.771   1.817  0.1387  0.4988  0.2592
 7015W        W24539  13.005   2.595   4.416 -0.0256  0.0677 -0.0343
 7016W        W24540   1.026   3.810  13.558 -0.1611  0.3511 -0.0772
 7017W        W24541  15.783   8.329  11.709  0.0517 -0.1082  0.2191
 7018W        W24542   0.159  17.888  15.176 -0.1791 -0.2891  0.1134
 7019W        W24543   8.065   6.840  12.508  0.1068  0.2993  0.3585
 7020W        W24544   8.173  16.173   0.070  0.1743 -0.1322  0.1162
 7021W        W24545  15.463   2.319   1.170 -0.0153  0.3399  0.0665
 7022W        W24546   3.394  15.662  11.324  0.1547  0.0286  0.1554
 7023W        W24547  17.924   2.403  11.825 -0.0060  0.0403  0.1053
 7024W        W24548   0.831  12.497  14.926 -0.0051 -0.0299 -0.0301
 7025W        W24549   9.897   7.463  10.041 -0.0537  0.1207 -0.2409
 7026W        W24550  11.314  11.686   3.067  0.0180 -0.1369 -0.0335
 7027W        W24551   2.058   2.502  13.398 -0.2742  0.0076  0.1865
 7028W        W24552   0.115   4.729  10.717  0.2780 -0.2707  0.2255
 7029W        W24553  16.485  17.365   1.965 -0.1273  0.2309 -0.1288
 7030W        W24554   4.064   2.315  14.481 -0.1071  0.0392 -0.0875
 7031W        W24555   7.522   5.206   2.880  0.3298  0.0709 -0.0120
 7032W        W24556  16.167  16.866   0.817  0.0492 -0.2665 -0.4976
 7033W        W24557   2.935  10.745   4.329 -0.0954 -0.2418 -0.1480
 7034W        W24558  10.596  13.314   2.415 -0.2848 -0.0861 -0.0869
 7035W        W24559   7.105   9.951  12.031  0.2616  0.3319  0.1107
 7036W        W24560   7.419  12.066  15.758  0.0070 -0.0658  0.0363
 7037W        W24561   3.265  10.538   0.587 -0.1871 -0.2885 -0.3397
 7038W        W24562   1.064   8.085  13.079  0.0077 -0.2276 -0.1964
 7039W        W24563   0.359  16.807  13.834  0.1290 -0.0251 -0.0414
 7040W        W24564   1.926  17.826   3.435 -0.1607 -0.1613 -0.3225
 7041W        W24565  11.188  10.063   1.741  0.2222  0.4900  0.0205
 7042W        W24566  16.587   8.674   0.895  0.1081 -0.2745 -0.2491
 7043W        W24567   9.000   4.697  14.119  0.0434 -0.1627  0.0259
 7044W        W24568   3.720  13.347   0.530 -0.2924  0.0500  0.2559
 7045W        W24569  14.668   3.384   3.093  0.0356 -0.1791 -0.4218
 7046W        W24570  16.025   7.684   1.648  0.0243  0.2444 -0.0871
 7047W        W24571   0.334   3.849   0.969  0.0317  0.1588  0.1962
 7048W        W24572   9.752   8.355  11.988  0.1065  0.0575 -0.2037
 7049W        W24573  16.076   0.305  13.583  0.0060  0.4798 -0.0877
 7050W        W24574   9.317  10.671  11.651  0.0395 -0.0979  0.2579
 7051W        W24575  14.839   0.666   2.138 -0.4641 -0.0883  0.0274
 7052W        W24576  15.956   1.338   3.972  0.2709  0.0555 -0.1970
 7053W        W24577   5.692  12.967   5.564 -0.0471 -0.2141 -0.2829
 7054W        W24578  10.681  11.204  11.549  0.0976  0.1521 -0.1337
 7055W        W24579   4.746  10.436   4.602  0.0827  0.1695 -0.0369
 7056W        W24580   8.602   8.486   1.431 -0.1063  0.1110  0.0066
 7057W        W24581   2.304   0.145  13.820 -0.0209 -0.0274 -0.1348
 7058W        W24582  13.269   4.977   2.564  0.2179 -0.0132  0.0521
 7059W        W24583   9.421  10.453  15.053  0.0852 -0.0615 -0.0405
 7060W        W24584  16.226  10.480  14.362 -0.3223  0.2796  0.4203
 7061W        W24585  16.521   3.209  13.176 -0.0769  0.1469  0.1198
 7062W        W24586   3.578   2.270  13.001  0.2431 -0.3487  0.4164
 7063W        W24587   1.794   5.341   2.792 -0.1036  0.0443  0.2704
 7064W        W24588   3.384  15.790   4.568 -0.0596 -0.1394  0.2327
 7065W        W24589   6.022  17.027  11.791 -0.3103  0.1516 -0.0021
 7066W        W24590  16.034   3.046  14.871  0.2732  0.3048  0.1259
 7067W        W24591   9.962  10.024   3.989  0.1177 -0.2939  0.1296
 7068W        W24592   5.174   0.744  14.612  0.1148  0.0367  0.1542
 7069W        W24593  11.685  16.309   2.983  0.0394 -0.1353  0.0517
 7070W        W24594   1.948   3.400  13.852  0.0068 -0.0113  0.0000
 7071W        W24595  11.635   2.880   2.321 -0.0713  0.1882 -0.0330
 7072W        W24596   1.234   7.491  12.224  0.1319  0.0396  0.2763
 7073W        W24597   2.469  17.855  15.256  0.2303  0.2177  0.0203
 7074W        W24598   4.444   4.691  13.842 -0.0366 -0.0127 -0.0498
 7075W        W24599   3.989   3.453  12.569 -0.2050  0.1056 -0.1204
 7076W        W24600  11.746  10.957  11.515  0.1057  0.2104 -0.1807
 7077W        W24601   4.525  17.039   2.788 -0.2157  0.0580  0.0081
 7078W        W24602   4.113   9.465  15.240  0.1342  0.3188  0.3096
 7079W        W24603  12.263  11.452   4.755  0.0034  0.1164  0.1053
 7080W        W24604   0.554  18.372   4.768  0.2588 -0.2481 -0.2227
 7081W        W24605  10.443  15.416   2.044  0.0289  0.2715 -0.5243
 7082W        W24606  14.868   4.985  13.583  0.0010  0.1490  0.0867
 7083W        W24607  13.842   1.566   4.175 -0.4185 -0.5307  0.0529
 7084W        W24608   1.345   4.874   4.265 -0.1307  0.0068 -0.3040
 7085W        W24609  17.903   8.184   3.343  0.0920 -0.2048 -0.1405
 7086W        W24610   1.488  13.343  15.630  0.1559 -0.1396 -0.1135
 7087W        W24611  10.039  17.145   2.727  0.1146  0.1567 -0.1735
 7088W        W24612  11.849   7.839   0.661 -0.5314 -0.1378 -0.2724
 7089W        W24613  10.501   8.218  11.594 -0.0816  0.1336  0.0634
 7090W        W24614  13.645   9.907   3.148  0.0585  0.2705  0.0169
 7091W        W24615   3.818  16.401  14.825  0.1361  0.3690 -0.2341
 7092W        W24616   5.505   4.468  13.994  0.1319 -0.1917 -0.2657
 7093W        W24617   6.116  12.339   0.631 -0.0152  0.3434 -0.1853
 7094W        W24618   2.354  17.243  15.462  0.2164  0.2026  0.2846
 7095W        W24619  10.274   2.131  12.436 -0.0023  0.0197 -0.0961
 7096W        W24620   7.751  13.589  14.993  0.2100  0.2601 -0.4645
 7097W        W24621  18.292   0.865   0.310 -0.0283 -0.1891  0.4402
 7098W        W24622  14.446  10.661   0.545  0.2738  0.1611  0.2876
 7099W        W24623  15.906   8.899   1.650  0.0533 -0.2822  0.1620
 7100W        W24624   8.073   1.681  14.531  0.1613  0.0626  0.0801
 7101W        W24625  10.748   6.880  14.837 -0.2423  0.0665 -0.1192
 7102W        W24626   1.046   6.355  11.502 -0.2753 -0.0286  0.1678
 7103W        W24627   9.081  12.412   4.439 -0.4648  0.1727 -0.1891
 7104W        W24628  11.414   5.234   0.233 -0.0069  0.0158  0.2147
 7105W        W24629  10.643   1.186  12.505 -0.3330  0.2252 -0.2228
 7106W        W24630  12.673   6.352   2.700  0.0042 -0.1440 -0.3055
 7107W        W24631   0.349  10.260   3.413  0.0652 -0.0461  0.1080
 7108W        W24632   2.519  10.069  13.129  0.2281 -0.2809  0.1332
 7109W        W24633  12.687  16.011   4.243  0.3340 -0.0960 -0.1896
 7110W        W24634   4.488   1.378  14.056 -0.1752  0.2105  0.1229
 7111W        W24635   7.400   1.496  12.693 -0.3946 -0.0962 -0.2815
 7112W        W24636   3.332  15.647   4.056 -0.2200  0.4621  0.3134
 7113W        W24637   8.432  16.474  13.174 -0.3662  0.2292 -0.1670
 7114W        W24638  11.592   0.623  11.412 -0.0901  0.2045  0.2082
 7115W        W24639   2.184  13.244  11.719  0.1964  0.2725 -0.0734
 7116W        W24640   2.903  14.223  13.506 -0.1561  0.1441 -0.1157
 7117W        W24641   9.226  12.357  15.397 -0.1170 -0.0823  0.0514
 7118W        W24642   8.952  15.960   0.333 -0.1852  0.0243  0.0548
 7119W        W24643   6.468   9.693   0.133  0.0078 -0.0774  0.1383
 7120W        W24644   7.564   6.804  12.676 -0.0808  0.2764  0.4142
 7121W        W24645   5.795  17.517  15.060  0.0344 -0.0962  0.1249
 7122W        W24646   4.467   0.718  12.836  0.1676  0.0858  0.0316
 7123W        W24647  11.151  15.383  13.002 -0.1737 -0.1361  0.2118
 7124W        W24648   2.536  16.622   3.332 -0.0154 -0.1502  0.0988
 7125W        W24649   5.303   0.312  12.305 -0.1656  0.1228  0.0703
 7126W        W24650  15.753   5.878   2.091 -0.3648  0.1871  0.3374
 7127W        W24651   8.313   3.545   3.421  0.1598  0.0734 -0.0831
 7128W        W24652  16.470   3.691  11.516 -0.1405 -0.1345 -0.0217
 7129W        W24653  11.403  14.523   2.096 -0.0465  0.1172 -0.0930
 7130W        W24654   2.258  17.334   0.535  0.1075  0.0127  0.1881
 7131W        W24655  17.747   5.750  14.792  0.1536  0.2913  0.1245
 7132W        W24656  12.667  18.119   2.293  0.2269  0.0942  0.1515
 7133W        W24657  11.596   5.527  14.247  0.0649  0.0322 -0.2719
 7134W        W24658  15.807  18.220   4.784  0.0780  0.2131 -0.0968
 7135W        W24659   6.516  14.323   4.652  0.1172 -0.2364  0.0445
 7136W        W24660  12.285   0.048   5.116  0.3820  0.5534 -0.3174
 7137W        W24661  16.420   0.015   4.512 -0.2938  0.2047  0.3034
 7138W        W24662   7.855   4.484  12.994 -0.0480 -0.0086  0.0181
 7139W        W24663  16.042   8.707  15.148 -0.2792 -0.0384  0.1751
 7140W        W24664   4.698  13.252   3.368  0.0124  0.1088 -0.1044
 7141W        W24665   7.754  12.721  12.312 -0.1446 -0.4174  0.0049
 7142W        W24666  10.731   2.325   5.383  0.0200 -0.0204  0.0600
 7143W        W24667  15.763   5.904   0.772 -0.1092 -0.3670  0.1734
 7144W        W24668  12.633   5.399  14.419  0.0666 -0.0238 -0.0539
 7145W        W24669   5.612  15.750  14.280  0.0461 -0.0184 -0.3177
 7146W        W24670   7.607   8.737  12.111 -0.3043  0.2201 -0.1590
 7147W        W24671   8.697  10.336  13.500  0.1085  0.0061  0.0614
 7148W        W24672   0.190  10.447  14.489  0.1933 -0.0080 -0.0120
 7149W        W24673  13.825  11.462   0.393  0.2121  0.1259  0.2887
 7150W        W24674   0.964  13.247  10.059  0.1500  0.1159  0.3689
 7151W        W24675   2.590  10.349   4.402  0.4910  0.0551 -0.0185
 7152W        W24676   5.148  15.105   0.152  0.1773 -0.0192  0.2097
 7153W        W24677  11.346   8.216  14.307 -0.2177  0.0402  0.0726
 7154W        W24678   2.501  13.960  12.145 -0.3061 -0.1618  0.1199
 7155W        W24679   0.506   1.195   2.684 -0.1548 -0.0013  0.5029
 7156W        W24680  16.588   8.335   3.992  0.0847 -0.0343  0.1149
 7157W        W24681  12.458   1.973   3.718  0.0886  0.0558 -0.2305
 7158W        W24682  11.684  12.599  15.846  0.1517  0.0795 -0.2832
 7159W        W24683  15.373   1.783  13.055  0.0358 -0.0433 -0.0276
 7160W        W24684   4.536   2.786   4.225 -0.3360 -0.1540 -0.0569
 7161W        W24685  17.663   0.242  14.861 -0.1248 -0.1817 -0.0214
 7162W        W24686  12.581   7.954   3.614  0.1910  0.2823 -0.1000
 7163W        W24687  12.511   0.778   1.920  0.1568 -0.0365 -0.0969
 7164W        W24688   9.030  11.409   0.727 -0.0154 -0.2528  0.0244
 7165W        W24689   1.190   7.587  14.599 -0.2498  0.2495  0.2443
 7166W        W24690   5.267   0.084   4.342 -0.4299 -0.3281 -0.1205
 7167W        W24691   1.905  10.129  15.353 -0.2971 -0.1903  0.2525
 7168W        W24692  10.771   9.929   0.852  0.1937 -0.0942 -0.3012
 7169W        W24693   6.241  17.467   4.481  0.2583 -0.0731 -0.0562
 7170W        W24694   1.092  12.266   3.478 -0.2705  0.1456 -0.0378
 7171W        W24695  12.579   7.120  12.184  0.1719 -0.1548 -0.0121
 7172W        W24696  16.038   8.675   2.062  0.1788  0.0995  0.0729
 7173W        W24697   8.318   0.281   6.062  0.4079  0.3639 -0.2356
 7174W        W24698  12.051   4.837  11.949 -0.2716 -0.2932 -0.1373
 7175W        W24699   5.501   1.367  11.041 -0.0404 -0.0002  0.0164
 7176W        W24700  14.501  17.371  15.759 -0.0083 -0.1036  0.0450
 7177W        W24701  14.521   9.363   4.970 -0.0113 -0.0375  0.0739
 7178W        W24702   1.048  15.826  12.900  0.0801  0.0974 -0.2239
 7179W        W24703   7.378  17.053   3.495  0.0002 -0.0937  0.1861
 7180W        W24704   6.975  11.377   2.739  0.2508  0.0763 -0.0760
 7181W        W24705  10.870   6.599   3.204  0.0662 -0.0033 -0.1287
 7182W        W24706   0.298  15.462   2.264 -0.3996  0.1068  0.0911
 7183W        W24707  16.973  12.912  14.496 -0.2950  0.1531 -0.0309
 7184W        W24708   1.455  17.156   1.956 -0.3830 -0.1220  0.4179
 7185W        W24709   6.171   1.697  14.844 -0.1453 -0.1356  0.2576
 7186W        W24710   2.006  14.141  12.652  0.2086 -0.0472 -0.0069
 7187W        W24711  15.612   2.396  11.587  0.0434  0.2893 -0.0902
 7188W        W24712   5.216   9.568  12.301 -0.1524 -0.0956 -0.2482
 7189W        W24713   0.438   1.670  12.726  0.2759  0.0838 -0.0792
 7190W        W24714   5.171   1.237   1.723  0.1132 -0.1396 -0.0094
 7191W        W24715  17.898   8.734  15.061 -0.0693 -0.2735  0.3203
 7192W        W24716   9.288  11.799  13.668  0.0101 -0.1831 -0.1244
 7193W        W24717  16.385   3.089   1.308 -0.0388 -0.2491 -0.2663
 7194W        W24718   4.506  15.003  11.288 -0.0303  0.1124  0.4513
 7195W        W24719   9.109   0.448   4.525  0.0980 -0.1318  0.1477
 7196W        W24720  13.510  13.990  13.439 -0.0513  0.0977 -0.0369
 7197W        W24721   3.936   1.220  14.889  0.2023 -0.0144 -0.1224
 7198W        W24722   7.983  17.282   2.289 -0.1802 -0.1516  0.0065
 7199W        W24723  15.842  10.825  12.780 -0.3415  0.4769  0.1466
 7200W        W24724   0.139   7.758   1.423  0.0466 -0.0544 -0.2639
 7201W        W24725   8.707  16.121   4.056  0.0355 -0.2096  0.0625
 7202W        W24726   7.686  14.659   0.117  0.0993  0.0848 -0.1712
 7203W        W24727  12.344  12.569   1.520  0.1842  0.1013 -0.0017
 7204W        W24728  16.296  10.239   3.884  0.2039  0.2678 -0.2922
 7205W        W24729   0.183  15.609  15.207  0.0697 -0.2568  0.0125
 7206W        W24730   1.953   8.644   3.336  0.1959 -0.4471  0.0744
 7207W        W24731   9.077   6.143  14.654 -0.1062 -0.0421  0.0798
 7208W        W24732  10.474   8.279  15.337  0.2079 -0.1396  0.1517
 7209W        W24733  11.301  12.223   0.873  0.0009 -0.0017  0.2749
 7210W        W24734   5.519  17.344  10.953 -0.3660  0.1260 -0.2281
 7211W        W24735  15.703  16.777   4.771  0.2013  0.2806 -0.1684
 7212W        W24736  12.092   0.483   3.256 -0.4913  0.2281  0.3067
 7213W        W24737  15.929  17.593   1.488  0.0783 -0.1602 -0.0795
 7214W        W24738   3.348  16.195   1.082  0.0719 -0.0825  0.2057
 7215W        W24739  11.281  17.199  15.832 -0.0604  0.2568  0.1254
 7216W        W24740  14.827  18.214  15.610  0.0143  0.1071 -0.0334
 7217W        W24741   6.692   1.564  11.552  0.0982  0.1022  0.0285
 7218W        W24742  17.320   7.244   1.889  0.1112 -0.3510  0.1171
 7219W        W24743  11.813  17.376   0.786 -0.1464 -0.0849  0.0071
 7220W        W24744   0.322   4.077   1.392 -0.1968 -0.0769 -0.0740
 7221W        W24745   0.202   4.571   3.651 -0.2288 -0.2574  0.0231
 7222W        W24746   8.555   5.136  13.904  0.2971 -0.1473  0.1949
 7223W        W24747   4.398  11.102  12.749 -0.0346  0.2120 -0.1235
 7224W        W24748   0.644  13.097  13.378 -0.0697  0.0127 -0.1533
 7225W        W24749   2.764  13.028   0.816 -0.1785  0.2634  0.2065
 7226W        W24750   0.161   8.140   9.944 -0.1289 -0.0643 -0.2187
 7227W        W24751  11.251   0.636   3.001 -0.2743 -0.1193 -0.2249
 7228W        W24752   6.231   9.976   2.469  0.1440 -0.1249  0.1360
 7229W        W24753   0.232  12.534  12.662  0.1104  0.0284  0.5274
 7230W        W24754   7.799  11.433  14.693 -0.0696 -0.0124 -0.1895
 7231W        W24755  17.942  18.266  14.659  0.0745  0.1996  0.2170
 7232W        W24756   4.672  13.777  15.473  0.0284  0.0904 -0.1790
 7233W        W24757  16.848   0.297   0.805 -0.0663  0.2405  0.0278
 7234W        W24758   8.548   4.157   2.166  0.3206  0.0739 -0.0051
 7235W        W24759  12.372   3.765   1.413 -0.2316  0.3006 -0.0657
 7236W        W24760   3.878   8.612  13.030  0.0053 -0.2135  0.0624
 7237W        W24761   9.404   7.606   4.786 -0.0887 -0.3277  0.1993
 7238W        W24762  16.631   8.084  13.917  0.2157  0.3389 -0.1993
 7239W        W24763  13.516   0.522  12.305  0.1176  0.1057  0.1340
 7240W        W24764  10.849   0.496  15.637 -0.0237  0.2627  0.1463
 7241W        W24765   8.223  11.961  12.419 -0.0825  0.2226 -0.3967
 7242W        W24766  11.371  15.845   4.286 -0.2288  0.1865 -0.2824
 7243W        W24767  17.332  15.110   4.465  0.0007 -0.2730  0.0763
 7244W        W24768   0.551   1.145   0.617  0.0041  0.1708  0.0953
 7245W        W24769   1.758   0.778  15.277  0.0117  0.2535  0.0544
 7246W        W24770   3.897   9.495  11.613 -0.0005  0.0519 -0.0454
 7247W        W24771   5.208  17.133   0.256 -0.1474 -0.1686  0.1389
 7248W        W24772   7.599  14.293   0.504 -0.0692 -0.0372 -0.0570
 7249W        W24773  16.499  14.985  15.673  0.0191  0.0926  0.0216
 7250W        W24774   6.034  17.290  14.702 -0.0419 -0.3423  0.1799
 7251W        W24775  17.750   4.637   2.549 -0.1735  0.0552  0.0024
 7252W        W24776   7.347   4.556  12.320  0.1517  0.2277 -0.1088
 7253W        W24777  17.336   6.155  11.685 -0.2190 -0.0406  0.0099
 7254W        W24778  17.543  15.973   0.775  0.2185  0.1402 -0.0414
 7255W        W24779   0.921  18.139  15.451  0.2142  0.0364  0.0882
 7256W        W24780  10.579   1.058  14.649  0.4011 -0.1244  0.0180
 7257W        W24781  15.757   4.393  12.678 -0.1992 -0.1644 -0.1267
 7258W        W24782   0.779   3.723   0.246  0.3145  0.0940 -0.1359
 7259W        W24783   7.629   9.710  12.521  0.0683  0.0911 -0.2013
 7260W        W24784  16.028  13.749   2.899  0.2607  0.0201  0.6046
 7261W        W24785   0.139  12.390   1.670  0.3385  0.2116  0.1860
 7262W        W24786  12.908   2.092  12.039  0.3005 -0.1999 -0.2106
 7263W        W24787  15.437   6.147  11.404  0.1393 -0.0042  0.1706
 7264W        W24788  17.889  17.142   5.934  0.2186  0.3037 -0.3702
 7265W        W24789  10.191   4.771  11.383  0.2424 -0.1661  0.3531
 7266W        W24790   9.904  13.894  11.851 -0.3335  0.0705  0.0817
 7267W        W24791   7.115   6.248   3.648 -0.4110 -0.0398 -0.0057
 7268W        W24792  14.252   5.041   2.996 -0.1433 -0.0201  0.1543
 7269W        W24793  13.362   2.288   4.603 -0.2051 -0.2587  0.1703
 7270W        W24794  16.283   8.594  12.540  0.0854  0.1266 -0.2571
 7271W        W24795  18.198  11.955   2.231 -0.3385  0.1736  0.0667
 7272W        W24796  10.007  12.850   2.522  0.0675  0.1882  0.1414
 7273W        W24797  13.565   6.295   0.092  0.0584  0.0761 -0.0713
 7274W        W24798  11.096  16.127   1.013 -0.1777 -0.2539 -0.0527
 7275W        W24799   2.197   2.690  14.659  0.1602  0.0120 -0.1723
 7276W        W24800  10.185   7.895  12.802  0.2116 -0.2798  0.1539
 7277W        W24801   2.318   8.140  15.307  0.2682  0.1193  0.2158
 7278W        W24802  15.001  12.763   3.947 -0.0958 -0.1935  0.3228
 7279W        W24803   7.510  10.812   3.064  0.0055  0.3988  0.1631
 7280W        W24804   8.755   6.554  14.660  0.0173  0.3032  0.1882
 7281W        W24805  18.318   6.819  15.709  0.1234  0.1412 -0.2301
 7282W        W24806  16.695  14.238   0.682 -0.0272  0.2372  0.0285
 7283W        W24807   3.699  12.737  14.165 -0.0118  0.2999  0.0289
 7284W        W24808   8.762  16.966  12.402 -0.2235  0.1679  0.0949
 7285W        W24809  10.373  13.113  15.701 -0.2346  0.0675 -0.2333
 7286W        W24810   9.092  11.146   4.545  0.1567 -0.3872  0.0495
 7287W        W24811   2.736   3.838  10.723  0.2288  0.2457  0.0999
 7288W        W24812  18.296   1.554  10.171  0.3063  0.1738 -0.0440
 7289W        W24813  10.278  12.773   2.969 -0.4551  0.1841 -0.0442
 7290W        W24814   1.257  14.985  11.810  0.1794 -0.0730 -0.0226
 7291W        W24815   0.865   0.125   0.581  0.0232 -0.0444 -0.1938
 7292W        W24816   3.243  13.661   2.432  0.0268  0.0598 -0.1885
 7293W        W24817   2.818   3.037   9.757  0.3704 -0.1594  0.0139
 7294W        W24818  14.144  12.940  11.027  0.1746  0.0184 -0.1717
 7295W        W24819  10.247  16.906   1.887  0.2517  0.0191  0.2598
 7296W        W24820   8.063   9.965  11.083  0.2211 -0.0322  0.0991
 7297W        W24821  17.562  14.284  13.673 -0.2428  0.1753 -0.0181
 7298W        W24822  16.793  16.407  11.786  0.3434 -0.3266 -0.0607
 7299W        W24823  12.927  10.686  10.671  0.1318  0.0045 -0.0021
 7300W        W24824  15.406  14.434  15.111 -0.0040  0.0086 -0.2370
 7301W        W24825   7.234  10.085   0.556 -0.2102  0.2388 -0.1953
 7302W        W24826   4.525   6.379   4.042 -0.0179 -0.0762 -0.0103
 7303W        W24827  16.220  15.364  10.925 -0.2733  0.0432 -0.3087
 7304W        W24828   7.996   8.474  12.259 -0.2680 -0.2956 -0.0735
 7305W        W24829  17.695   0.518   2.187  0.1346  0.1679  0.0057
 7306W        W24830  14.006  13.131   5.366  0.1634 -0.1507 -0.1272
 7307W        W24831  17.651   6.204  10.177  0.1651 -0.2105 -0.2502
 7308W        W24832   7.650  14.717   3.150  0.3686 -0.0520 -0.1202
 7309W        W24833   5.116  16.679   2.474  0.3475  0.0485 -0.0338
 7310W        W24834   5.648  16.256   3.047 -0.0116 -0.0431 -0.1284
 7311W        W24835  11.695   3.240  15.130 -0.1367 -0.3530 -0.3789
 7312W        W24836   1.425   8.068  14.566  0.2269  0.2084  0.3007
 7313W        W24837  18.090  13.903  13.066  0.3760  0.0988  0.1693
 7314W        W24838   4.259  14.327   2.292 -0.0993  0.1458 -0.1534
 7315W        W24839  16.112   8.686  13.744 -0.1333  0.1456  0.0227
 7316W        W24840  12.028  16.111   3.330 -0.0108  0.1344  0.2849
 7317W        W24841   0.166   8.780  11.469 -0.2488  0.2991  0.1980
 7318W        W24842   4.747   2.040   1.849  0.0042 -0.2301  0.2195
 7319W        W24843   5.946   2.323  12.660  0.2400  0.2087  0.1865
 7320W        W24844  12.839  18.317  12.175  0.0534  0.3250  0.3407
 7321W        W24845  17.668  17.570   0.576  0.4036 -0.0679  0.2951
 7322W        W24846  14.805  15.092  11.733 -0.1909  0.0877  0.1040
 7323W        W24847  14.125  16.990   2.101  0.2807 -0.0954 -0.1433
 7324W        W24848   3.680  15.137  15.446  0.0034 -0.1098  0.1082
 7325W        W24849  17.210   5.551   3.318  0.1497  0.2138  0.2466
 7326W        W24850   3.602  14.701  15.633  0.1258 -0.0249  0.1594
 7327W        W24851   3.877   2.453   3.894 -0.0343 -0.1581 -0.1065
 7328W        W24852   8.013  16.801  12.334 -0.3481 -0.3287 -0.1954
 7329W        W24853   6.583  14.785   5.483 -0.0411  0.0832  0.1629
 7330W        W24854  17.705   0.044   2.408  0.2466 -0.2567  0.1361
 7331W        W24855   2.902   6.060   2.792 -0.0135  0.1761 -0.0805
 7332W        W24856   9.691   3.160  14.160  0.0623 -0.1022 -0.0199
 7333W        W24857   8.899   5.434   3.243  0.1131 -0.2511  0.3889
 7334W        W24858   1.668  14.208  11.992 -0.1956  0.0379 -0.1499
 7335W        W24859   2.034  16.000  15.076  0.0302  0.0144 -0.0128
 7336W        W24860   3.129  18.325  15.836 -0.2770  0.2477 -0.0266
 7337W        W24861   7.380  10.734  14.036  0.1764 -0.2242  0.0464
 7338W        W24862   0.901  11.442  11.185  0.3437  0.2243 -0.1503
 7339W        W24863  11.683   7.559  11.954 -0.0789 -0.2332  0.1295
 7340W        W24864  17.077   1.802   1.822 -0.1437 -0.2058  0.0208
 7341W        W24865   6.912  14.785   0.424 -0.1087  0.3229  0.0481
 7342W        W24866   7.350   5.284   2.309 -0.1236  0.2951 -0.0128
 7343W        W24867  14.332  15.340  11.678 -0.0566 -0.1736  0.2920
 7344W        W24868  14.042  17.867  13.044  0.2973  0.0697  0.1400
 7345W        W24869   4.531  10.301   2.131  0.0103  0.1315 -0.0965
 7346W        W24870  10.308   9.186  15.702  0.2342  0.0263 -0.2017
 7347W        W24871   2.117  17.837  11.720  0.0822 -0.0051 -0.1161
 7348W        W24872  15.433   0.993   2.749  0.1154  0.4347 -0.4148
 7349W        W24873   9.690   3.737   1.823 -0.1844  0.0846 -0.1236
 7350W        W24874  14.110   9.809  10.236 -0.0857 -0.0904 -0.2311
 7351W        W24875   1.072  12.566   4.755  0.1478  0.1428  0.1731
 7352W        W24876   9.736  10.996   1.758 -0.1470 -0.0393 -0.0362
 7353W        W24877   7.536   9.361  13.304 -0.0090 -0.0625 -0.0179
 7354W        W24878  13.551  17.179   4.594 -0.1395  0.2937  0.2711
 7355W        W24879   6.861   0.537  15.128 -0.1206 -0.0725  0.1109
 7356W        W24880  11.221   7.879   3.817  0.2307  0.1970 -0.0785
 7357W        W24881   4.119   7.232   4.492  0.1344  0.0128  0.1421
 7358W        W24882  13.015  12.851  14.047  0.0370 -0.3767  0.0959
 7359W        W24883   4.866   7.119   3.106  0.1244 -0.0944 -0.2142
 7360W        W24884   8.565   7.982  14.543  0.1792 -0.1554 -0.5061
 7361W        W24885  16.583   7.962  14.670  0.0557  0.0662 -0.2545
 7362W        W24886  11.252  10.809  12.879  0.1112  0.0415  0.3533
 7363W        W24887  11.707  10.175   2.548 -0.1417  0.0147 -0.1264
 7364W        W24888  15.441  13.671   2.642 -0.2031 -0.1440  0.1981
 7365W        W24889  12.158   5.034   3.041 -0.0270  0.0600  0.1827
 7366W        W24890  14.878   2.596  13.015 -0.0577 -0.0078  0.1454
 7367W        W24891  11.667  11.668  12.314  0.0381 -0.2023  0.0545
 7368W        W24892  13.290  15.995  13.880 -0.2004  0.3002 -0.0041
 7369W        W24893   9.880   2.764  12.235 -0.1801 -0.0920 -0.1197
 7370W        W24894  13.960  11.075  13.546 -0.0492 -0.0643  0.0665
 7371W        W24895  15.420  14.814   1.232 -0.2032 -0.0538  0.2451
 7372W        W24896  17.595   1.161  15.327 -0.1302  0.0697 -0.0589
 7373W        W24897   5.959  18.114   2.712  0.0059 -0.0364 -0.3117
 7374W        W24898  17.197   7.358   0.790  0.0686  0.2080 -0.0023
 7375W        W24899  15.836   9.463   0.312  0.0028 -0.3386 -0.3378
 7376W        W24900  18.411  17.477   1.100  0.0300  0.0223 -0.0094
 7377W        W24901   6.473   9.157   0.910  0.0968  0.1031  0.1735
 7378W        W24902  17.565   6.721  12.515  0.0701 -0.1518  0.0462
 7379W        W24903   2.013  11.776  15.413  0.2557  0.1930 -0.0473
 7380W        W24904  10.123  16.428   4.403 -0.1793 -0.2270  0.0155
 7381W        W24905  16.431   8.034   1.735  0.2114 -0.0045  0.3232
 7382W        W24906   4.507  15.976   2.763 -0.1248 -0.1913 -0.0252
 7383W        W24907  14.307  11.969   2.598  0.0034  0.1927 -0.2326
 7384W        W24908  11.999   3.254  12.730 -0.1855  0.0030 -0.1618
 7385W        W24909  16.063  13.454   1.155  0.2535  0.1544 -0.2150
 7386W        W24910  10.442  13.151   1.680  0.1781  0.2324  0.1009
 7387W        W24911  12.409  17.554   1.299 -0.1170 -0.1339  0.0777
 7388W        W24912   7.737  13.932  11.437 -0.2478  0.1040  0.1171
 7389W        W24913  17.561  17.090   0.941  0.2759 -0.2328 -0.4426
 7390W        W24914   0.336   5.677  12.524  0.0701  0.2343  0.0195
 7391W        W24915  13.283   4.392  15.548  0.1892 -0.1221  0.1576
 7392W        W24916  15.574   9.985   4.348  0.0188 -0.1995  0.0680
 7393W        W24917   7.911   5.495   4.635  0.0926 -0.1072  0.0632
 7394W        W24918   1.026  17.805  14.054 -0.1706 -0.1148  0.0928
 7395W        W24919   1.422   4.798   5.725 -0.2757  0.1555  0.0714
 7396W        W24920   4.523  18.183  15.498  0.2392  0.3159  0.1713
 7397W        W24921  11.327  10.583  11.601 -0.0890  0.0866  0.2480
 7398W        W24922   8.386   1.383  12.202  0.2302  0.2334  0.2416
 7399W        W24923   0.449  12.035   1.781  0.1058  0.2464  0.1966
 7400W        W24924   9.535  11.301   0.810 -0.0401  0.0305 -0.1480
 7401W        W24925  12.872   2.505  13.205 -0.1112  0.0190  0.1459
 7402W        W24926  16.267  13.914   1.002  0.1084 -0.1135 -0.2749
 7403W        W24927   9.660  17.960   3.656  0.0396 -0.0339 -0.2441
 7404W        W24928  17.373   2.978   2.272  0.2252 -0.2764  0.5178
 7405W        W24929   5.325   2.610  12.376  0.4014  0.1505 -0.1993
 7406W        W24930   3.689  16.395  13.819 -0.0086  0.4467  0.0905
 7407W        W24931  16.047  13.407   4.863  0.0932  0.0931  0.1250
 7408W        W24932   1.759  14.140   3.345 -0.1880  0.1921  0.4568
 7409W        W24933  13.038  14.064  13.229 -0.2256 -0.1937  0.1862
 7410W        W24934   1.479   2.949   3.134 -0.1013  0.0777 -0.3485
 7411W        W24935   9.389   5.205   0.596  0.0723  0.0517 -0.0157
 7412W        W24936   8.571   3.366   0.405  0.2921  0.2294  0.2454
 7413W        W24937   6.984  15.325  15.565  0.1064 -0.0784  0.2879
 7414W        W24938   1.686   5.424   0.945  0.0645 -0.1144 -0.2097
 7415W        W24939   5.078   1.707  13.519  0.0326  0.1812  0.4611
 7416W        W24940  12.623  16.683   2.550 -0.1559 -0.1066  0.1994
 7417W        W24941  12.524   8.028  15.837  0.0681 -0.1776 -0.0508
 7418W        W24942  17.126   1.732   5.761 -0.0576  0.1492  0.3785
 7419W        W24943  15.313   9.304   0.993 -0.0842  0.0202  0.0902
 7420W        W24944   2.515  17.241   1.874 -0.3879 -0.0603 -0.3583
 7421W        W24945  16.033  14.825  12.595 -0.1987 -0.1877 -0.1322
 7422W        W24946   9.178  10.195  11.943 -0.2844 -0.0332 -0.1104
 7423W        W24947  12.739  16.042   4.972 -0.3457  0.1951  0.2819
 7424W        W24948   9.314   2.292  15.251  0.3176  0.2386  0.1685
 7425W        W24949   8.644   6.013   0.028 -0.0017 -0.2670  0.0173
 7426W        W24950  14.425   7.870   2.681  0.0236  0.2405  0.3105
 7427W        W24951  17.829   5.577  12.983 -0.0951 -0.0436 -0.2554
 7428W        W24952   7.735   9.214   3.356  0.1109 -0.0077  0.1518
 7429W        W24953   7.642   6.937   0.445  0.1018  0.6582  0.1714
 7430W        W24954  13.437   1.898  13.837  0.1936 -0.0942 -0.1095
 7431W        W24955   5.526   0.555   3.767 -0.4303  0.1255  0.1640
 7432W        W24956   6.386   4.761  13.088  0.3448  0.0042 -0.0800
 7433W        W24957   9.281   8.629   3.135 -0.1235  0.2306  0.1384
 7434W        W24958   4.007   0.986  15.352 -0.0047 -0.2062 -0.2383
 7435W        W24959   8.846   3.526  14.035  0.0474 -0.0191  0.2700
 7436W        W24960  10.304   6.619  12.744 -0.0908 -0.0442  0.0993
 7437W        W24961  11.272   0.910   0.280 -0.2726  0.1788 -0.1940
 7438W        W24962   7.306   5.664   1.247  0.3753 -0.2530 -0.1749
 7439W        W24963  13.061   5.735  10.792  0.0491 -0.2272 -0.1968
 7440W        W24964   1.926   3.739   0.422 -0.0448 -0.2860  0.0836
 7441W        W24965   4.757  13.558   2.273  0.1485  0.2121  0.1285
 7442W        W24966  14.060   3.219   3.111  0.1763  0.0954 -0.0164
 7443W        W24967   7.211   0.119   1.601  0.1224 -0.0752 -0.0682
 7444W        W24968   5.532  16.283   3.543 -0.2543 -0.0378  0.2793
 7445W        W24969   2.981  14.945   4.099 -0.0987  0.1351  0.0120
 7446W        W24970   9.033   9.316   1.520  0.3301 -0.0896 -0.1927
 7447W        W24971   3.414  16.721   0.959 -0.2399  0.0675  0.1064
 7448W        W24972   4.504   2.763  11.151 -0.1875 -0.2645  0.2303
 7449W        W24973   1.998  14.966   1.813  0.1102 -0.2297 -0.0449
 7450W        W24974  13.963   6.755  10.395  0.0896  0.2307 -0.0722
 7451W        W24975  13.299  12.046   3.548  0.1460  0.1683  0.0435
 7452W        W24976   8.514   3.106  15.824 -0.0799 -0.0780  0.2823
 7453W        W24977  16.262   7.210   1.861 -0.1334 -0.0297 -0.2230
 7454W        W24978   5.901   9.976  13.150  0.2529  0.0295 -0.0373
 7455W        W24979  18.046   2.056  11.395 -0.1099 -0.3002  0.0530
 7456W        W24980   1.627  16.872  11.420  0.0789  0.0882 -0.2273
 7457W        W24981   4.415   9.137  14.572  0.1860 -0.1637 -0.0690
 7458W        W24982  10.434   1.390  12.930  0.3224  0.1895  0.4082
 7459W        W24983   2.919   2.224  10.822 -0.1839 -0.0429  0.1011
 7460W        W24984   4.524  13.055   2.356  0.1597  0.1704 -0.0797
 7461W        W24985  14.022   5.732  15.436  0.3106 -0.0410 -0.0899
 7462W        W24986  12.160  10.682   0.373 -0.1617  0.2153 -0.0637
 7463W        W24987  13.867  16.596   4.204  0.1812  0.3429 -0.1767
 7464W        W24988  16.325  11.054  12.619  0.1780 -0.2060 -0.0576
 7465W        W24989   1.269   7.705   0.796  0.0007 -0.1507 -0.0049
 7466W        W24990  11.479  10.287   3.863 -0.0139 -0.0717  0.2151
 7467W        W24991  16.563   9.347   2.232 -0.2027  0.0485 -0.1965
 7468W        W24992  18.322  15.387  14.109  0.1051  0.0895 -0.2422
 7469W        W24993  12.498  16.772  11.190 -0.1701  0.0672  0.2201
 7470W        W24994   0.544  15.300   0.060 -0.3142  0.0018 -0.0649
 7471W        W24995   8.868   9.022  12.521  0.4422 -0.1573 -0.2953
 7472W        W24996   5.178  16.320   3.149  0.4179 -0.3493  0.2523
 7473W        W24997  15.656   1.536   1.370 -0.0087  0.2300  0.0337
 7474W        W24998  15.285  17.580  12.476 -0.0049  0.2407  0.2247
 7475W        W24999   9.470  14.092   0.456 -0.1812 -0.0516  0.0668
 7476W        W25000   6.363  11.761   3.877 -0.1019 -0.3575 -0.1464
 7477W        W25001  10.872   6.132   3.576 -0.2963  0.0637 -0.1308
 7478W        W25002   8.576  16.635   3.107 -0.1555 -0.1716 -0.3513
 7479W        W25003  17.752  16.145  12.237  0.1436  0.1007 -0.0209
 7480W        W25004   2.777   4.671   3.260 -0.0223  0.2599  0.1531
 7481W        W25005  14.305   2.724   5.310 -0.0313  0.0088  0.0291
 7482W        W25006   3.109  13.353   4.475 -0.2960  0.0000  0.0887
 7483W        W25007  14.387  14.650  11.020  0.0523 -0.0283 -0.1720
 7484W        W25008   6.175  17.269   2.216  0.5430  0.0916  0.1849
 7485W        W25009   2.479   7.565  14.653 -0.3279  0.2962 -0.0882
 7486W        W25010  11.337   2.483  13.340 -0.0297  0.1277 -0.2906
 7487W        W25011  10.759  17.404   3.261 -0.1048 -0.1510  0.2797
 7488W        W25012   8.705  15.414   2.890 -0.1468 -0.0935 -0.1772
 7489W        W25013   9.084  10.180   4.346  0.2158 -0.0119 -0.2665
 7490W        W25014  11.161   8.323   4.816  0.3758 -0.0843 -0.2659
 7491W        W25015   3.783   7.551   1.259 -0.2282 -0.1637 -0.0143
 7492W        W25016  15.593   6.138   5.530 -0.1900 -0.0784  0.1718
 7493W        W25017  15.030  13.881   0.030  0.1028  0.1744  0.2419
 7494W        W25018   4.233   1.842   3.200  0.0258  0.1594  0.1305
 7495W        W25019   9.798   1.519   0.363  0.0397  0.1608 -0.0641
 7496W        W25020   1.788  14.303  13.689  0.0015 -0.0628  0.1228
 7497W        W25021  17.028  16.924   1.020  0.4464 -0.2608  0.2492
 7498W        W25022  17.786   7.594  12.060 -0.1037 -0.2315 -0.0878
 7499W        W25023   7.539   8.584  10.774 -0.1692 -0.0005 -0.0703
 7500W        W25024  10.550   1.008  13.488  0.0037 -0.2346 -0.0787
 7501W        W25025  13.499  13.835   5.898 -0.0029 -0.0916 -0.2315
 7502W        W25026  10.102   3.075  10.076  0.1462 -0.0437 -0.2433
 7503W        W25027  10.358  14.019   4.332 -0.3226  0.0188 -0.0598
 7504W        W25028  10.343  13.859  12.892 -0.1563 -0.0751  0.0834
 7505W        W25029  11.758  15.132  11.882 -0.1869  0.1213  0.1322
 7506W        W25030   8.202   8.170   2.258 -0.0648  0.1269 -0.0731
 7507W        W25031  17.686   9.102  10.940  0.1390 -0.0270  0.1541
 7508W        W25032  13.436   9.088   3.087 -0.0718  0.2758 -0.2697
 7509W        W25033  18.220   2.418  15.135 -0.1937 -0.1440  0.0364
 7510W        W25034  11.166  15.106  13.402 -0.3092 -0.1021 -0.0560
 7511W        W25035  12.857   9.525  11.189 -0.1036 -0.0549  0.1152
 7512W        W25036  17.125  13.685  14.897  0.4116 -0.0190 -0.1165
 7513W        W25037  14.406  14.688   3.017 -0.1951  0.2982  0.2993
 7514W        W25038  12.664   9.596   4.519  0.2232  0.2252  0.2062
 7515W        W25039   0.556  15.646  13.077  0.2572 -0.0380 -0.3222
 7516W        W25040   8.336  17.714   0.247 -0.2051  0.0367 -0.1464
 7517W        W25041   6.216   1.129   5.407 -0.0401  0.0668 -0.0773
 7518W        W25042  12.951  15.727   4.580  0.0499  0.1565  0.1144
 7519W        W25043  16.413  16.316   1.211 -0.0541  0.1194 -0.1481
 7520W        W25044  14.543   0.252  15.148  0.1074  0.0280  0.1464
 7521W        W25045   4.145  14.224   0.501  0.0023  0.0829 -0.0982
 7522W        W25046   1.282   5.912  11.487 -0.4375 -0.4825  0.2120
 7523W        W25047   6.912  17.953  13.401  0.1990 -0.4041 -0.1568
 7524W        W25048  10.194   4.024   1.836 -0.2181  0.0633 -0.1524
 7525W        W25049  14.980  12.227  15.696 -0.0070 -0.0869 -0.2166
 7526W        W25050   9.938  15.536   1.892  0.2273 -0.1087  0.0237
 7527W        W25051   6.805  14.898  15.759  0.2323  0.1792 -0.3918
 7528W        W25052   4.207  17.720   4.007  0.1225  0.1260 -0.0202
 7529W        W25053   6.755   2.110   1.592  0.0995 -0.0662 -0.0843
 7530W        W25054  15.428  12.893   3.778 -0.2744  0.0501  0.1238
 7531W        W25055   8.403  11.100  11.232  0.2091  0.1393 -0.1035
 7532W        W25056   7.294  16.122   1.347  0.3349 -0.4103 -0.1982
 7533W        W25057  10.052  13.387   1.471  0.2623  0.4537  0.1258
 7534W        W25058  11.339  13.631  13.091  0.1047 -0.1062 -0.1052
 7535W        W25059   4.079   1.622   1.714  0.0855  0.2243  0.1300
 7536W        W25060   9.335  14.036  11.728  0.0770 -0.0714  0.1643
 7537W        W25061  11.126   8.316  13.793 -0.1386 -0.2044  0.3082
 7538W        W25062   9.603   9.067   3.027 -0.0279 -0.0185 -0.2984
 7539W        W25063   4.632   7.491  13.788 -0.0861 -0.0642  0.2705
 7540W        W25064  12.661  11.662   3.094 -0.4243 -0.0584  0.2003
 7541W        W25065   6.522   2.490  14.747  0.2931  0.1211 -0.1964
 7542W        W25066   9.746  17.026   5.404  0.2151  0.0094 -0.0058
 7543W        W25067   1.575   7.239  14.516  0.0238 -0.0299  0.2415
 7544W        W25068  12.420   3.014   4.621  0.0371  0.1204 -0.0977
 7545W        W25069  10.921   9.077   3.771 -0.1321  0.2106  0.2929
 7546W        W25070   5.745   5.414   4.724  0.0002  0.4174  0.1265
 7547W        W25071   8.867   7.927  14.963  0.1384  0.2113 -0.1596
 7548W        W25072  11.673  10.347   3.410 -0.1405 -0.0973  0.4538
 7549W        W25073   2.892   0.480  13.116  0.0552 -0.0865 -0.0671
 7550W        W25074   9.172   0.225   2.206  0.0282  0.3837 -0.4715
 7551W        W25075   9.541   5.147   2.057 -0.2398 -0.0143 -0.1862
 7552W        W25076  15.947   0.855   2.969  0.2128 -0.2089  0.0305
 7553W        W25077   4.087   4.867   2.212  0.0713  0.2446  0.0795
 7554W        W25078   0.590   3.111   1.401  0.2806 -0.4480  0.1119
 7555W        W25079   2.838  11.367  14.802 -0.3467  0.1986 -0.1202
 7556W        W25080   7.475   9.208  12.797 -0.2814  0.0868 -0.2592
 7557W        W25081  10.985   8.856  12.241 -0.4691 -0.0817 -0.1472
 7558W        W25082  12.626   0.256   3.136 -0.3354 -0.1747 -0.2315
 7559W        W25083   8.018  16.332   4.643 -0.0189  0.0903  0.1908
 7560W        W25084  17.636   7.458   1.505  0.0700 -0.2307  0.0546
 7561W        W25085  10.070   4.525   3.277 -0.1327  0.1989  0.1948
 7562W        W25086   4.376   3.060   0.656 -0.5572 -0.2706  0.2106
 7563W        W25087   3.721  12.255   3.562  0.1182  0.1270  0.1087
 7564W        W25088  18.213  13.900   2.802 -0.1969 -0.0261  0.0909
 7565W        W25089   6.509   2.433  13.717  0.0702 -0.2547 -0.1246
 7566W        W25090   1.627   6.584  13.225  0.0529  0.2658 -0.2802
 7567W        W25091   6.211   8.211  15.022  0.4583  0.0236  0.3129
 7568W        W25092   7.308  17.851  13.104  0.0933 -0.1377 -0.3536
 7569W        W25093   0.309   3.980  13.087 -0.1161 -0.1745 -0.2504
 7570W        W25094  17.476   3.187   1.568 -0.2096 -0.0655 -0.0577
 7571W        W25095  10.594   2.611   2.356  0.2642  0.1713  0.0918
 7572W        W25096  15.756  10.130  12.089 -0.4141 -0.1598  0.1114
 7573W        W25097  16.695   3.237   0.513  0.3128 -0.0284 -0.0993
 7574W        W25098   1.041  14.689   0.373 -0.0081 -0.1896 -0.1921
 7575W        W25099   6.607   7.571  11.282 -0.0793 -0.1211 -0.1397
 7576W        W25100   0.374   6.883  13.753  0.0451  0.1739 -0.2337
 7577W        W25101   1.990   1.861   1.881 -0.3371 -0.0559  0.0250
 7578W        W25102   9.826   3.791   3.177 -0.1774 -0.2901  0.1920
 7579W        W25103   7.527  17.525  12.205 -0.0939 -0.0549 -0.1453
 7580W        W25104  14.040  17.606   1.889  0.0267 -0.0694  0.1002
 7581W        W25105   1.802   7.367   3.085  0.0823 -0.2669  0.3063
 7582W        W25106   0.551  12.866   1.247  0.0710  0.2175  0.0289
 7583W        W25107  11.351   9.672  14.888 -0.2586 -0.2082  0.1386
 7584W        W25108  16.521   6.794  11.673  0.0267 -0.0299  0.0560
 7585W        W25109   5.757  10.311   4.664 -0.2208 -0.4028 -0.2178
 7586W        W25110   9.734   1.753   4.801  0.2201 -0.3385  0.1423
 7587W        W25111  13.391  14.321   1.057  0.1526  0.1818 -0.2933
 7588W        W25112  13.552   9.770   1.626  0.2046  0.1322 -0.0020
 7589W        W25113   7.841  18.374   5.093 -0.3600 -0.1793  0.0956
 7590W        W25114   3.829   1.513  13.001 -0.0786 -0.0242  0.0415
 7591W        W25115   5.023  10.295   0.413 -0.0345  0.0062  0.3553
 7592W        W25116  12.100   4.275   2.197  0.0373  0.0854 -0.1714
 7593W        W25117  15.246  14.071   2.297 -0.0748  0.0227 -0.0623
 7594W        W25118   3.971   1.085  13.267  0.1830  0.0707  0.0642
 7595W        W25119  10.159  12.468   1.511  0.2172 -0.3291 -0.2033
 7596W        W25120   0.276   6.645   0.966 -0.0446 -0.1166  0.3363
 7597W        W25121   7.020   7.084   1.332 -0.0817 -0.0779 -0.1196
 7598W        W25122  11.148   1.005   4.011  0.0483  0.1220 -0.1324
 7599W        W25123  13.258   6.346  12.234 -0.1342 -0.3104 -0.0834
 7600W        W25124   0.579  16.277   2.279 -0.0790  0.1327 -0.1444
 7601W        W25125  16.084  15.511   4.395 -0.0712 -0.4633  0.0566
 7602W        W25126   3.583  14.994   4.328  0.0118  0.1987 -0.2012
 7603W        W25127  12.142  18.324  10.325  0.1654  0.2923  0.0207
 7604W        W25128   9.128  12.568  13.035  0.1625  0.1786  0.0290
 7605W        W25129  16.934   9.191  12.417  0.2260 -0.0358  0.2861
 7606W        W25130   8.654   9.434  11.794 -0.1893  0.2968 -0.1606
 7607W        W25131  17.257   9.268   2.282 -0.0906  0.0593 -0.3045
 7608W        W25132   0.303   2.627   4.297 -0.1174 -0.1024 -0.1877
 7609W        W25133   6.270   2.058  14.486  0.0154  0.0437  0.0313
 7610W        W25134  13.781  16.287  12.155 -0.3191  0.0071  0.1016
 7611W        W25135   5.987  14.469  13.876 -0.0229  0.1562 -0.3339
 7612W        W25136   3.066   2.574   4.503 -0.0671 -0.1889  0.3295
 7613W        W25137  13.576  15.525  11.597  0.2340  0.1842  0.3846
 7614W        W25138   5.585  12.173   0.649 -0.0380  0.0121 -0.0732
 7615W        W25139   7.282   5.621  14.824 -0.2745 -0.2007  0.1794
 7616W        W25140  17.073  12.045   1.030  0.0661 -0.0458  0.1145
 7617W        W25141   1.235   0.992   3.393 -0.1185  0.1113  0.1258
 7618W        W25142   2.331  13.232   2.546 -0.1725  0.1411 -0.4548
 7619W        W25143   2.837  17.147   1.496  0.4300 -0.0101 -0.0045
 7620W        W25144   2.547  17.645  14.242 -0.1229  0.2208 -0.0760
 7621W        W25145   7.254  18.017   1.502  0.1248  0.0541  0.1555
 7622W        W25146   4.346   2.436   1.915 -0.2156  0.1396 -0.1976
 7623W        W25147  10.134  15.396  11.989 -0.2095 -0.0236  0.0561
 7624W        W25148  12.792  12.872  11.796  0.1653 -0.2877 -0.0818
 7625W        W25149  16.606   3.440   3.938 -0.0970  0.2069  0.0557
 7626W        W25150  13.936  17.157   0.464  0.3027 -0.3009 -0.0441
 7627W        W25151   5.988   8.436  11.047  0.3939 -0.0214 -0.0361
 7628W        W25152   5.780  12.351  14.598  0.2386  0.2711  0.1575
 7629W        W25153  11.161  11.784   4.992  0.1640  0.0586 -0.2996
 7630W        W25154   9.752   8.740   3.389 -0.6001 -0.0291 -0.0107
 7631W        W25155   0.109  10.231   3.910 -0.0172 -0.0063  0.1733
 7632W        W25156   8.760  10.194  15.836 -0.1382 -0.0541  0.2867
 7633W        W25157  11.965  11.232   1.818  0.1095 -0.3553 -0.3615
 7634W        W25158   5.971   0.436   4.876 -0.2553  0.0083  0.3149
 7635W        W25159  17.797   2.108   1.412  0.1095  0.1208  0.0293
 7636W        W25160  18.174   8.401  14.137  0.0410  0.1464  0.0551
 7637W        W25161   3.934   7.663   3.773  0.2321 -0.4589  0.2452
 7638W        W25162   2.499  13.731   0.152 -0.1960 -0.0647  0.0552
 7639W        W25163   9.576  17.766   0.073  0.1338 -0.1242 -0.2267
 7640W        W25164  14.253  16.582  15.003  0.1310 -0.0753 -0.2274
 7641W        W25165   2.914   2.222  12.650 -0.0917  0.1212  0.2444
 7642W        W25166   4.044  10.530   4.500  0.2017 -0.0349 -0.0254
 7643W        W25167   8.734   8.183  12.658  0.3662 -0.0810 -0.1805
 7644W        W25168   2.578   1.784  13.466 -0.0297  0.1733 -0.2705
 7645W        W25169  10.431   6.317  13.089  0.2214  0.4704 -0.0016
 7646W        W25170   6.026  15.034  11.473 -0.0788  0.2498 -0.0685
 7647W        W25171   5.506  17.934  14.138 -0.0413  0.4732 -0.2889
 7648W        W25172  16.005  13.333  12.016  0.3016  0.1136  0.2202
 7649W        W25173   4.957  16.206   2.454 -0.0142  0.0068  0.1548
 7650W        W25174   2.875  13.517  15.783 -0.0434  0.2172  0.0702
 7651W        W25175  13.604   8.533   0.972  0.2976  0.2830 -0.1457
 7652W        W25176   3.560  14.359  11.048  0.3990  0.2280 -0.0858
 7653W        W25177   1.075   4.698  13.205 -0.0481  0.1900  0.3723
 7654W        W25178   4.219   9.158   4.681  0.0371 -0.1311 -0.0601
 7655W        W25179   4.183  10.832  15.417  0.3095 -0.1687 -0.0845
 7656W        W25180   4.252   2.274  14.040 -0.1640  0.2632  0.0017
 7657W        W25181   7.167   4.010  12.461 -0.0631  0.2599  0.2596
 7658W        W25182  17.662  16.176  15.773  0.1308 -0.0724 -0.0990
 7659W        W25183   3.524   4.307  15.145 -0.0282  0.0350 -0.2044
 7660W        W25184   2.668   9.014  15.115 -0.0165 -0.0213 -0.0358
 7661W        W25185   8.387   2.427  13.406  0.0423  0.0351 -0.1368
 7662W        W25186  17.361  12.127  12.340 -0.2117  0.2911  0.1252
 7663W        W25187  11.237  15.124   1.565  0.3412  0.1261  0.1508
 7664W        W25188  17.484  10.173   2.535 -0.1068 -0.2195  0.1186
 7665W        W25189  14.526   1.392   3.698 -0.3145  0.0594 -0.3137
 7666W        W25190   8.456  12.628  11.803  0.0413 -0.0072  0.1741
 7667W        W25191  16.254  17.249  15.196  0.0461  0.2172  0.2316
 7668W        W25192   8.936  15.948   3.624 -0.2675  0.0444 -0.2107
 7669W        W25193  11.050   6.093  13.685  0.0210 -0.0529  0.0476
 7670W        W25194   5.994   7.301  12.742 -0.3271  0.0682  0.0727
 7671W        W25195  10.741  17.224   1.750  0.0736  0.2144  0.3842
 7672W        W25196  16.293   6.501  12.083  0.0221 -0.0708 -0.0367
 7673W        W25197  15.571  14.169  12.391  0.3476  0.1230 -0.2567
 7674W        W25198   5.484  15.781   2.957 -0.2380  0.3397 -0.1668
 7675W        W25199   6.819  10.891  12.850 -0.1112 -0.0468  0.1629
 7676W        W25200   7.768   7.231  11.435  0.1421 -0.4098  0.2661
 7677W        W25201   1.548  13.968   2.803  0.2214  0.0418 -0.2047
 7678W        W25202  11.304   7.330   2.610  0.1283  0.1526 -0.0663
 7679W        W25203  13.310   8.137   0.968 -0.0368  0.0657  0.4029
 7680W        W25204  14.654   8.800   6.104 -0.3209  0.1188 -0.1066
 7681W        W25205   6.268  14.974   1.763 -0.0489 -0.3698  0.3120
 7682W        W25206   7.500   4.221   4.781 -0.0964 -0.0301 -0.2285
 7683W        W25207  14.392   3.061  15.679  0.1562 -0.1954  0.0462
 7684W        W25208   0.692   9.568   4.154  0.3000 -0.2452  0.1562
 7685W        W25209   0.537   2.069   0.615  0.1694 -0.0575 -0.2615
 7686W        W25210  16.075  10.684  12.356 -0.1899  0.1188 -0.1444
 7687W        W25211  10.787   4.995  14.936  0.0254  0.0344 -0.0966
 7688W        W25212  10.801   8.517   4.526 -0.2662  0.1545 -0.0137
 7689W        W25213  14.265  10.080  15.715 -0.0458  0.1753 -0.2075
 7690W        W25214   7.011   1.363   4.206 -0.0141  0.2383  0.0485
 7691W        W25215   7.316  11.949  14.285 -0.1575  0.1895  0.2309
 7692W        W25216  11.548   0.687   0.900  0.2665  0.1431 -0.2620
 7693W        W25217  16.525   8.213   2.834  0.2512 -0.0511 -0.4373
 7694W        W25218  16.439  13.671  14.929 -0.0340  0.1997 -0.2456
 7695W        W25219  16.503  15.180   3.405  0.5086  0.2715  0.2305
 7696W        W25220  10.861   5.247   1.591  0.1511 -0.2399 -0.2273
 7697W        W25221  17.180   9.424   4.638  0.4678  0.0239  0.1192
 7698W        W25222  10.911  10.255   1.218 -0.0700  0.1000 -0.4527
 7699W        W25223   2.007  18.178  11.307 -0.0867 -0.1372  0.0437
 7700W        W25224  13.310  14.940   3.452  0.0102  0.1518 -0.2720
 7701W        W25225   3.226  12.210   1.143 -0.2729  0.1371 -0.0652
 7702W        W25226   0.882   6.694  13.794 -0.1728  0.2446 -0.0986
 7703W        W25227  10.761  10.655   5.055  0.0778  0.0222 -0.3560
 7704W        W25228   3.963  11.625   2.794 -0.1331 -0.1243 -0.0935
 7705W        W25229  17.664  16.110   1.627  0.2549  0.0001 -0.0239
 7706W        W25230   4.915  13.866  11.885 -0.1650 -0.3407  0.2664
 7707W        W25231  15.175   5.900  13.543  0.3504  0.0445  0.1947
 7708W        W25232  16.535  17.286  11.681  0.1862 -0.1443 -0.0348
 7709W        W25233  10.970   4.726   0.941  0.2277 -0.0465 -0.0569
 7710W        W25234   9.399  11.368  14.304  0.2934  0.1080 -0.1906
 7711W        W25235   7.336   3.073  10.100 -0.1123  0.2190 -0.1043
 7712W        W25236   3.818   3.715   3.087  0.1764  0.1312  0.0675
 7713W        W25237  12.100  15.021  15.462 -0.0542 -0.0663  0.0813
 7714W        W25238  17.029   7.048   1.593  0.0931 -0.1814  0.0051
 7715W        W25239   2.741   0.389   4.660 -0.4454 -0.2625 -0.0704
 7716W        W25240   8.442   8.643  12.483 -0.0251  0.2569 -0.0934
 7717W        W25241  15.071   3.886  14.581  0.1611  0.0173 -0.1231
 7718W        W25242   3.095  11.191   1.264  0.1827 -0.2809  0.4133
 7719W        W25243  14.613  10.958  10.918  0.0011  0.1109  0.1247
 7720W        W25244   0.609  13.309  15.285 -0.0301  0.2245  0.1088
 7721W        W25245  11.222   4.240  11.735  0.3792  0.2572  0.0527
 7722W        W25246  10.877   1.883   1.932 -0.2922  0.2226  0.1169
 7723W        W25247  15.653   7.690   0.712 -0.0091  0.1301  0.0230
 7724W        W25248  16.354   5.539   2.963  0.1867 -0.1669  0.2219
 7725W        W25249   3.072   0.051  13.129 -0.3326  0.0100  0.0615
 7726W        W25250   5.692   9.032   2.251  0.3503  0.2216 -0.3777
 7727W        W25251  14.659  13.813   3.750 -0.1234 -0.0313 -0.0085
 7728W        W25252  12.433   6.928   3.557 -0.0367 -0.0563  0.1945
 7729W        W25253  16.770  13.730   0.653  0.5289  0.2298 -0.3419
 7730W        W25254   4.656  12.239  14.254 -0.3432  0.0727 -0.0228
 7731W        W25255  10.668   1.211   0.149 -0.1936  0.0064 -0.0193
 7732W        W25256  12.339   0.932  14.562  0.1384  0.2053  0.0862
 7733W        W25257  10.688   4.978   0.581  0.0837 -0.1550 -0.0833
 7734W        W25258  14.244  15.802   3.206  0.1075 -0.2452 -0.1390
 7735W        W25259  17.195  15.258   1.970 -0.2588 -0.0683 -0.0793
 7736W        W25260  18.243   2.691  10.011 -0.0442  0.0660 -0.1992
 7737W        W25261   7.057   0.344  14.704 -0.3961  0.1388  0.2659
 7738W        W25262   9.392  13.430  14.572  0.2297  0.0169  0.2781
 7739W        W25263  11.757   5.301   2.774 -0.1854 -0.2892 -0.2815
 7740W        W25264  11.595  15.941   2.169 -0.1037 -0.1452  0.1122
 7741W        W25265  13.349  11.200   2.338 -0.3012 -0.0648  0.3186
 7742W        W25266  10.469   1.457  15.583 -0.2540 -0.2725  0.2497
 7743W        W25267  17.436  15.177   3.026  0.0888  0.1749  0.2015
 7744W        W25268   5.477   3.787  11.246 -0.0189 -0.0111 -0.0642
 7745W        W25269   3.558   0.477   2.355  0.0364  0.3007  0.1845
 7746W        W25270  11.690  18.312   2.801 -0.1484  0.2052  0.3428
 7747W        W25271   4.433  10.134   4.320 -0.2894  0.3506 -0.2168
 7748W        W25272  11.155   5.679   5.281 -0.3123  0.0477  0.1496
 7749W        W25273  15.463   5.895   3.769 -0.0167  0.0255  0.1440
 7750W        W25274   7.948  14.583  12.082 -0.1378  0.1657 -0.2581
 7751W        W25275  11.726   7.106   1.093 -0.2018 -0.1570 -0.0576
 7752W        W25276   2.000   8.677  14.578  0.0505 -0.0223 -0.0166
 7753W        W25277  16.103   1.677  13.593  0.0436  0.1240  0.0660
 7754W        W25278  17.265   8.918   3.843  0.1234 -0.3632  0.2168
 7755W        W25279   5.506   4.240   4.492  0.1821 -0.0801 -0.1711
 7756W        W25280   4.116  16.880   3.511  0.0341  0.1423  0.0309
 7757W        W25281  10.130  17.304  15.711 -0.1803 -0.1794 -0.1276
 7758W        W25282   5.719  14.647  11.614  0.1043  0.1293  0.1576
 7759W        W25283   8.384   8.415   0.012  0.1892 -0.0922  0.1424
 7760W        W25284   1.429   3.736   0.518  0.0176  0.1450 -0.1745
 7761W        W25285  15.589   9.110   5.157 -0.2711 -0.1319 -0.1951
 7762W        W25286   5.041   1.647   4.877  0.3669 -0.1935  0.1617
 7763W        W25287  11.102  12.272  14.895 -0.1159 -0.0089  0.0134
 7764W        W25288  17.182   1.344  15.638 -0.0048 -0.1787  0.0993
 7765W        W25289  17.629   2.412   4.132  0.0066 -0.1141 -0.1411
 7766W        W25290   4.838  18.109  11.930  0.0830  0.1388 -0.1723
 7767W        W25291  13.215  14.226  14.480 -0.3814 -0.0097 -0.0665
 7768W        W25292   3.028   7.856  11.873  0.1959 -0.0737 -0.1925
 7769W        W25293  17.620  12.500  13.314  0.0717  0.2097  0.1398
 7770W        W25294  11.551  12.575   1.097  0.4903 -0.0266 -0.3087
 7771W        W25295   8.227   5.738   4.287  0.2420  0.4060 -0.1958
 7772W        W25296   7.107  11.138  13.763 -0.0833  0.0565  0.1297
 7773W        W25297   4.515   0.502   0.991  0.2013 -0.2368 -0.3443
 7774W        W25298  15.650   4.653   0.309 -0.2191  0.4759 -0.5445
 7775W        W25299  16.946  17.811  11.700 -0.1125  0.0494 -0.1324
 7776W        W25300  14.019  13.919  12.061  0.3290 -0.2112  0.2726
 7777W        W25301   6.121   5.887   0.020 -0.2317  0.0207  0.2578
 7778W        W25302  14.870  12.042   1.208  0.1550  0.4150  0.1368
 7779W        W25303  11.083   9.145   0.526 -0.1230  0.0754 -0.0980
 7780W        W25304  10.344  15.440  13.717 -0.2342  0.1131  0.3780
 7781W        W25305  15.290  14.804   4.025 -0.2995 -0.0879 -0.0575
 7782W        W25306   9.621  15.178   1.815 -0.3063  0.2417  0.0082
 7783W        W25307  10.593   0.639  12.491  0.2710  0.0784  0.1210
 7784W        W25308   4.495  14.292  13.230 -0.0280 -0.2914 -0.0918
 7785W        W25309   4.885   7.597   1.510 -0.1579  0.0733  0.2336
 7786W        W25310   6.646  17.089  15.350  0.1616  0.0259  0.2637
 7787W        W25311   4.651  14.733  10.840  0.1039  0.0797 -0.1415
 7788W        W25312  14.714  16.900   5.524  0.1830 -0.2904  0.2561
 7789W        W25313   4.822   1.639  12.688 -0.1052  0.2202 -0.0727
 7790W        W25314   1.797   0.722   4.281  0.2217 -0.3206  0.0433
 7791W        W25315  12.437  14.782   3.714 -0.2204  0.0533  0.2327
 7792W        W25316   6.666   3.800  11.726  0.0475  0.1190  0.0447
 7793W        W25317  12.867   1.978   3.453  0.0427  0.0035 -0.2114
 7794W        W25318  15.571  12.202  13.887 -0.1239 -0.0921  0.2831
 7795W        W25319   7.697   6.574  12.215 -0.0954 -0.2616 -0.5121
 7796W        W25320  17.995  15.611  13.703 -0.1340 -0.1107  0.2780
 7797W        W25321   7.579   7.543   1.039  0.1686  0.0636  0.0854
 7798W        W25322   2.669   8.608   4.094 -0.0191 -0.0209 -0.2312
 7799W        W25323  15.916   0.426  15.619  0.1554  0.4492 -0.1073
 7800W        W25324   1.785  10.212  14.730 -0.2336 -0.3292  0.1547
 7801W        W25325   7.598  15.667  12.270  0.0630 -0.0465  0.0734
 7802W        W25326   5.770   9.950   2.678 -0.0197  0.0952  0.2563
 7803W        W25327  13.913  11.976   4.404  0.1720  0.1018 -0.1945
 7804W        W25328   3.719   8.712   3.645  0.0818  0.4113 -0.1536
 7805W        W25329   3.062  13.656  12.089  0.0791 -0.0610 -0.3039
 7806W        W25330   3.247  17.353  15.461  0.0820  0.0530 -0.1334
 7807W        W25331  11.418  16.490   0.845 -0.0848 -0.1397  0.0758
 7808W        W25332  14.251  15.774   1.293  0.0774  0.1117 -0.1331
 7809W        W25333   7.940  13.743   4.721  0.4267 -0.2462 -0.0460
 7810W        W25334  12.191   8.070  15.309 -0.0771  0.0768 -0.1383
 7811W        W25335   5.637   6.659   3.269 -0.0794  0.1151 -0.4225
 7812W        W25336  10.057  13.697   4.170 -0.0724 -0.0810  0.0876
 7813W        W25337  16.513   6.881  13.341 -0.1855  0.1664 -0.2048
 7814W        W25338  16.728  16.426  14.266  0.0145 -0.0942  0.0695
 7815W        W25339   1.182   4.889   0.180  0.1067  0.2045  0.0209
 7816W        W25340  12.900   3.824  11.431 -0.0125 -0.2531 -0.0783
 7817W        W25341   4.241   3.821  14.059  0.1943 -0.0462  0.0949
 7818W        W25342   0.572   0.587   3.514 -0.2923 -0.0108 -0.0995
 7819W        W25343   9.442   0.720   1.892  0.1091 -0.0512 -0.0937
 7820W        W25344  16.950  17.706  15.704  0.0818 -0.1219 -0.1869
 7821W        W25345   1.038   5.301  13.375 -0.1783  0.0805  0.2333
 7822W        W25346  16.663   1.642  10.158 -0.2135 -0.1746  0.0220
 7823W        W25347   6.287  11.081  12.580 -0.0240  0.0499 -0.0554
 7824W        W25348  14.470   2.639  14.437 -0.2505 -0.0647 -0.1300
 7825W        W25349   9.563  12.258   0.420  0.0188 -0.0992  0.1684
 7826W        W25350   5.867  15.789   3.331 -0.0504  0.2498  0.1806
 7827W        W25351  18.230   9.795   4.025  0.0936 -0.0419  0.2102
 7828W        W25352  12.236   1.659  11.697  0.1282 -0.1228  0.0603
 7829W        W25353   9.542  13.537  15.484  0.1150 -0.1779 -0.1924
 7830W        W25354  11.782   0.963  12.362 -0.0301  0.0142 -0.1845
 7831W        W25355  17.325   0.322  11.076 -0.2174 -0.1841 -0.1606
 7832W        W25356   9.991   0.196   3.978 -0.0694 -0.1060  0.0336
 7833W        W25357   8.309   3.075   4.312 -0.0614 -0.1924  0.0245
 7834W        W25358   2.014  14.846   0.572  0.1413 -0.0018 -0.1505
 7835W        W25359   9.474  10.403  13.734  0.1277  0.1021  0.1094
 7836W        W25360  13.497   9.416  10.894 -0.0491  0.0854  0.3138
 7837W        W25361  13.619   0.821   3.968  0.0509  0.0773  0.4585
 7838W        W25362   2.637   0.759   2.249 -0.2785  0.2119  0.3147
 7839W        W25363   9.188  10.190  10.451  0.1781 -0.0258 -0.0734
 7840W        W25364  13.730   0.131   3.136 -0.0220  0.2111  0.0459
 7841W        W25365   9.198  13.404   5.527 -0.3038  0.0037 -0.3057
 7842W        W25366  11.720   5.180  14.634  0.0132 -0.3375  0.1514
 7843W        W25367   2.332  15.449  14.221 -0.1951 -0.3077 -0.1442
 7844W        W25368   1.120  15.308   4.199  0.0824  0.2308 -0.2473
 7845W        W25369   9.861   8.991  10.031 -0.0706  0.0867  0.0315
 7846W        W25370   4.867  14.082   3.741  0.2092 -0.1164 -0.2165
 7847W        W25371   8.234   0.397  14.111 -0.0450 -0.2106 -0.1046
 7848W        W25372   3.470   2.191  13.529  0.1304  0.1931 -0.1469
 7849W        W25373  10.003   6.066  11.144  0.3204 -0.2253 -0.0030
 7850W        W25374   0.090  11.086   2.051 -0.3717  0.1555  0.1344
 7851W        W25375   2.239   2.062   1.445  0.0273  0.1631  0.1454
 7852W        W25376  11.284   5.436   2.744  0.0726 -0.1038 -0.0467
 7853W        W25377   2.373   0.218   0.419  0.0523 -0.0400 -0.1170
 7854W        W25378   0.242   6.359   2.776  0.4440  0.0419  0.1900
 7855W        W25379  13.955  15.668  12.508 -0.1568 -0.0743 -0.0795
 7856W        W25380  10.325   9.514   5.675 -0.0321  0.1924  0.0070
 7857W        W25381  12.383   9.675   5.319 -0.1624 -0.3643  0.2189
 7858W        W25382  11.036   0.505   3.965  0.1477  0.0663  0.2133
 7859W        W25383   1.460   4.705  13.959  0.0504 -0.0944 -0.0108
 7860W        W25384  12.554  16.112   3.331 -0.1618 -0.0388  0.1384
 7861W        W25385   6.484   1.165  13.063 -0.1993  0.0364  0.2558
 7862W        W25386  14.871   2.147   4.774 -0.3129  0.2261 -0.1014
 7863W        W25387  14.726  13.981  15.518  0.0105 -0.3618  0.1528
 7864W        W25388  13.067   0.870   1.906  0.3193 -0.0871 -0.0897
 7865W        W25389   8.965  14.277  14.591 -0.1499 -0.6632  0.1906
 7866W        W25390   9.111   9.664   1.874  0.1110 -0.0818 -0.0879
 7867W        W25391   5.750   5.553   0.485 -0.0469  0.1396 -0.2089
 7868W        W25392   5.227  12.063   0.272  0.0354 -0.0865 -0.0707
 7869W        W25393   8.502   8.250   3.824  0.0489  0.0612 -0.1528
 7870W        W25394   4.535  17.951  11.173  0.0381 -0.2400 -0.0835
 7871W        W25395   3.192  11.952   0.169 -0.0842 -0.4867 -0.0551
 7872W        W25396  12.208   0.111   3.760 -0.0005 -0.0139 -0.2220
 7873W        W25397   4.840   5.291  14.095  0.1974 -0.1062 -0.2342
 7874W        W25398  17.237   3.972  12.970 -0.1513 -0.0707 -0.3924
 7875W        W25399   3.554  16.902  14.774 -0.3567  0.1036 -0.1919
 7876W        W25400  18.414   6.838   4.658 -0.0447 -0.0940  0.0252
 7877W        W25401  13.201   8.860   0.113 -0.2703  0.0400 -0.1079
 7878W        W25402   6.915   2.300   4.699 -0.1180 -0.2099  0.3645
 7879W        W25403   5.238  14.683   1.309 -0.1261  0.3249  0.3737
 7880W        W25404  17.489   2.721  13.152 -0.0525 -0.0981  0.3197
 7881W        W25405   5.554  16.695  12.681  0.1256  0.1054  0.2896
 7882W        W25406  10.696  16.692   1.651 -0.0142 -0.1442 -0.0796
 7883W        W25407   0.262   8.886   1.116  0.0705  0.0099  0.2369
 7884W        W25408   5.270   8.516   5.822  0.0561  0.0022 -0.2977
 7885W        W25409   0.204   7.565   0.972 -0.0733 -0.2107  0.0214
 7886W        W25410   5.343  13.593  11.624  0.3723  0.1447  0.2091
 7887W        W25411   9.929  14.461  10.804  0.0128 -0.1898 -0.0940
 7888W        W25412  10.243   3.585   4.080 -0.2180  0.0471 -0.2335
 7889W        W25413  17.456   7.283   0.317  0.0348  0.0786 -0.0261
 7890W        W25414  17.393  12.691  15.341  0.0003 -0.1945 -0.0385
 7891W        W25415  11.787  12.583   3.967 -0.0024  0.2399  0.0313
 7892W        W25416   2.739  17.642   1.153 -0.2332 -0.0852  0.1243
 7893W        W25417   7.942   1.608  11.470 -0.1647  0.3782 -0.1198
 7894W        W25418   8.678   1.762   4.680 -0.2096  0.2461 -0.1803
 7895W        W25419   4.684   8.662  15.504 -0.0375 -0.1928  0.0568
 7896W        W25420  15.661   8.557  13.630 -0.1545  0.2190  0.1298
 7897W        W25421   3.814  15.874   3.427  0.2104  0.2700  0.1667
 7898W        W25422  10.911  14.282  11.622  0.1572  0.2970 -0.2739
 7899W        W25423  16.194   9.679   3.095  0.1192  0.3580  0.2162
 7900W        W25424   8.869   0.941  15.159 -0.0407 -0.0809  0.2041
 7901W        W25425  13.080   8.743   2.769 -0.0804 -0.2826 -0.0250
 7902W        W25426   6.658   4.789  11.640  0.0198  0.3501 -0.0323
 7903W        W25427  15.155  14.964  14.259  0.2244 -0.5113  0.0022
 7904W        W25428  10.187   8.296   0.425 -0.0355  0.1507  0.0157
 7905W        W25429   7.555   9.415   2.839  0.2407 -0.0573 -0.0877
 7906W        W25430   1.051   5.034   1.278 -0.0039  0.1004 -0.1610
 7907W        W25431   8.106   5.852  12.318 -0.2129 -0.0272  0.0430
 7908W        W25432   3.005  17.613  13.579 -0.1416 -0.0756  0.2437
 7909W        W25433   3.171  16.510  14.927  0.3411 -0.0114  0.2211
 7910W        W25434  14.735  11.352   1.836  0.1184 -0.1390 -0.1977
 7911W        W25435   6.246   2.848   3.250 -0.0274  0.1486 -0.3699
 7912W        W25436  16.848   3.316   0.984  0.1961  0.0127  0.2167
 7913W        W25437  16.427   3.756  15.486 -0.1051 -0.1600  0.0947
 7914W        W25438  12.652  15.399  14.818  0.2115  0.0118 -0.2564
 7915W        W25439  17.168  11.659  13.178  0.0704 -0.2083 -0.2092
 7916W        W25440   5.925   0.293   3.992 -0.2271 -0.1716  0.0079
 7917W        W25441   4.259  17.779  13.140 -0.1312 -0.4860  0.0609
 7918W        W25442  10.489  17.958  12.968 -0.4805  0.2462  0.3015
 7919W        W25443   2.892   3.267  10.714  0.4722 -0.0319  0.1815
 7920W        W25444   9.462  15.041  11.501 -0.0319 -0.1503  0.0971
 7921W        W25445   0.565   8.585   1.891  0.1486 -0.0420  0.0834
 7922W        W25446   6.128   7.990  13.422  0.4456  0.0928 -0.0598
 7923W        W25447  13.288   0.685  11.548  0.1496 -0.3070  0.2287
 7924W        W25448   7.772   0.829  15.312  0.1539  0.2567 -0.0772
 7925W        W25449  11.406  16.411  12.216  0.0134  0.1079  0.1734
 7926W        W25450  16.094  14.868   0.783 -0.2232 -0.4397 -0.0234
 7927W        W25451   1.737  16.565  13.952 -0.0618 -0.1980 -0.1979
 7928W        W25452  15.502  17.625   1.167  0.1771 -0.3608 -0.2688
 7929W        W25453  16.262   4.020   3.273  0.1090  0.2493  0.0821
 7930W        W25454   0.841  14.419   4.195  0.2512 -0.1876 -0.0171
 7931W        W25455  10.325   6.105   3.745 -0.0935 -0.0702  0.0057
 7932W        W25456  12.991  17.327   0.480 -0.1270  0.1899 -0.1409
 7933W        W25457   3.623  14.645  15.154  0.1064  0.1612 -0.0400
 7934W        W25458   0.085   6.496  13.543 -0.0666 -0.1701  0.3864
 7935W        W25459   1.545  14.748  14.226  0.0563 -0.0365 -0.3231
 7936W        W25460   6.196   9.378   2.757 -0.0350  0.0371 -0.1063
 7937W        W25461  15.804   5.412   0.988  0.0610  0.2962 -0.1033
 7938W        W25462   6.780   9.096  13.799  0.0703 -0.2735 -0.0647
 7939W        W25463  17.030  10.738  15.504  0.0445  0.1415 -0.0915
 7940W        W25464  18.320  17.136  10.718 -0.0172  0.1492 -0.0008
 7941W        W25465  17.052  16.085   1.630 -0.2453  0.1338  0.0648
 7942W        W25466  18.144  13.563  15.370  0.1732  0.0915  0.3192
 7943W        W25467  12.235  16.971   3.719 -0.1237  0.0640 -0.0582
 7944W        W25468   8.599   3.995  11.062  0.0341  0.0456 -0.0096
 7945W        W25469  12.935  10.107  15.507  0.2448 -0.0124  0.1607
 7946W        W25470  17.707  11.259   1.946 -0.0381  0.1107  0.2946
 7947W        W25471  12.707   3.242   0.344 -0.0794 -0.0496  0.2215
 7948W        W25472   3.149   8.537   1.971 -0.2897 -0.3038  0.2229
 7949W        W25473  12.419  14.268  15.543  0.1683  0.1893 -0.0692
 7950W        W25474  15.895   6.093  13.302 -0.1711  0.2000  0.0750
 7951W        W25475  10.037   8.114  11.267 -0.4290 -0.0024 -0.3206
 7952W        W25476   3.683   0.996  12.912  0.1833 -0.0682  0.2796
 7953W        W25477   3.831  17.850   9.945  0.1801  0.3286  0.0476
 7954W        W25478  11.909   3.642  12.141  0.1129  0.0850  0.3883
 7955W        W25479   2.781  15.386  12.108  0.2713  0.2677  0.2518
 7956W        W25480   8.238   7.477  12.773 -0.1645 -0.2642 -0.0898
 7957W        W25481  11.446  12.594  13.164 -0.1186 -0.2759  0.0096
 7958W        W25482   1.645  17.772   1.180 -0.0561 -0.3292 -0.0730
 7959W        W25483  13.902   8.172   4.963 -0.0717  0.1549  0.4211
 7960W        W25484   3.675  15.718  13.444  0.0284  0.1795 -0.0020
 7961W        W25485  17.553   1.359   2.673 -0.1508 -0.0378  0.0617
 7962W        W25486  17.946   7.080   1.293 -0.0123  0.3425 -0.3780
 7963W        W25487  14.388   0.666   2.533 -0.1804  0.1225 -0.1872
 7964W        W25488  14.422   2.078  12.145  0.0874 -0.1044 -0.0237
 7965W        W25489   5.443   1.043  11.585  0.1379  0.0897 -0.2827
 7966W        W25490  11.441   3.867   0.832  0.0774 -0.4468  0.3052
 7967W        W25491  12.608  16.686   5.352  0.0455 -0.0009  0.0645
 7968W        W25492   2.722  15.632  14.577  0.0295 -0.4743  0.0072
 7969W        W25493   5.709   2.428  11.418 -0.2090 -0.1302  0.0623
 7970W        W25494  11.019  14.089  14.359 -0.1710  0.1370  0.0346
 7971W        W25495   1.205  17.738  11.769 -0.1648 -0.0597  0.0452
 7972W        W25496   1.607   2.316  13.763  0.2806 -0.1094  0.0347
 7973W        W25497   4.973   4.482  11.210 -0.2081  0.1021  0.1093
 7974W        W25498   6.564   0.147   2.380 -0.1647 -0.0720  0.4175
 7975W        W25499   5.040  13.066   3.968 -0.2585 -0.2554 -0.2549
 7976W        W25500   7.142   7.531   1.819  0.3049  0.1398 -0.1048
 7977W        W25501   0.961  16.919  13.930 -0.0684  0.0397  0.1570
 7978W        W25502  17.511  17.752  11.654  0.0136  0.1275 -0.1040
 7979W        W25503  14.390   7.564   4.413  0.2513 -0.2264 -0.0165
 7980W        W25504   8.320   1.844  12.308 -0.0600  0.1198  0.1958
 7981W        W25505  11.564  12.258   0.330  0.2428 -0.1429 -0.0474
 7982W        W25506   6.678  18.370  12.692  0.0273  0.1754  0.3702
 7983W        W25507  12.414   7.943   2.998 -0.0237 -0.1040  0.1489
 7984W        W25508   1.464   3.266  14.165 -0.0251 -0.2549  0.1525
 7985W        W25509   0.504   8.580   5.671  0.3710 -0.3011 -0.1139
 7986W        W25510   1.451  10.696  13.698 -0.1064 -0.1099  0.1205
 7987W        W25511   9.594   8.710  13.864  0.2044 -0.0677 -0.0683
 7988W        W25512  13.887  12.680   2.311 -0.0018  0.2461  0.0610
 7989W        W25513   8.841  15.493   2.038 -0.0400 -0.2833 -0.1442
 7990W        W25514  12.986  16.750  14.245  0.1238  0.5516  0.0401
 7991W        W25515   6.305  11.680   3.216  0.1060  0.1102  0.0719
 7992W        W25516  17.851   0.725  12.498 -0.1423 -0.1910  0.2962
 7993W        W25517  11.093   4.116  12.556  0.2143 -0.1490  0.1562
 7994W        W25518  15.790   8.526  14.671  0.0265  0.1201  0.0862
 7995W        W25519   8.148  14.713  13.590  0.2373  0.0197 -0.1958
 7996W        W25520  10.815   1.771  14.818  0.2852 -0.0528  0.1541
 7997W        W25521  17.593   6.395   3.479  0.1368 -0.1754  0.1249
 7998W        W25522  10.900   3.895   1.007  0.0705  0.0266  0.0303
 7999W        W25523   9.100  12.062  12.942  0.2043  0.2541 -0.0015
 8000W        W25524  13.984  13.713   3.373 -0.2049  0.4401 -0.1728
 8001W        W25525   1.910  11.427  15.009  0.1440  0.0494  0.0935
 8002W        W25526  14.679  16.952   0.134  0.2118  0.0024  0.0221
 8003W        W25527   7.604  13.505   3.880 -0.2992  0.3065 -0.1044
 8004W        W25528   5.823   9.444   0.040 -0.4182  0.1367  0.0628
 8005W        W25529   9.219  13.235   4.536 -0.3697 -0.0750 -0.2774
 8006W        W25530   4.754   3.395  11.538  0.2097 -0.0596 -0.0590
 8007W        W25531   0.897   8.682  11.457  0.2063 -0.0235  0.3254
 8008W        W25532   8.714  10.209   3.192 -0.2963  0.0230  0.2308
 8009W        W25533   8.603  12.037   4.253  0.2544 -0.0615  0.2205
 8010W        W25534  13.559  11.039   1.382 -0.1227  0.2304 -0.1648
 8011W        W25535   3.982   2.817  11.320  0.0424  0.0081 -0.1085
 8012W        W25536  17.266  15.117  15.603  0.0744  0.1210  0.2409
 8013W        W25537  10.118  13.851  12.416  0.0147 -0.4994  0.0934
 8014W        W25538  18.220   5.212   0.145 -0.3633 -0.2343 -0.0112
 8015W        W25539   1.836   1.687  14.500 -0.0840 -0.1210  0.0119
 8016W        W25540   5.106   6.066   1.701  0.0940  0.0927  0.1336
 8017W        W25541   7.002  10.029   4.970  0.1577  0.2510  0.1982
 8018W        W25542   1.866   8.364  12.737 -0.0426  0.2148  0.0078
 8019W        W25543   5.876  14.874   1.350 -0.2003  0.1255  0.3206
 8020W        W25544   0.454  14.221   3.990 -0.2066 -0.0114 -0.2080
 8021W        W25545   5.595  14.144  13.626 -0.1375 -0.2844  0.2521
 8022W        W25546   7.590  17.946   0.210 -0.2979  0.1640 -0.0355
 8023W        W25547   8.978   9.784  15.477 -0.3650  0.0768  0.1951
 8024W        W25548  16.188   7.226  11.869 -0.0639 -0.2139  0.0864
 8025W        W25549   0.579  11.150   1.835  0.1957  0.0709 -0.1750
 8026W        W25550   9.144   4.833   0.811 -0.4360  0.2968  0.0546
 8027W        W25551   9.820   5.567   2.881  0.0276 -0.5923  0.0089
 8028W        W25552   4.904   5.994  11.361  0.0618 -0.1006 -0.1195
 8029W        W25553   3.553   4.209   2.623 -0.3159  0.2965  0.1227
 8030W        W25554  14.019  12.405   0.985  0.1186  0.0569 -0.1342
 8031W        W25555   6.741  11.817   3.470  0.0824 -0.0596  0.0544
 8032W        W25556  12.623  18.319  13.997 -0.1850  0.0312 -0.0774
 8033W        W25557  15.859   7.947  13.983  0.2350 -0.0006  0.1147
 8034W        W25558   7.964   8.754  12.968 -0.2891 -0.2857  0.3692
 8035W        W25559  11.661  16.297   6.404 -0.2549  0.3413 -0.0949
 8036W        W25560   4.443   6.579  14.722  0.0186 -0.1409 -0.0475
 8037W        W25561   3.075   7.607   3.950  0.1381 -0.0344 -0.3076
 8038W        W25562   1.563  14.569   0.373  0.0882 -0.2153  0.1630
 8039W        W25563   9.448   9.518  14.697  0.1058  0.0669 -0.0972
 8040W        W25564   4.758  17.718   3.872 -0.3491 -0.1967  0.0186
 8041W        W25565   2.071   2.946  13.675 -0.0685  0.0919  0.0132
 8042W        W25566   6.357  10.111  13.061  0.5487 -0.2819 -0.3195
 8043W        W25567  17.155  17.688  11.226 -0.0696 -0.3515 -0.2060
 8044W        W25568  11.657  14.268  13.547  0.1514  0.1461 -0.2465
 8045W        W25569   7.515  12.598   3.493  0.0527  0.0091  0.0249
 8046W        W25570   7.649   1.032  15.740  0.0577 -0.0365  0.0415
 8047W        W25571  16.792   6.954  11.184 -0.0389 -0.0906 -0.0581
 8048W        W25572   5.608   6.091   4.582  0.3459 -0.0334  0.0060
 8049W        W25573   5.089  17.779  12.361  0.1746 -0.0003 -0.0896
 8050W        W25574  18.403   9.643  10.994 -0.1678 -0.1440 -0.4917
 8051W        W25575   2.423   2.014  15.127  0.0194  0.0190 -0.0121
 8052W        W25576  16.725  17.588  11.284 -0.0123  0.0607 -0.3086
 8053W        W25577   0.964   9.416   3.139  0.2504 -0.2921 -0.5112
 8054W        W25578  10.177   8.661   1.147  0.3758  0.1106  0.1617
 8055W        W25579   6.611   6.312  12.272  0.0514  0.0397  0.1980
 8056W        W25580   2.933  10.597   3.849 -0.2281 -0.0678  0.2565
 8057W        W25581  15.320   6.116   2.900  0.2450 -0.0529  0.1180
 8058W        W25582   9.798  15.417  13.295 -0.2152  0.0718 -0.2804
 8059W        W25583  14.542  14.054  12.160 -0.1321 -0.1587  0.2519
 8060W        W25584  12.154  16.689   0.650  0.1273  0.2836 -0.1200
 8061W        W25585  12.907   7.928  10.950 -0.0288  0.2563 -0.1382
 8062W        W25586  18.085  12.244  15.485 -0.2712  0.4117 -0.0968
 8063W        W25587   8.055   2.671   1.867  0.2404  0.0158  0.0816
 8064W        W25588   5.997   3.314   1.871 -0.1533 -0.2816  0.1112
 8065W        W25589  12.851   0.365   0.347 -0.1353  0.0836  0.1178
 8066W        W25590   9.994  10.113  13.906  0.1340 -0.0549  0.2223
 8067W        W25591   2.978  12.335  12.472  0.0278  0.0902  0.2325
 8068W        W25592  15.129   1.424  14.940 -0.2363 -0.0862  0.0930
 8069W        W25593  16.288   1.141  11.826 -0.2811  0.0278  0.0151
 8070W        W25594  17.830   3.615  11.758 -0.0189  0.0003 -0.3238
 8071W        W25595   5.619  12.251  13.948  0.0896  0.3009  0.0239
 8072W        W25596   0.238   9.502   1.941  0.4857  0.3719 -0.2814
 8073W        W25597   0.061  11.314   1.026 -0.6011  0.0122 -0.0078
 8074W        W25598   8.493  15.645  15.528  0.0649 -0.0032 -0.1730
 8075W        W25599  16.207  13.784  12.077  0.2449 -0.0265  0.3752
 8076W        W25600   4.183   6.338  15.127 -0.1568 -0.1022  0.0305
 8077W        W25601   6.599  11.666  12.957 -0.1108  0.1266  0.0377
 8078W        W25602  16.114  16.410   2.771  0.2973 -0.1661  0.1699
 8079W        W25603   3.564   3.074  14.516  0.0336 -0.2370  0.1045
 8080W        W25604   2.192  14.385  13.273 -0.1843 -0.0916  0.1202
 8081W        W25605  11.632   6.956  11.256  0.0935 -0.0884  0.0343
 8082W        W25606   9.626  13.733  11.382 -0.0639 -0.2629  0.0752
 8083W        W25607   4.815   5.657   1.510 -0.1807 -0.2152 -0.0149
 8084W        W25608  13.360   6.941   2.155 -0.0293 -0.0740  0.0233
 8085W        W25609   1.688   7.847  14.142  0.0299  0.0319 -0.0157
 8086W        W25610   3.963  18.110   5.182 -0.2138  0.1280 -0.1340
 8087W        W25611   7.167  17.539   3.809 -0.0886  0.3283 -0.0239
 8088W        W25612  13.869  13.662  15.649  0.3159 -0.0933 -0.3425
 8089W        W25613   7.706   4.791  14.267  0.0993 -0.0030 -0.1221
 8090W        W25614   4.184   7.227  11.901 -0.0124 -0.1653 -0.0703
 8091W        W25615   8.858  10.641   1.322 -0.0844 -0.1919  0.1406
 8092W        W25616   5.995   2.341  13.586  0.0268  0.3497  0.0403
 8093W        W25617  12.376   2.613  13.592 -0.1947 -0.0638  0.2715
 8094W        W25618  13.334   1.281   5.988  0.3551 -0.0120 -0.1777
 8095W        W25619  18.013  12.863   3.230  0.4449  0.1338  0.0508
 8096W        W25620   6.640   7.295   4.773  0.0786  0.4887  0.2663
 8097W        W25621   0.982  14.947   4.598  0.0263  0.0588  0.1597
 8098W        W25622   7.569   4.107   1.088 -0.0588 -0.3753 -0.0493
 8099W        W25623   3.463  11.757   2.149 -0.1462  0.0715  0.0193
 8100W        W25624   3.476  15.825  10.781 -0.0361 -0.1662 -0.0597
 8101W        W25625  15.030   7.622   3.395  0.1939 -0.1867  0.0642
 8102W        W25626   5.068   0.406  11.667  0.2732  0.0612 -0.0592
 8103W        W25627  15.726   2.581  14.714 -0.3373 -0.3743 -0.0996
 8104W        W25628   6.936  14.002   0.098  0.0058  0.1950  0.0108
 8105W        W25629  10.301   5.010   4.630  0.1324 -0.1701 -0.1076
 8106W        W25630   3.966   5.682   3.726 -0.0702 -0.1994 -0.1750
 8107W        W25631  13.628  13.047   4.611 -0.2853  0.2753  0.1065
 8108W        W25632   4.134  17.844  15.101  0.0585  0.0018 -0.1265
 8109W        W25633   5.498  13.756   0.436  0.0656  0.0377  0.0430
 8110W        W25634  11.554   8.777   1.046 -0.3067 -0.2234  0.0204
 8111W        W25635   1.287  16.064  15.380  0.0719 -0.0231 -0.2163
 8112W        W25636   0.037   4.405   4.215  0.2631 -0.0602 -0.1129
 8113W        W25637   0.626   3.349  15.365 -0.3562 -0.2664 -0.3118
 8114W        W25638  15.694   4.199  11.684  0.2642 -0.3792  0.0009
 8115W        W25639   1.433   4.217  14.117  0.3597 -0.2144 -0.2074
 8116W        W25640  14.883  12.852  15.813  0.4985  0.1927 -0.1597
 8117W        W25641   5.541   4.272   5.637  0.0946  0.0885  0.0498
 8118W        W25642   0.009   9.866   3.527  0.1244 -0.3173 -0.0064
 8119W        W25643   5.762   8.393   2.337 -0.0803  0.2186 -0.1173
 8120W        W25644  16.476   0.464  12.424  0.1126 -0.1589 -0.2037
 8121W        W25645   3.065   6.800  13.545 -0.1864 -0.1738 -0.3106
 8122W        W25646   8.911   5.554   0.098  0.0790  0.1720  0.0018
 8123W        W25647  13.372   5.989  14.210  0.0341 -0.1017 -0.1198
 8124W        W25648   0.389  18.366   2.901  0.0945 -0.0619 -0.2891
 8125W        W25649   4.574   7.964   4.500 -0.2559  0.1739 -0.1155
 8126W        W25650  15.238  16.233   0.109  0.0833  0.0062  0.0063
 8127W        W25651  15.107   9.204   0.262 -0.0209  0.3009  0.2209
 8128W        W25652  14.978  16.712   4.113  0.0725  0.2669 -0.0508
 8129W        W25653  15.755  15.753  13.288  0.1485  0.0097  0.5198
 8130W        W25654   6.045   2.982   0.123  0.1409  0.0934 -0.0947
 8131W        W25655  11.172   6.585  13.838  0.0966  0.3040  0.0468
 8132W        W25656  14.298   0.357  13.265  0.1325 -0.1002  0.1778
 8133W        W25657   1.980  16.064  13.568  0.1475 -0.0092 -0.3890
 8134W        W25658   0.328  13.800   1.536 -0.0591  0.4071 -0.0656
 8135W        W25659  15.098   5.540   2.522  0.2356 -0.1730  0.1516
 8136W        W25660  16.202   0.776  12.141 -0.0873 -0.2667  0.1494
 8137W        W25661   9.150  12.123  14.123 -0.0519  0.0000 -0.0064
 8138W        W25662   1.400  13.289  11.620 -0.0781  0.0935 -0.2248
 8139W        W25663  12.065  11.904  11.673 -0.0443 -0.0159  0.2743
 8140W        W25664   6.166  14.700   4.981  0.2738  0.1236 -0.0093
 8141W        W25665  12.023  16.832   4.761  0.1174 -0.1182  0.3136
 8142W        W25666   1.000   9.687   1.143  0.0168  0.0697 -0.0867
 8143W        W25667   3.220   9.425  13.346 -0.1487  0.0647 -0.2321
 8144W        W25668  14.738   4.467  11.672  0.2597 -0.0907  0.0429
 8145W        W25669   7.458   4.840   1.677 -0.2685 -0.0576  0.0724
 8146W        W25670   3.922   3.155  13.725  0.1204  0.1403 -0.2952
 8147W        W25671   8.304  17.704   1.459  0.1136 -0.0333  0.1101
 8148W        W25672   2.100  11.939   0.859  0.1445  0.0286  0.1693
 8149W        W25673   7.405   3.986   3.241  0.0741 -0.0448 -0.0008
 8150W        W25674   2.607   2.152   5.249 -0.1363 -0.0229  0.2145
 8151W        W25675   5.694  14.147   4.469 -0.0751  0.2621 -0.0109
 8152W        W25676   3.172   7.715   3.447  0.4814  0.1760 -0.2567
 8153W        W25677  13.832  11.041   3.986 -0.0119 -0.1477 -0.1960
 8154W        W25678  14.209  16.350   3.867  0.0058  0.0747 -0.0378
 8155W        W25679  13.559  16.252   4.445  0.3985 -0.0541 -0.0661
 8156W        W25680  18.035   3.093  12.909 -0.3306  0.5355  0.1217
 8157W        W25681   5.046   9.007  15.549 -0.0778 -0.3936  0.0850
 8158W        W25682   7.130   3.966   1.658 -0.3235 -0.3481 -0.0328
 8159W        W25683   3.582   0.457  12.707 -0.0351 -0.1361 -0.3516
 8160W        W25684  16.255   9.930  14.129  0.2016  0.0670 -0.2185
 8161W        W25685   1.983   3.231  10.889  0.0940  0.2350 -0.1382
 8162W        W25686   6.380   2.882  13.874  0.0209  0.0223 -0.2172
 8163W        W25687  14.282   9.012   3.799 -0.1031  0.0934  0.1757
 8164W        W25688   4.230  17.271  15.260  0.3265 -0.0240  0.0152
 8165W        W25689   0.240  16.714  14.320  0.1896 -0.1282 -0.2737
 8166W        W25690  13.759   3.418   2.821 -0.0023 -0.0557  0.1760
 8167W        W25691   8.045  18.111  14.767 -0.3018  0.1508  0.3187
 8168W        W25692   9.622  16.682  12.460 -0.2857 -0.0000 -0.1290
 8169W        W25693  12.545  10.118   2.963  0.0148  0.0347 -0.1306
 8170W        W25694   3.625   8.380  15.740 -0.1519  0.1455 -0.4046
 8171W        W25695   8.817   1.205   4.265  0.2461  0.0783 -0.0005
 8172W        W25696  11.635  18.382  13.950 -0.3007  0.0380  0.0117
 8173W        W25697  10.387   4.874  13.914  0.0862 -0.0080 -0.1862
 8174W        W25698  17.935  14.344  13.975 -0.1954  0.0420  0.4094
 8175W        W25699   0.871  15.115  15.219 -0.0255  0.0501 -0.0644
 8176W        W25700   0.955   8.896   3.143  0.0885 -0.4395  0.0847
 8177W        W25701   0.887   0.162  13.449  0.0857 -0.1236  0.2724
 8178W        W25702  14.884  10.628  13.347 -0.0525 -0.0126  0.2746
 8179W        W25703   6.347  17.170  14.084  0.1790 -0.0946  0.0826
 8180W        W25704  15.136   2.536  11.390 -0.0301  0.3564  0.0097
 8181W        W25705   3.210  14.079  10.799 -0.0433 -0.0961  0.0378
 8182W        W25706   2.192   9.507   0.673  0.1413  0.2933  0.1560
 8183W        W25707   9.745   1.227  14.645  0.5361  0.2624 -0.2617
 8184W        W25708   1.944   2.395  15.189  0.3581  0.1668 -0.0733
 8185W        W25709   1.599  14.022   0.296 -0.0615 -0.0397 -0.1586
 8186W        W25710   7.644   9.616   3.768 -0.1664 -0.1284 -0.1755
 8187W        W25711   9.893  10.087   4.512 -0.2276 -0.3235  0.0576
 8188W        W25712   9.202  13.205  15.409  0.2800 -0.1728 -0.1219
 8189W        W25713  13.628   3.307  11.895 -0.2719  0.2438  0.1146
 8190W        W25714  17.523  17.908  14.690  0.2892 -0.1754  0.2484
 8191W        W25715  18.141  14.386   3.004  0.1769  0.1290 -0.2089
 8192W        W25716   2.151  11.027   3.687 -0.2734  0.0833 -0.0124
 8193W        W25717   6.072  16.166   4.493  0.0412 -0.0571 -0.0911
 8194W        W25718  14.613   6.458  12.770 -0.0204 -0.1061  0.1958
 8195W        W25719   3.289  18.344  12.213  0.4497 -0.1218  0.1274
 8196W        W25720  14.014   0.558  12.334  0.2073 -0.4105  0.0762
 8197W        W25721   8.905  18.044   4.872 -0.1347  0.1534  0.3765
 8198W        W25722   5.898   0.454  12.887 -0.0514  0.0694 -0.0634
 8199W        W25723   8.877  13.438  13.971 -0.0487 -0.1521 -0.2318
 8200W        W25724   6.452  16.323  13.504  0.2409 -0.2371  0.1263
 8201W        W25725  17.147  16.556  10.272  0.4923  0.1796  0.2035
 8202W        W25726  16.277   4.838  15.564  0.3019  0.0627  0.0723
 8203W        W25727   8.349   1.726   2.084  0.2420  0.0126  0.2401
 8204W        W25728   3.877  16.829  15.140 -0.1150 -0.3168 -0.1911
 8205W        W25729   0.925  14.840  11.416  0.3582  0.1703 -0.0763
 8206W        W25730   9.561   4.684   1.738  0.5469 -0.2772 -0.0391
 8207W        W25731  15.748   0.194  14.787  0.2456  0.1464  0.2280
 8208W        W25732  12.054   6.262  15.225 -0.0409  0.0592  0.0444
 8209W        W25733   8.385   3.848  11.695  0.2171  0.1358  0.2524
 8210W        W25734  18.254   0.673   3.516 -0.2333  0.1333  0.1405
 8211W        W25735   7.560  13.058   2.644 -0.0530  0.1935 -0.3237
 8212W        W25736   4.409  16.942   0.715  0.1554  0.0555 -0.2442
 8213W        W25737   7.733   0.365  13.743 -0.1074 -0.2957 -0.0509
 8214W        W25738   3.987  12.191   1.009  0.0661  0.0640 -0.3385
 8215W        W25739  12.534   4.563  14.366 -0.0073  0.1083 -0.1153
 8216W        W25740   9.025  16.504   3.769  0.0596  0.0120 -0.0990
 8217W        W25741  11.535   8.725  13.643  0.0654 -0.0545  0.1474
 8218W        W25742   0.620   2.918  12.368  0.0371  0.1761  0.1772
 8219W        W25743   9.969  15.359   1.200  0.0629  0.0008 -0.1574
 8220W        W25744  17.219   3.530  14.650 -0.1733 -0.0022  0.1983
 8221W        W25745   4.736  13.785   3.372 -0.2017  0.1552  0.0218
 8222W        W25746  15.310   2.381   0.691  0.4086 -0.0111  0.0863
 8223W        W25747  14.049   7.479   1.729 -0.2728 -0.0227 -0.0114
 8224W        W25748   4.058  10.464   3.427 -0.1566  0.0278  0.2758
 8225W        W25749   5.948  11.604  11.164 -0.1196 -0.2294 -0.2313
 8226W        W25750  15.016  11.735   1.660 -0.0030 -0.1916 -0.0087
 8227W        W25751   7.373   1.545   1.852  0.1867  0.1248 -0.2249
 8228W        W25752   0.091   4.332  15.489 -0.0900  0.3180  0.0016
 8229W        W25753  13.963   5.702   3.258 -0.0880 -0.2134 -0.3651
 8230W        W25754   3.283   3.033  12.732  0.0012  0.1661 -0.0536
 8231W        W25755  17.748   2.050   4.440 -0.0438 -0.2331  0.2083
 8232W        W25756   8.769  13.832  11.716 -0.0204  0.0807  0.0821
 8233W        W25757   5.805   7.095   0.548 -0.3985  0.1240 -0.2808
 8234W        W25758  11.564   7.535  15.591  0.1329  0.0829  0.1193
 8235W        W25759  13.611  12.341   3.919  0.1669  0.0960 -0.2284
 8236W        W25760  16.439   3.830   2.797  0.2886 -0.1600  0.1739
 8237W        W25761   4.822   2.489   4.712  0.1201 -0.0688 -0.0130
 8238W        W25762   3.389  18.381   0.394 -0.1017  0.3271 -0.1208
 8239W        W25763   4.322   7.726   0.228  0.1086 -0.1773  0.3310
 8240W        W25764   4.172  16.391  15.311  0.0754 -0.0013  0.0428
 8241W        W25765   1.177   5.768   0.524 -0.2006 -0.2272 -0.2734
 8242W        W25766  13.804   4.360  11.463  0.3076  0.2107  0.2675
 8243W        W25767   4.244  16.764   0.246 -0.0002 -0.1513  0.1872
 8244W        W25768  16.124  11.243   2.352 -0.0132 -0.0430 -0.0738
 8245W        W25769  12.294  18.053   3.787 -0.1225 -0.1829 -0.1881
 8246W        W25770   3.943   2.196   4.310 -0.0607 -0.1573  0.0747
 8247W        W25771  16.756   0.481   2.736  0.1926  0.0032 -0.1182
 8248W        W25772  10.199  12.939  13.034  0.3398  0.3270  0.2885
 8249W        W25773  17.917  14.378  11.306  0.0547  0.2698 -0.0961
 8250W        W25774  10.625   1.638   4.961 -0.2197  0.1269 -0.0635
 8251W        W25775  16.114   5.645  11.189  0.1282  0.1524 -0.1449
 8252W        W25776  15.198   6.790   5.410 -0.1235 -0.1249 -0.1063
 8253W        W25777  16.783   9.196   1.758 -0.1353 -0.5347 -0.0160
 8254W        W25778   4.993  11.595   1.568  0.1726 -0.0534  0.0580
 8255W        W25779  17.925  10.576   0.018  0.0302  0.2146 -0.3209
 8256W        W25780   9.757  11.670  13.544  0.0669  0.1982  0.1006
 8257W        W25781   5.265   6.738   0.647 -0.3407 -0.2260  0.1967
 8258W        W25782   4.197   7.055   0.807 -0.1991  0.0565 -0.4452
 8259W        W25783  14.018  15.581  15.797 -0.3010  0.2257 -0.3670
 8260W        W25784  11.116   2.769  15.821  0.0440  0.1466  0.1197
 8261W        W25785  13.692  10.931  13.956 -0.1770 -0.0513  0.0428
 8262W        W25786   9.767  15.381  14.349  0.3539  0.1226 -0.1044
 8263W        W25787   6.692  17.035  11.171 -0.0432  0.0226 -0.1049
 8264W        W25788  16.599   8.430  14.954 -0.3593 -0.1440 -0.2336
 8265W        W25789   2.025  18.257   0.154 -0.0538  0.0215  0.2053
 8266W        W25790   8.056  15.520   3.629 -0.1406  0.2437 -0.0966
 8267W        W25791   3.604  11.183   1.364 -0.3210 -0.1005 -0.2689
 8268W        W25792   9.276   6.586  14.767  0.1783  0.0864 -0.0479
 8269W        W25793  14.438  15.819  11.813  0.1591  0.1165  0.0396
 8270W        W25794  17.519  16.012   3.503 -0.1277 -0.2500 -0.0971
 8271W        W25795  17.135   1.282   1.007  0.1016 -0.4102  0.0257
 8272W        W25796   2.939   3.857   3.294  0.0173 -0.2276  0.0620
 8273W        W25797  10.438   6.005  15.001 -0.2711 -0.0407  0.2198
 8274W        W25798  12.658   3.843   0.372  0.1731 -0.3498  0.4533
 8275W        W25799   1.028   9.155  12.240 -0.2273 -0.4271 -0.1471
 8276W        W25800   9.152   2.710  12.884  0.0875 -0.0142  0.2763
 8277W        W25801  10.648   0.400  11.514 -0.1116  0.2673 -0.1889
 8278W        W25802   5.615  10.256   0.305  0.2168  0.1628 -0.2296
 8279W        W25803   5.308   4.177  12.771  0.0988 -0.1180  0.1769
 8280W        W25804   8.304  13.556   1.461 -0.2707  0.3368 -0.0168
 8281W        W25805  13.320  12.355  13.229  0.0317  0.0417  0.3139
 8282W        W25806   2.939  12.755   3.561 -0.2094  0.1010 -0.1706
 8283W        W25807  17.059   4.071  12.074  0.0705 -0.1421 -0.3676
 8284W        W25808  14.444  14.328  14.811  0.1293 -0.0147  0.1131
 8285W        W25809   8.670   3.200   4.714 -0.0684 -0.1520  0.0199
 8286W        W25810   5.781   9.874  12.185  0.0146 -0.0368  0.1389
 8287W        W25811  16.219  16.455  14.350  0.2154 -0.0122  0.1244
 8288W        W25812   8.735  17.140   0.911  0.0119 -0.1639  0.0805
 8289W        W25813  17.504   7.671  11.117 -0.2468 -0.0342  0.0256
 8290W        W25814  18.322   7.998   3.816 -0.1882  0.1533 -0.0080
 8291W        W25815   6.468  15.224   4.224 -0.0449  0.1705  0.2408
 8292W        W25816   6.910  12.343  14.370  0.1535 -0.2323 -0.1896
 8293W        W25817   8.520   7.266   0.517  0.0041 -0.1469 -0.2361
 8294W        W25818  10.755   6.760  15.835  0.1359  0.0004 -0.2916
 8295W        W25819  11.040  11.817  15.165  0.0314 -0.0527 -0.3555
 8296W        W25820  11.846  10.635  14.340  0.0857  0.0705  0.5422
 8297W        W25821   3.035   7.749   0.652 -0.1702  0.0253 -0.2018
 8298W        W25822   4.163   1.828  12.318  0.3678 -0.3378 -0.0053
 8299W        W25823  11.722   9.460  13.390  0.1801  0.0208 -0.0449
 8300W        W25824   1.602   1.111   0.744 -0.4117  0.1256 -0.3521
 8301W        W25825   8.621  17.622  11.422 -0.4848  0.0460  0.1171
 8302W        W25826   3.671   6.090   4.055  0.2032  0.3856 -0.4703
 8303W        W25827  10.537   7.833  14.987  0.0203 -0.3363 -0.0798
 8304W        W25828  15.000  16.511  11.139 -0.4784  0.1076  0.2398
 8305W        W25829   0.884   7.011   1.338 -0.2214  0.0589  0.1153
 8306W        W25830  15.374   4.141  13.063  0.3262  0.3419  0.1462
 8307W        W25831   0.508  14.804   2.270 -0.1710 -0.2008  0.0452
 8308W        W25832   1.421   0.781  12.963 -0.0574  0.1855 -0.3786
 8309W        W25833   6.540   1.619   1.550 -0.0739 -0.1109  0.2206
 8310W        W25834  10.077  16.681  12.695  0.0076  0.3830 -0.0991
 8311W        W25835   5.724  13.478  11.943 -0.0374  0.0027 -0.0549
 8312W        W25836  14.137  15.158   1.984  0.0869 -0.1547  0.3716
 8313W        W25837   6.575   2.853   3.648 -0.0697 -0.2108  0.0186
 8314W        W25838  18.119  14.194   4.617  0.2083 -0.1380  0.0543
 8315W        W25839  14.650  11.724   0.837 -0.0228 -0.0574 -0.0072
 8316W        W25840   2.813   6.671  12.801  0.3900  0.0729 -0.0051
 8317W        W25841   5.970   7.750  11.778 -0.1013  0.0782 -0.1353
 8318W        W25842   2.718   4.396   1.474 -0.2807 -0.0496  0.1712
 8319W        W25843  12.600   1.921   2.032 -0.3107  0.0952 -0.1046
 8320W        W25844   1.348   7.754   1.516 -0.2751 -0.1952 -0.0807
 8321W        W25845   9.538   3.856   3.709  0.3301  0.3443  0.0176
 8322W        W25846   1.008  14.589   2.360 -0.0339  0.1777 -0.0252
 8323W        W25847   6.436  16.072   1.960  0.0656 -0.1279 -0.2254
 8324W        W25848   8.933   8.452   4.498  0.2627 -0.0202  0.0426
 8325W        W25849  18.029   4.240  14.205 -0.1962  0.0567 -0.0113
 8326W        W25850   9.690   2.986  14.868  0.3511  0.1723  0.2202
 8327W        W25851   4.407  16.182  14.346  0.0176 -0.0918  0.0260
 8328W        W25852   4.442  17.422  11.179 -0.0940  0.0175  0.3164
 8329W        W25853  15.945   7.345   3.258 -0.1541  0.0785  0.1896
 8330W        W25854   0.841  16.219  14.826  0.4815  0.2221  0.0106
 8331W        W25855  17.991  15.851  11.875 -0.0816 -0.0593  0.1142
 8332W        W25856   1.988   1.166   0.342 -0.0453  0.0669  0.2088
 8333W        W25857   3.367   4.491   4.833  0.0504 -0.1186  0.1915
 8334W        W25858   1.244  13.916   4.449  0.2330 -0.1499 -0.0668
 8335W        W25859  16.888   0.123   2.316 -0.0149  0.2161 -0.1553
 8336W        W25860   8.067   9.322   5.751  0.0980  0.1717 -0.0064
 8337W        W25861  12.281  17.480   3.512  0.0823  0.1552  0.1334
 8338W        W25862   5.350  10.369   0.987  0.1758 -0.0130 -0.0305
 8339W        W25863  12.685  11.662  14.142 -0.1071  0.0981 -0.1825
 8340W        W25864   1.587  10.002  12.079  0.0158 -0.0087 -0.0198
 8341W        W25865   7.975  12.892   3.404 -0.1933  0.0146  0.2358
 8342W        W25866  10.656   9.927  11.838  0.5307 -0.2435  0.1462
 8343W        W25867   6.674  12.206   3.838 -0.1785 -0.0746  0.1367
 8344W        W25868   1.851   6.667  12.368  0.2770  0.2855  0.2254
 8345W        W25869  10.628   7.301  12.036 -0.3071  0.0279  0.2720
 8346W        W25870   9.104  14.981   0.038  0.0212 -0.2510 -0.0823
 8347W        W25871   8.073   1.540   5.186  0.2385 -0.3574 -0.1011
 8348W        W25872  10.179   0.678   2.339 -0.3871  0.1827 -0.0042
 8349W        W25873  17.254  18.063  13.692  0.4599 -0.2521 -0.0602
 8350W        W25874  11.166  16.226   3.128  0.2502  0.2643 -0.0698
 8351W        W25875  12.091  14.767  11.940  0.0435 -0.1619 -0.0042
 8352W        W25876  10.380  15.773   1.637 -0.1916  0.2237 -0.2233
 8353W        W25877  15.630  13.975  15.285 -0.0013  0.1108 -0.0333
 8354W        W25878   5.825  15.570  13.486  0.0358  0.0672  0.1706
 8355W        W25879  16.925   9.646   2.473  0.2595 -0.0580 -0.1658
 8356W        W25880  16.393   2.300  14.191  0.2712 -0.1298 -0.1551
 8357W        W25881   3.234  16.088   1.899  0.1645  0.4193  0.2580
 8358W        W25882   0.726   7.448  10.914  0.4535  0.1297 -0.3395
 8359W        W25883   6.265  16.317  14.013  0.2592  0.0833  0.0527
 8360W        W25884   4.353  15.974  12.608  0.0294 -0.0335 -0.0890
 8361W        W25885  11.138  14.099   2.377 -0.2463 -0.1941 -0.1449
 8362W        W25886   3.093  10.860  14.942  0.1244 -0.0280  0.2303
 8363W        W25887  10.000   5.969   0.013 -0.1804  0.0423 -0.1758
 8364W        W25888   6.195   5.027   3.878  0.2131  0.3081 -0.1515
 8365W        W25889   2.141   3.399  12.148  0.0032  0.0328  0.1838
 8366W        W25890  11.869  14.670   2.171 -0.1667 -0.0378 -0.2241
 8367W        W25891  10.411  15.229   0.895 -0.0159  0.0029 -0.3168
 8368W        W25892  14.765  17.269  13.672  0.2033  0.0052  0.1363
 8369W        W25893   2.130  11.624   0.087 -0.1293  0.1076  0.0896
 8370W        W25894   2.010   9.257  15.438 -0.3611  0.1103  0.0092
 8371W        W25895   9.497  17.396   4.413 -0.3160  0.1166  0.3968
 8372W        W25896   6.168   3.841   1.930  0.0190 -0.2454 -0.3939
 8373W        W25897  11.551  11.184  13.037  0.0862  0.1677  0.1704
 8374W        W25898   5.982   0.581  14.561  0.1168 -0.1819 -0.0335
 8375W        W25899   1.578  14.282   1.461  0.2227  0.1537 -0.1698
 8376W        W25900  15.204  12.832   0.931 -0.2169  0.3849 -0.3054
 8377W        W25901  17.383  14.516   0.777  0.2680  0.4735  0.2793
 8378W        W25902  11.875   3.970   3.263  0.3671  0.1255 -0.0187
 8379W        W25903   9.036   7.080   4.062 -0.1012  0.3432  0.0809
 8380W        W25904  13.357   2.931  11.705  0.1915  0.2305  0.1028
 8381W        W25905  16.332  11.146  15.860  0.1366  0.0248 -0.3648
 8382W        W25906  18.039   3.600   4.529  0.0042  0.1520 -0.1259
 8383W        W25907   8.161  15.488   5.249  0.2732  0.2090 -0.1309
 8384W        W25908   8.479  17.760   0.770 -0.2427 -0.2020  0.1223
 8385W        W25909  10.814   2.006   4.021 -0.0820  0.3249  0.2030
 8386W        W25910  10.431   0.620  13.749  0.4667 -0.0312  0.1501
 8387W        W25911  18.027  11.567   0.965 -0.1186  0.0497 -0.0398
 8388W        W25912   1.504  17.856   3.091 -0.1433  0.2210  0.0137
 8389W        W25913  17.394   4.396  13.347 -0.3042  0.1588 -0.0008
 8390W        W25914   1.653   6.102  15.132  0.4219 -0.1014  0.1142
 8391W        W25915   4.745   4.960   2.635 -0.1061 -0.1253 -0.1459
 8392W        W25916  10.848   9.644  12.685 -0.2932  0.2225 -0.0664
 8393W        W25917  12.372   5.203  10.711  0.0829 -0.0401  0.1474
 8394W        W25918  13.068  16.951   3.972  0.2657 -0.3608  0.0479
 8395W        W25919  12.435  10.127   1.947 -0.5070 -0.1023  0.2194
 8396W        W25920   8.831  16.130  12.327  0.0031  0.0205  0.0527
 8397W        W25921  14.787   7.418  14.988  0.0660  0.0471  0.1033
 8398W        W25922   1.711  14.773   0.976  0.0756  0.3008 -0.0615
 8399W        W25923   6.499   1.233   3.912  0.1983  0.6080  0.1080
 8400W        W25924   3.251   9.770  15.614 -0.1954  0.3700  0.2680
 8401W        W25925   3.138  15.211  12.684  0.3778 -0.1766  0.1808
 8402W        W25926  17.219   8.742   0.148  0.1722  0.0278 -0.1330
 8403W        W25927  10.911   9.548  12.136  0.0009 -0.1022 -0.1175
 8404W        W25928  11.231   9.224  15.444 -0.1995  0.0083  0.0866
 8405W        W25929   9.537   3.285   4.375 -0.0980 -0.2907  0.3130
 8406W        W25930   3.178  16.164   4.183  0.0335  0.0036  0.0690
 8407W        W25931   0.963   5.111  15.058 -0.0194 -0.0775  0.0137
 8408W        W25932  17.702  16.053   2.466  0.2705  0.1949  0.0276
 8409W        W25933   1.836   9.252  12.231 -0.1343  0.1236 -0.1280
 8410W        W25934   4.894  17.540   1.924 -0.0220  0.0486  0.1612
 8411W        W25935   4.678  10.288   1.449 -0.1308  0.1082 -0.0422
 8412W        W25936  11.577   0.274  11.846  0.3866 -0.1330  0.1574
 8413W        W25937   8.231  14.359   2.487 -0.1628 -0.1245  0.4181
 8414W        W25938   0.836   7.801   3.186  0.0819  0.0568 -0.2033
 8415W        W25939  10.678   6.708   0.884 -0.3507  0.1485  0.0920
 8416W        W25940  16.907  12.051   3.738 -0.1785  0.0528 -0.1787
 8417W        W25941   5.039  17.667  14.076  0.3452  0.0158  0.2398
 8418W        W25942   1.954   4.487   1.822 -0.4252 -0.4757  0.0115
 8419W        W25943  18.226  13.268  11.044  0.1538 -0.1104 -0.1295
 8420W        W25944   0.291   0.215  11.819  0.0336 -0.3498 -0.1870
 8421W        W25945   5.194   2.219   2.188 -0.0275 -0.4989 -0.0095
 8422W        W25946  14.082  11.161   3.594  0.0138  0.6014  0.1518
 8423W        W25947  11.731   0.751  11.848  0.2933  0.0627 -0.2706
 8424W        W25948  13.758  10.682   5.142  0.0097  0.2091  0.1436
 8425W        W25949   0.015  17.523   5.135  0.2100  0.0469 -0.2791
 8426W        W25950   9.387   7.666   3.017  0.1057 -0.1340  0.0020
 8427W        W25951   2.417  13.620  11.302 -0.0919 -0.1964  0.1342
 8428W        W25952  11.713   3.620  13.239  0.0455  0.0221  0.0461
 8429W        W25953  12.786   6.066  13.371 -0.0865  0.2624  0.1446
 8430W        W25954  12.000  14.435  13.131  0.1906 -0.0135  0.2691
 8431W        W25955  17.110   9.244  11.063 -0.3444 -0.3200  0.0838
 8432W        W25956   2.457  12.560   5.086 -0.1286  0.0206 -0.0617
 8433W        W25957   0.790   5.280   4.179  0.3722 -0.0765 -0.1391
 8434W        W25958  16.195  17.963   4.463 -0.2469 -0.3296  0.0565
 8435W        W25959  11.362   5.766   4.859  0.1766 -0.0127  0.3260
 8436W        W25960   2.391   8.527  12.017  0.1433 -0.1287 -0.3891
 8437W        W25961   9.628  16.449   4.636  0.1055 -0.1122 -0.1314
 8438W        W25962  14.824   0.969   3.764  0.0412 -0.1939  0.0465
 8439W        W25963  18.401  14.638  12.398 -0.2309 -0.0512 -0.0091
 8440W        W25964  15.731   5.275   0.076  0.0813 -0.1288  0.3008
 8441W        W25965  18.027  17.561  12.431 -0.1360 -0.0835  0.2718
 8442W        W25966  17.662   3.972   1.277 -0.0567  0.3583 -0.0056
 8443W        W25967   4.925  14.095  13.058 -0.1590 -0.4905  0.0566
 8444W        W25968  12.234   2.697  15.256  0.2204 -0.2294  0.1034
 8445W        W25969  10.713   6.131   2.461 -0.2291 -0.1877  0.0790
 8446W        W25970  14.183   6.103  13.748  0.4775  0.0271 -0.0510
 8447W        W25971   9.980  15.139   4.843 -0.3242 -0.2418  0.3232
 8448W        W25972   5.829  17.742  11.784 -0.1696  0.0990  0.0852
 8449W        W25973  11.875  14.914  12.377  0.1221  0.1016  0.2671
 8450W        W25974  16.197   1.253  12.366 -0.1612 -0.0342  0.1627
 8451W        W25975   6.173   7.350   4.423  0.0491 -0.3411 -0.1947
 8452W        W25976  13.355   6.703   3.537 -0.1571 -0.0874 -0.1630
 8453W        W25977   4.530  14.689  15.113  0.0512 -0.0880 -0.1578
 8454W        W25978   9.301   6.502  11.475  0.0268  0.1525  0.1486
 8455W        W25979   6.258  14.192   2.893  0.3915 -0.0224 -0.1453
 8456W        W25980   4.522   1.524  15.658 -0.1910 -0.1399 -0.2318
 8457W        W25981  16.614   1.897  11.598  0.2119  0.0192 -0.0313
 8458W        W25982   0.422   5.487   3.862  0.0815 -0.2352 -0.0334
 8459W        W25983  11.061  11.053   3.675 -0.0956 -0.0437  0.1696
 8460W        W25984  15.024  13.493  13.522 -0.0652  0.0496  0.1813
 8461W        W25985   1.307   8.949   3.966 -0.2656  0.0606  0.0770
 8462W        W25986   4.415   6.666   0.215 -0.0544 -0.2367 -0.0235
 8463W        W25987   7.445  10.302   2.822 -0.3427 -0.0463  0.1315
 8464W        W25988   2.274   3.379  14.204 -0.0094 -0.3258 -0.1819
 8465W        W25989  11.772  16.120   0.061 -0.0605  0.2563 -0.0161
 8466W        W25990  15.142   0.410  11.273  0.3306 -0.2493 -0.0956
 8467W        W25991   4.327   4.142  12.175  0.0602 -0.1485  0.1686
 8468W        W25992  16.443   7.966   0.273  0.4038  0.1365 -0.0794
 8469W        W25993  16.239   1.743  12.547  0.1498 -0.0275 -0.0709
 8470W        W25994  18.124   7.561   4.781 -0.0486  0.3488  0.0582
 8471W        W25995  17.730  17.336   3.357 -0.1133 -0.1253 -0.0269
 8472W        W25996  16.511   9.285   0.017  0.1422  0.3918  0.4384
 8473W        W25997   4.537   0.673   2.255  0.0445 -0.1442  0.0413
 8474W        W25998   9.835   2.313   4.828 -0.1978 -0.1117  0.0355
 8475W        W25999   4.010   2.038   3.656  0.2854 -0.0682 -0.0494
 8476W        W26000  14.248   4.609  10.736 -0.0070  0.1808 -0.2627
 8477W        W26001  11.006  16.567  12.605  0.3655 -0.2777  0.0016
 8478W        W26002  15.361  10.269   4.791 -0.0890 -0.1787 -0.2212
 8479W        W26003   5.164   4.079  13.906 -0.1340  0.0312  0.0624
 8480W        W26004   8.622  17.596  15.308 -0.3526 -0.2484 -0.1399
 8481W        W26005  15.699   1.540   3.626 -0.0349  0.1266 -0.0135
 8482W        W26006   3.928   3.630   1.460  0.1211 -0.2820  0.0211
 8483W        W26007   7.553   5.903  13.225 -0.0647 -0.0943  0.1042
 8484W        W26008  15.542   5.702   2.636  0.0982 -0.1109  0.2213
 8485W        W26009   2.288   9.617   1.230  0.0534 -0.1679  0.0453
 8486W        W26010   0.448  10.820   9.832  0.0010 -0.3529 -0.2778
 8487W        W26011  12.042   0.946   2.777 -0.0983 -0.0596 -0.0658
 8488W        W26012   0.099  15.884   3.412  0.1657 -0.0694 -0.0945
 8489W        W26013   7.658  12.232  11.356  0.1610  0.0179  0.2185
 8490W        W26014   8.602  13.454  13.042 -0.0484  0.3293  0.1763
 8491W        W26015   4.754   9.401  12.054 -0.0773  0.3247 -0.0417
 8492W        W26016   9.895  11.580  12.286  0.2695 -0.4520 -0.1042
 8493W        W26017   0.013  11.008  11.299  0.0348 -0.1346  0.1694
 8494W        W26018   5.404  10.775  11.028  0.3282 -0.2004 -0.1770
 8495W        W26019  11.904   5.696   0.665  0.0168  0.0875  0.0808
 8496W        W26020  18.008  14.905   1.955 -0.2421 -0.0428 -0.2316
 8497W        W26021   6.612   9.107   2.442  0.2183  0.0139  0.1274
 8498W        W26022   5.270  15.626  13.521  0.1458 -0.2324 -0.2425
 8499W        W26023   0.455   2.389  14.605 -0.1901  0.2875  0.1074
 8500W        W26024  12.298   5.096  13.584 -0.1963 -0.1909  0.1524
 8501W        W26025  11.444   4.160   3.522  0.0224 -0.0184  0.3664
 8502W        W26026   0.022   5.997   2.130  0.0973 -0.1773 -0.0472
 8503W        W26027   1.327   9.376   0.841 -0.2574 -0.0750  0.0261
 8504W        W26028  14.122   4.989  12.904  0.0410  0.1592  0.2900
 8505W        W26029   5.428   9.815   2.313  0.1749 -0.0691 -0.1104
 8506W        W26030   3.612   9.599   1.152  0.0829  0.0274  0.1474
 8507W        W26031   1.272  14.552   0.854 -0.1265  0.1118  0.1644
 8508W        W26032  14.929  16.758   0.891 -0.1839  0.0078  0.0689
 8509W        W26033  17.902  17.322  13.189  0.0333  0.4181 -0.0141
 8510W        W26034   0.037   0.071  13.447 -0.1084 -0.0238 -0.2519
 8511W        W26035  17.434   9.256  12.593  0.0098  0.0992  0.3597
 8512W        W26036   7.579  11.283  13.888 -0.1087  0.0908  0.1505
 8513W        W26037   7.741   5.842  10.261  0.1366  0.1139  0.0037
 8514W        W26038  11.651  17.304  14.602 -0.0520 -0.2930  0.0266
 8515W        W26039  17.145  10.164  14.131  0.0836  0.1750  0.1489
 8516W        W26040   5.273  14.546  12.307 -0.0616  0.0406 -0.0545
 8517W        W26041  15.616   7.578   4.290 -0.0410  0.0530 -0.0526
 8518W        W26042  10.202   0.660   4.308 -0.1161 -0.0679 -0.2584
 8519W        W26043   4.868   7.574   2.898  0.0291 -0.0814 -0.1851
 8520W        W26044   9.473  10.599  12.217 -0.0904  0.0766  0.2694
 8521W        W26045  16.590   5.133  10.590  0.0578 -0.2521  0.1790
 8522W        W26046   5.817   9.953   3.412  0.0189 -0.2677  0.2086
 8523W        W26047  12.861  12.313  13.375 -0.0228  0.2831 -0.0923
 8524W        W26048  17.887   1.671  14.674  0.0424  0.1227 -0.0496
 8525W        W26049   3.477   3.739   1.720 -0.0943 -0.0480  0.3199
 8526W        W26050  17.070   4.433   0.053 -0.1302 -0.0766  0.0398
 8527W        W26051  16.273   0.466   2.943 -0.0142  0.0774  0.0888
 8528W        W26052  17.299  13.487   3.881  0.1145 -0.0035 -0.1660
 8529W        W26053  11.282   6.161  15.351 -0.1382  0.4046  0.1290
 8530W        W26054   1.114  13.495  12.790 -0.1863  0.2228 -0.0241
 8531W        W26055   2.259  18.190  12.558 -0.2032  0.2861  0.2224
 8532W        W26056   4.565  12.135  13.421  0.1731 -0.1214 -0.0629
 8533W        W26057   7.198  17.966  14.941 -0.1256  0.1376  0.2741
 8534W        W26058  15.802  11.207   3.948 -0.1254  0.0764 -0.0149
 8535W        W26059  10.719  11.707   4.267  0.2350  0.1456 -0.0765
 8536W        W26060   4.202  14.645  12.014  0.2539 -0.3099  0.0030
 8537W        W26061   4.447   8.943   0.897 -0.1466 -0.0025  0.0366
 8538W        W26062   9.379   0.360  13.218  0.2085  0.1532 -0.1323
 8539W        W26063   5.575  12.224  12.461  0.1924  0.2476  0.1166
 8540W        W26064   5.470  15.797   4.330 -0.0148  0.1290  0.2600
 8541W        W26065  15.662   7.929  13.065  0.1638 -0.0936 -0.0599
 8542W        W26066  10.357   0.359  15.704  0.0664  0.1102 -0.2729
 8543W        W26067  18.393   1.720   3.218  0.0275 -0.2264 -0.0235
 8544W        W26068   5.730   8.778   4.305  0.0206 -0.0924 -0.2322
 8545W        W26069   4.269  16.134   0.228 -0.0566  0.3282  0.3972
 8546W        W26070   6.145  13.683   0.972 -0.0296  0.2772  0.0882
 8547W        W26071   9.651   7.836  12.839  0.1270 -0.2625 -0.5232
 8548W        W26072   2.172   1.215   2.817 -0.0546 -0.1748 -0.2827
 8549W        W26073   1.895   2.557  14.337 -0.2048 -0.2020 -0.1354
 8550W        W26074   6.803  17.939   3.827  0.0834 -0.2053  0.2269
 8551W        W26075   4.679   0.760  11.878 -0.0612 -0.0840  0.1202
 8552W        W26076  12.199  11.888   2.073 -0.0020  0.3901 -0.1967
 8553W        W26077  14.062   4.002  13.059 -0.0873  0.2148 -0.1320
 8554W        W26078   4.264  10.946   0.734  0.1070 -0.2434 -0.0848
 8555W        W26079  16.311   7.676   2.108 -0.0627  0.1971  0.2909
 8556W        W26080  14.190   1.836   0.140  0.0212  0.2106  0.1747
 8557W        W26081   7.889  13.192   4.212  0.5478  0.0041  0.1005
 8558W        W26082   7.235  12.262   2.381 -0.0034  0.1186 -0.1440
 8559W        W26083  16.695  14.874  11.428  0.3045  0.3696 -0.1111
 8560W        W26084  11.795   1.332  11.988 -0.5150  0.1846 -0.0341
 8561W        W26085   0.516  12.998  15.687  0.0816  0.0368 -0.0290
 8562W        W26086   9.182   2.309  13.692  0.1739 -0.0647  0.1026
 8563W        W26087   0.737  12.878   2.655  0.4055  0.0035  0.1931
 8564W        W26088  13.370   5.805   0.381  0.3130 -0.0197 -0.1504
 8565W        W26089  12.390   4.307   1.124 -0.1627 -0.1940 -0.4256
 8566W        W26090   0.603   7.999   2.240  0.1322  0.3242 -0.1159
 8567W        W26091  16.554  14.114  10.900 -0.1359  0.0362 -0.0250
 8568W        W26092  11.485  15.917  15.163  0.1625  0.0629  0.0428
 8569W        W26093   8.130  13.060  15.787  0.0724  0.2974 -0.0962
 8570W        W26094   4.472   3.795   2.474  0.1289 -0.0662 -0.1933
 8571W        W26095   9.621   4.243   3.180 -0.2170 -0.0674 -0.0269
 8572W        W26096   7.309  12.104  12.789 -0.0589 -0.3470 -0.0210
 8573W        W26097   2.729   7.543  12.784 -0.2364  0.1827  0.0431
 8574W        W26098  14.353  15.351   0.898 -0.0318 -0.1695  0.0252
 8575W        W26099  18.106  13.119  11.775 -0.0611 -0.0753  0.1691
 8576W        W26100   7.056  11.891   4.589  0.1880 -0.2757  0.2374
 8577W        W26101   8.003   8.087  13.672  0.0671 -0.1271  0.1138
 8578W        W26102  14.538  14.262   3.973 -0.2740  0.0949  0.1466
 8579W        W26103  13.491  15.410   2.606 -0.3212  0.0854  0.2372
 8580W        W26104   4.307  14.970  15.560  0.1206 -0.0398 -0.3170
 8581W        W26105   4.114   4.596   4.419  0.0781 -0.1535  0.0702
 8582W        W26106   1.717   6.045  14.638  0.1838 -0.2164  0.2292
 8583W        W26107   2.389   6.626  13.639  0.1173 -0.1043 -0.0629
 8584W        W26108   7.205  12.576   1.388 -0.2892 -0.1376  0.0784
 8585W        W26109  14.792   2.646   1.947  0.0583  0.0250  0.1150
 8586W        W26110   7.290   4.868  13.297 -0.0218  0.0171 -0.1754
 8587W        W26111  14.972   9.145  13.114 -0.0898 -0.1196 -0.1562
 8588W        W26112   6.329   0.332   3.716  0.0334 -0.1421  0.0183
 8589W        W26113  17.410  17.805   4.151 -0.1047 -0.0447 -0.1505
 8590W        W26114  11.693   9.510   3.369  0.2699 -0.1288 -0.0074
 8591W        W26115  12.664  13.326   1.042  0.1356 -0.0239 -0.1587
 8592W        W26116   6.504  10.840   0.420  0.0057 -0.1218  0.0905
 8593W        W26117  10.828   2.479   1.835  0.0690  0.0167  0.3174
 8594W        W26118  12.531  15.598   1.324  0.0097  0.0898 -0.0538
 8595W        W26119   6.053  14.750  11.954  0.1618  0.2726 -0.0911
 8596W        W26120   6.280   9.345  14.507  0.0769 -0.1808  0.4798
 8597W        W26121   7.920  17.144  13.693  0.4439  0.1200  0.1658
 8598W        W26122  16.886  14.925  12.331 -0.1858 -0.1567  0.0812
 8599W        W26123  13.637   7.029   0.396 -0.2474 -0.1733  0.2043
 8600W        W26124  12.135   4.123   1.593  0.0240  0.0390  0.1483
 8601W        W26125  18.143  10.025  11.626 -0.1326  0.4595 -0.1104
 8602W        W26126  17.885   9.585  10.748  0.0503 -0.0031  0.1830
 8603W        W26127   4.967   9.130   4.836 -0.0710 -0.3631 -0.6206
 8604W        W26128   4.958   4.777  11.551 -0.0287  0.3469  0.3589
 8605W        W26129   8.152  13.309   4.609 -0.0225  0.1986  0.0461
 8606W        W26130   6.080   1.364   0.544  0.1064  0.0407 -0.2315
 8607W        W26131  15.533   5.070   0.609 -0.1138 -0.1136 -0.2032
 8608W        W26132   4.936   0.569   1.878 -0.0569  0.0826  0.3524
 8609W        W26133   3.329   2.750   0.196 -0.0546  0.0601  0.0527
 8610W        W26134   0.583   0.816  11.189  0.2147 -0.2081  0.1161
 8611W        W26135  13.259   0.948   2.858 -0.0533  0.1010  0.1087
 8612W        W26136   0.017  10.586   3.527 -0.2483 -0.1479  0.0327
 8613W        W26137  12.483   1.456   0.072 -0.0947  0.1475 -0.1580
 8614W        W26138   9.335  12.584  15.033 -0.0949  0.0978  0.2574
 8615W        W26139  10.233  16.094  12.919  0.0049  0.0770 -0.0400
 8616W        W26140   4.853   1.006  14.972  0.1545  0.0479  0.1761
 8617W        W26141   8.310   6.874   3.738 -0.0550  0.3022 -0.0165
 8618W        W26142   9.724  17.856   1.069  0.0181  0.2461 -0.0969
 8619W        W26143   9.768   1.139  12.346 -0.0159  0.0366 -0.0700
 8620W        W26144  10.528  10.008  12.455 -0.0727  0.0763  0.0085
 8621W        W26145  17.566   2.171  11.474 -0.0305 -0.1651 -0.0355
 8622W        W26146  15.171  13.871   4.749  0.1742  0.1284 -0.1760
 8623W        W26147   9.602  16.968   1.346 -0.0860 -0.0779  0.1375
 8624W        W26148  15.394   1.822  14.966 -0.1424 -0.2916  0.2500
 8625W        W26149   4.319   7.223   3.154 -0.0946  0.2867 -0.0449
 8626W        W26150  17.486  15.768  10.111  0.1209 -0.0013  0.0280
 8627W        W26151   5.744   1.946  14.530 -0.2505  0.0067 -0.0428
 8628W        W26152   1.214   7.632  13.933 -0.3560 -0.0520  0.1683
 8629W        W26153  13.645  10.144  14.372  0.1492  0.4707  0.0292
 8630W        W26154  14.582   5.893  11.454  0.2532 -0.1387  0.0344
 8631W        W26155  12.872  15.130   3.754 -0.0887  0.0942 -0.2548
 8632W        W26156  11.762   4.694   4.942 -0.0495  0.2203 -0.2212
 8633W        W26157   6.772   7.807  14.482 -0.1101 -0.0008 -0.1510
 8634W        W26158   2.003  15.218   3.037  0.0289  0.0250  0.0312
 8635W        W26159  10.448   3.115   0.429 -0.1305 -0.0892 -0.2275
 8636W        W26160   4.908  17.318  12.644  0.0685 -0.2975 -0.1765
 8637W        W26161   1.131   6.516   1.306  0.1178 -0.1100  0.1033
 8638W        W26162   7.011   5.546  15.533 -0.2013  0.0747 -0.3467
 8639W        W26163   2.635   3.005  11.487  0.0188  0.1660 -0.1558
 8640W        W26164   9.569   3.942   2.758 -0.2000 -0.0351 -0.1755
 8641W        W26165   6.493  15.176   5.209 -0.0869  0.1704  0.2632
 8642W        W26166  15.608   0.004  13.314 -0.4650  0.0162  0.1231
 8643W        W26167  10.395   3.918   0.865 -0.0687 -0.0171 -0.0515
 8644W        W26168   0.312   9.074   2.959 -0.2355  0.2106 -0.1002
 8645W        W26169   5.733   8.627  12.862 -0.1535 -0.2883 -0.2677
 8646W        W26170  11.054  16.012  12.309  0.3289  0.0754 -0.0410
 8647W        W26171   5.165   9.589   1.375  0.0703 -0.0573 -0.0037
 8648W        W26172  10.358  14.779   1.125 -0.0778  0.1014  0.1706
 8649W        W26173   4.980  16.011  11.567  0.0827  0.0681  0.1503
 8650W        W26174   6.289  18.363  12.166 -0.0708 -0.2347  0.2165
 8651W        W26175   7.722   5.997  14.838 -0.0249 -0.2592 -0.0413
 8652W        W26176  11.860   0.921   3.202  0.1075  0.1117 -0.2874
 8653W        W26177   2.127   1.064  13.444  0.3538  0.1105 -0.1212
 8654W        W26178   5.447   2.021   3.331 -0.0452  0.1937  0.0764
 8655W        W26179  10.359   2.036  10.595 -0.0739 -0.0342  0.1617
 8656W        W26180  14.109   0.656   0.116  0.1622  0.2213  0.1538
 8657W        W26181  11.576  11.674  14.436 -0.1789  0.1689  0.2824
 8658W        W26182   8.567   3.654   4.482  0.1402  0.1265  0.1185
 8659W        W26183   0.421  14.249   1.233  0.3317  0.1568  0.3714
 8660W        W26184  15.873  11.020  13.845 -0.2693  0.2135  0.1018
 8661W        W26185   2.788  17.982   3.523  0.0410 -0.1613 -0.0742
 8662W        W26186  11.629   2.319  13.707  0.2054  0.2032 -0.2706
 8663W        W26187   5.803   1.351   4.466 -0.0756 -0.0854 -0.0384
 8664W        W26188  14.780  12.337   3.977  0.2242 -0.2449  0.4359
 8665W        W26189   4.814  14.115  13.575  0.2017 -0.0921 -0.0310
 8666W        W26190   4.769  10.852  12.416  0.0111 -0.0701  0.2760
 8667W        W26191   1.109   9.775  13.832 -0.1823 -0.0126 -0.2902
 8668W        W26192  13.913  11.204  14.365  0.1325 -0.0162 -0.4414
 8669W        W26193  17.433   8.068   3.342 -0.0926  0.2595 -0.1817
 8670W        W26194  12.222  14.964   2.005  0.0523  0.0878  0.0344
 8671W        W26195   3.547   4.766  12.730 -0.1274 -0.0921 -0.1436
 8672W        W26196  16.203   8.148  14.290 -0.4149  0.2519 -0.1712
 8673W        W26197  11.357   0.946  14.815  0.1448 -0.1907  0.1348
 8674W        W26198   0.495  15.017  11.262 -0.0855  0.0294 -0.0781
 8675W        W26199   8.824   6.768  12.289  0.3043  0.1582  0.2245
 8676W        W26200  12.491   3.199  11.255  0.0544  0.0288  0.5876
 8677W        W26201  13.802  10.133   0.103  0.0618  0.1282  0.1304
 8678W        W26202   0.503  17.814   0.880 -0.0498  0.0055  0.3122
 8679W        W26203  13.371   7.776  11.375  0.2480 -0.0167 -0.1974
 8680W        W26204  18.226   8.964   2.854  0.2703 -0.0949  0.0246
 8681W        W26205  13.882   0.090   3.622 -0.0021 -0.3398 -0.2956
 8682W        W26206  11.763  15.457   4.049  0.2299 -0.3094 -0.2234
 8683W        W26207  15.910   2.521   4.735 -0.0272  0.2441 -0.0112
 8684W        W26208  11.534   6.488  15.746  0.2342  0.0007 -0.3042
 8685W        W26209  15.190  12.561   2.951 -0.1179  0.1596  0.3889
 8686W        W26210  12.870   9.021  13.654 -0.2619 -0.3174  0.4423
 8687W        W26211  16.102   4.562   2.537 -0.1995 -0.1985 -0.2687
 8688W        W26212   5.063   4.103  10.910  0.1039  0.1623  0.0703
 8689W        W26213   7.143  17.616   5.009 -0.0774  0.1662 -0.1748
 8690W        W26214  11.948   9.601   1.119 -0.4639  0.0864 -0.1814
 8691W        W26215   5.387  11.954   2.022  0.0821 -0.2754 -0.1088
 8692W        W26216  10.620   4.328  12.626  0.3828  0.0190 -0.2877
 8693W        W26217   1.271  17.975   4.236 -0.0169  0.2781  0.2296
 8694W        W26218   0.955   1.187  12.030 -0.0981  0.1616  0.2215
 8695W        W26219   6.671   3.324   1.172  0.1909  0.2760  0.0189
 8696W        W26220  10.631  11.712   1.707  0.0650 -0.0926 -0.3854
 8697W        W26221  16.015  12.646  15.787  0.0716 -0.3654  0.0258
 8698W        W26222   3.847  13.463  11.250  0.4054 -0.2070  0.2769
 8699W        W26223   5.066  17.987  12.842  0.2721 -0.0963 -0.1070
 8700W        W26224  16.256  17.421   0.587 -0.1682  0.1322 -0.1579
 8701W        W26225   3.009  12.616   4.312  0.0866  0.3734  0.3137
 8702W        W26226  10.659  14.073   0.268  0.0944  0.0931 -0.2696
 8703W        W26227  12.116  10.338  10.905 -0.1034 -0.0320  0.0670
 8704W        W26228   8.875  18.281   2.446  0.1841 -0.2462  0.1182
 8705W        W26229   2.957  15.032   1.407 -0.1123 -0.0417 -0.1797
 8706W        W26230  17.484   9.484  15.482 -0.3325 -0.0571 -0.2289
 8707W        W26231   5.978   0.621  11.541  0.0733  0.0426 -0.0102
 8708W        W26232  17.024   8.836   0.658 -0.0118 -0.0691  0.2070
 8709W        W26233   6.371   3.369  15.708 -0.0005  0.0605  0.0032
 8710W        W26234  12.828  11.450   3.549  0.2036 -0.0720 -0.1004
 8711W        W26235   1.420  11.620   1.571  0.1506 -0.0091  0.0694
 8712W        W26236   7.336   9.279  11.402 -0.1069  0.0643 -0.1078
 8713W        W26237  14.853   5.188   1.053  0.3175  0.2221 -0.0540
 8714W        W26238   6.896   2.780   2.235  0.0378  0.5432 -0.1199
 8715W        W26239   6.133   2.247  14.981 -0.2716  0.0291  0.1681
 8716W        W26240   8.020  10.999  15.550 -0.1002  0.3449 -0.1185
 8717W        W26241   6.345   5.511   0.469  0.1616  0.1732 -0.1674
 8718W        W26242  14.583  14.341  11.430  0.1823  0.2195 -0.0319
 8719W        W26243   8.062  16.876  14.958 -0.1508  0.0986 -0.0928
 8720W        W26244   1.672  10.268   3.933  0.1299  0.2551 -0.2345
 8721W        W26245  15.520  17.894   1.611  0.1928 -0.2246 -0.0772
 8722W        W26246   1.038  16.539  11.754 -0.1536  0.1205 -0.1499
 8723W        W26247  11.877  16.235   2.515  0.2129  0.0328 -0.0046
 8724W        W26248  10.803   0.782   2.082 -0.0116 -0.1538 -0.1194
 8725W        W26249   1.334   3.811   2.077 -0.0522 -0.3203 -0.1316
 8726W        W26250   7.630  15.933  15.340 -0.0377 -0.4004 -0.2532
 8727W        W26251   8.796  14.221   0.695  0.0088  0.1602 -0.2854
 8728W        W26252   7.418  15.172  11.951 -0.0189  0.0560 -0.1848
 8729W        W26253   4.928   2.993  14.754 -0.0776  0.3761 -0.0761
 8730W        W26254   0.968  11.753   2.592 -0.0763  0.0532 -0.1980
 8731W        W26255   9.153  15.374  14.959 -0.2876  0.2970 -0.0565
 8732W        W26256  14.395  10.591   1.256  0.2524  0.0977 -0.0867
 8733W        W26257  13.298   3.544  13.552  0.0416  0.0263 -0.1628
 8734W        W26258  15.564  16.567   1.459 -0.0399  0.1246 -0.0875
 8735W        W26259  13.055  12.239   1.973  0.1628  0.2555  0.0148
 8736W        W26260   8.026   5.128  14.445  0.2565 -0.1409 -0.3414
 8737W        W26261   3.430   5.587   1.652 -0.1026  0.0319  0.0430
 8738W        W26262   2.379   1.452  13.100 -0.0013 -0.0116  0.0463
 8739W        W26263  13.247  13.129  15.038 -0.0887 -0.0723  0.0376
 8740W        W26264   0.557  17.531   1.855 -0.0431 -0.1114 -0.2931
 8741W        W26265   6.602   3.913   1.482 -0.1825  0.3099  0.1040
 8742W        W26266   9.089   1.857   1.696 -0.0638  0.1649 -0.3744
 8743W        W26267   3.379   9.347   0.115  0.0285  0.2630 -0.1928
 8744W        W26268  15.431  13.438  12.538 -0.0819 -0.0553  0.0751
 8745W        W26269   3.235  14.672   1.627 -0.2428 -0.2430  0.1195
 8746W        W26270   9.561   2.017   2.036  0.0719  0.2266  0.3517
 8747W        W26271  14.391  15.812   0.740  0.3362  0.0794 -0.1720
 8748W        W26272  18.207   7.453  11.831  0.0083 -0.0527 -0.0588
 8749W        W26273  11.733  14.736   5.211 -0.0346 -0.0394  0.1774
 8750W        W26274  14.716  10.621   5.473  0.1356 -0.2108  0.1640
 8751W        W26275  15.218  10.408   2.268  0.0475 -0.2252 -0.0061
 8752W        W26276  12.235  14.366  14.547  0.2969  0.0130 -0.0481
 8753W        W26277  16.896  15.349  14.473 -0.4288 -0.2211 -0.0043
 8754W        W26278  13.386  13.766  15.703 -0.0085 -0.3461 -0.0614
 8755W        W26279   2.278  13.993   3.646  0.3142 -0.1728  0.0596
 8756W        W26280   1.040   4.401   4.524  0.0056  0.0456  0.3254
 8757W        W26281   5.402   8.918   3.894  0.0701  0.0222 -0.5143
 8758W        W26282  17.742   2.025  13.838 -0.0198 -0.1906 -0.0213
 8759W        W26283   1.285  15.114  14.463 -0.0193  0.1973  0.0884
 8760W        W26284   5.644   9.664   1.746  0.0509 -0.1321 -0.0382
 8761W        W26285   8.626   7.786   2.215 -0.0999 -0.0096 -0.0702
 8762W        W26286  15.788   2.554   3.360  0.0806  0.0358 -0.0816
 8763W        W26287  11.520   6.250   2.449  0.3366 -0.0833 -0.2182
 8764W        W26288   0.880  10.738   1.097 -0.1794 -0.0050 -0.1084
 8765W        W26289  15.260   4.697   2.769  0.2496 -0.1074 -0.0270
 8766W        W26290   6.651   0.173   4.092  0.2512 -0.2823 -0.5074
 8767W        W26291   6.146   6.825   2.126 -0.1674 -0.0179 -0.0177
 8768W        W26292   8.467   0.061   4.213 -0.0562  0.0829  0.1128
 8769W        W26293  16.460   1.344   2.173 -0.0311 -0.2210 -0.1158
 8770W        W26294  15.760   9.999   1.443 -0.1901 -0.1935 -0.3301
 8771W        W26295   1.851  10.682   3.207  0.4310  0.0833  0.0885
 8772W        W26296   1.835   8.643   4.657 -0.3341 -0.0794  0.0895
 8773W        W26297   2.764   0.672  11.046 -0.0876  0.1731 -0.0375
 8774W        W26298   4.799   6.825   3.918  0.2097  0.2422 -0.0497
 8775W        W26299   0.674  10.187   4.201 -0.2116  0.1329  0.3476
 8776W        W26300   8.621   0.209  14.472  0.0242 -0.0498 -0.1656
 8777W        W26301  16.327  17.537   2.394  0.4385  0.2593  0.1116
 8778W        W26302   7.721   3.376  13.383 -0.1559 -0.0523 -0.1213
 8779W        W26303  14.891  16.377   4.540 -0.1218 -0.2744 -0.1500
 8780W        W26304   7.299  16.226  13.926 -0.0954  0.0392  0.0529
 8781W        W26305   2.239   8.503  14.228 -0.0933 -0.2004  0.1447
 8782W        W26306   3.667   3.062  12.377  0.1335 -0.3389  0.0597
 8783W        W26307  13.904   8.805  14.618  0.0113 -0.2761  0.2272
 8784W        W26308  13.305   3.224   1.470 -0.5911 -0.0551  0.1105
 8785W        W26309   1.361   2.265   0.891  0.0994 -0.2676 -0.0704
 8786W        W26310  13.292  17.459   0.021 -0.0426  0.1496 -0.0596
 8787W        W26311  11.489  11.171  11.954  0.2350  0.3627  0.1308
 8788W        W26312   5.130   6.192  14.020  0.3420 -0.0817  0.2873
 8789W        W26313   3.249   8.917   2.849 -0.2918 -0.1146  0.1912
 8790W        W26314  13.073   7.021   3.222 -0.1724 -0.0031 -0.0029
 8791W        W26315  15.220   0.086  14.613  0.0442  0.1046 -0.1043
 8792W        W26316   2.021   7.948   4.536 -0.2249 -0.2042 -0.2559
 8793W        W26317  16.417  14.516  15.369  0.1200 -0.1120 -0.0534
 8794W        W26318  11.286   8.455   1.289  0.3893  0.3253 -0.1784
 8795W        W26319   5.148  14.645   0.736 -0.0529 -0.2330  0.1385
 8796W        W26320   2.985   9.702   0.508  0.1450 -0.0034  0.2824
 8797W        W26321  15.142   7.963   1.433 -0.0658  0.1261 -0.0086
 8798W        W26322  13.417  12.636  12.843  0.3135 -0.0679  0.1233
 8799W        W26323  15.180   0.325   1.982 -0.1305  0.1838 -0.0153
 8800W        W26324   2.947   6.151   2.282 -0.3840  0.5676 -0.1500
 8801W        W26325  12.193  11.512  14.498  0.0218  0.1154 -0.0289
 8802W        W26326  12.717  16.789  13.716  0.0843 -0.0837  0.1160
 8803W        W26327  15.280   2.781  13.322 -0.1551  0.0932  0.0152
 8804W        W26328   8.201   1.467  13.333  0.0240 -0.1726 -0.3032
 8805W        W26329   9.183   0.030   4.834 -0.0936 -0.0219  0.0558
 8806W        W26330  16.901  15.087   0.047 -0.0347 -0.1293  0.1404
 8807W        W26331  14.557   7.551   0.875  0.0556  0.1061 -0.1932
 8808W        W26332   3.004   5.683  11.379 -0.1195  0.2732  0.1032
 8809W        W26333   3.288   7.423   0.896  0.0946 -0.0248  0.2481
 8810W        W26334   5.902   1.838  12.751  0.0766  0.0303 -0.0463
 8811W        W26335   9.841   7.108  11.387 -0.0174  0.1079  0.0596
 8812W        W26336  16.783  12.509   3.586  0.0278 -0.0943 -0.2230
 8813W        W26337   7.600   4.585   4.455 -0.3064 -0.4456 -0.4084
 8814W        W26338  18.326  11.176  12.981  0.2213  0.2417  0.0775
 8815W        W26339  17.292   6.030   1.705 -0.1938 -0.2165 -0.0006
 8816W        W26340   2.149  14.487  11.380 -0.2177  0.0876 -0.1281
 8817W        W26341   3.135  11.101   0.763 -0.0477  0.0637  0.2188
 8818W        W26342   2.922   3.667  13.939  0.1605  0.0897 -0.2526
 8819W        W26343  16.983  12.266   3.071  0.1153 -0.2200  0.0229
 8820W        W26344   2.887  16.150   2.474 -0.2729 -0.3909  0.1314
 8821W        W26345  10.192  17.007   0.962 -0.0669  0.2350 -0.2645
 8822W        W26346   3.419   5.672   3.486  0.0795  0.4058 -0.0173
 8823W        W26347   6.427  17.051  12.153 -0.2121  0.1981 -0.1294
 8824W        W26348  15.613   0.075  12.756  0.1092  0.1881  0.0341
 8825W        W26349  13.617   0.621   3.131 -0.2739  0.1899 -0.0058
 8826W        W26350  11.933   0.688   1.161 -0.0837  0.2632 -0.0950
 8827W        W26351   3.675   1.639  14.525  0.0770 -0.0945  0.2918
 8828W        W26352   8.549   8.366  12.056  0.0835  0.2472  0.2451
 8829W        W26353  18.176   0.796  13.876  0.0246  0.0851  0.0880
 8830W        W26354  11.306  15.584  12.056  0.0531 -0.0191 -0.4377
 8831W        W26355  17.574   3.696   2.470 -0.2640  0.0079  0.2367
 8832W        W26356   9.412   0.725  12.234 -0.2842  0.1215  0.1080
 8833W        W26357   6.971   0.936  12.981 -0.1883  0.2911 -0.2533
 8834W        W26358   3.890   2.648  12.264 -0.1471 -0.3500  0.1714
 8835W        W26359   5.095  12.439   5.080  0.0535 -0.1432 -0.2905
 8836W        W26360  10.311  12.174  11.816 -0.1670 -0.2594 -0.1468
 8837W        W26361   6.958   4.713   1.107 -0.1769 -0.1099  0.0234
 8838W        W26362  12.982   2.352   1.083 -0.2036  0.1419 -0.0768
 8839W        W26363  15.503  17.261   3.855 -0.0996 -0.1249  0.2641
 8840W        W26364   4.750   1.104   2.619  0.3551  0.2168 -0.0891
 8841W        W26365   4.671  15.266  14.751  0.4632  0.0805  0.0633
 8842W        W26366  16.029   5.372   1.439 -0.0159 -0.1275 -0.0801
 8843W        W26367  18.238   3.141   0.971 -0.2731 -0.1099  0.0079
 8844W        W26368   7.912   3.672   2.088 -0.3224 -0.1902 -0.3491
 8845W        W26369  15.794   3.966   2.428  0.3839  0.3277  0.0433
 8846W        W26370   9.726   6.329   4.126 -0.2410 -0.1558  0.1487
 8847W        W26371   4.500   0.340  14.177 -0.0651  0.2214  0.1994
 8848W        W26372   7.348   6.488   2.510  0.2115 -0.2123  0.1120
 8849W        W26373  10.436  17.139  12.433  0.0120  0.0573 -0.1193
 8850W        W26374  16.348  10.739   2.370  0.1295  0.0223 -0.1942
 8851W        W26375   3.754  17.913  11.701 -0.0652  0.0669  0.1125
 8852W        W26376   9.934   4.703  13.718 -0.0750  0.2867  0.2798
 8853W        W26377   1.975  17.399   3.698  0.2257 -0.1946  0.2533
 8854W        W26378   2.895  16.298   3.372 -0.2550 -0.1932  0.3721
 8855W        W26379   4.459  15.565  14.381 -0.0781 -0.3903 -0.1382
 8856W        W26380  18.407   3.517   0.703 -0.2305 -0.0252  0.0277
 8857W        W26381   8.994   6.128   5.252 -0.1194  0.0888 -0.0501
 8858W        W26382  16.155  13.816   0.111  0.1632  0.1452  0.1344
 8859W        W26383  14.446   4.361   1.660  0.1147 -0.4059  0.0660
 8860W        W26384   3.668   8.247  12.672  0.1077  0.0294  0.0300
 8861W        W26385   9.279   8.561   2.662  0.1837 -0.1023  0.2422
 8862W        W26386   4.287   5.305   0.485 -0.1422  0.0118 -0.0298
 8863W        W26387   8.990   7.324  12.514 -0.4023  0.0386 -0.1220
 8864W        W26388  12.511   2.309  15.015  0.0067  0.0565 -0.1396
 8865W        W26389   0.715   0.748  13.607  0.0768  0.1663 -0.0771
 8866W        W26390  13.973   1.066   4.322 -0.0057  0.1192  0.1090
 8867W        W26391   7.911   9.351  13.645  0.2106 -0.2133  0.0303
 8868W        W26392   2.207   7.488   5.267  0.0477  0.1089 -0.2334
 8869W        W26393   0.475   6.981   0.394 -0.0056 -0.1067  0.1192
 8870W        W26394   3.777  16.372   1.024  0.2995 -0.1952 -0.2459
 8871W        W26395  17.361   7.916   3.811  0.3841 -0.0254  0.2425
 8872W        W26396   6.476  17.975  11.262  0.2440 -0.1160 -0.0564
 8873W        W26397   9.142  10.358   0.889 -0.1132  0.0884 -0.0761
 8874W        W26398  14.038   5.679  11.263  0.0008 -0.0071 -0.2013
 8875W        W26399   5.791  17.700   3.647  0.0903  0.2416 -0.1893
 8876W        W26400  17.463  15.665  14.430  0.1287 -0.1574  0.1326
 8877W        W26401  12.208   4.747   4.260  0.4658  0.3890  0.2681
 8878W        W26402   6.853  16.265  15.852  0.2130 -0.1360 -0.1193
 8879W        W26403   5.516  15.230  14.402 -0.3230  0.1344  0.0238
 8880W        W26404   3.680  14.869   1.773 -0.0297 -0.2316  0.3239
 8881W        W26405   2.234   0.592   4.460  0.0312  0.0213  0.1305
 8882W        W26406   3.591   8.967   0.526 -0.0925 -0.0140 -0.2702
 8883W        W26407   4.551   0.413  13.653 -0.3191 -0.2317 -0.2801
 8884W        W26408   7.128   5.129   4.131 -0.0290  0.1685  0.2194
 8885W        W26409  18.069  10.241   3.607  0.0766 -0.0760 -0.0929
 8886W        W26410   9.091   2.517  15.630 -0.1052  0.1343 -0.1693
 8887W        W26411   1.116   9.832   0.670  0.3029  0.0196  0.2986
 8888W        W26412   7.907   5.175   0.886 -0.0438  0.0010 -0.1471
 8889W        W26413   5.820  18.123   1.743 -0.2086 -0.0990  0.2188
 8890W        W26414  12.476   8.417   3.780  0.1031 -0.0281  0.3408
 8891W        W26415   1.747   7.851   2.804 -0.1586  0.4045 -0.2436
 8892W        W26416  16.791   5.997   0.080  0.1428 -0.2633  0.1559
 8893W        W26417  10.242  11.915   3.499  0.0607  0.1366  0.2689
 8894W        W26418   7.943   3.841  11.840 -0.0819  0.1836  0.0660
 8895W        W26419   8.285  10.079  13.058  0.3443 -0.0940 -0.1538
 8896W        W26420   3.939   7.128  12.348 -0.0369 -0.2281  0.0430
 8897W        W26421  16.955   0.083   3.573  0.0371 -0.0478 -0.4406
 8898W        W26422   6.556  11.562  10.065 -0.0526  0.0462  0.0515
 8899W        W26423   5.255  14.348   4.434 -0.1615 -0.2410 -0.0627
 8900W        W26424  14.242   8.193   5.323  0.0552 -0.2316 -0.0318
 8901W        W26425   5.237   3.685  15.099 -0.0007 -0.0294  0.0986
 8902W        W26426  10.152   3.599   1.615  0.0977  0.1349  0.2408
 8903W        W26427  16.023  17.636  13.989  0.0779  0.0049  0.1031
 8904W        W26428  13.337   4.886  15.647 -0.1014 -0.0730 -0.0553
 8905W        W26429  11.787   5.572  15.183 -0.0304  0.0949  0.0538
 8906W        W26430   3.178   2.400  14.061  0.0420 -0.2006 -0.0385
 8907W        W26431  12.690  13.040   1.504 -0.4045 -0.1079 -0.2424
 8908W        W26432   3.837   7.933  13.596  0.0805 -0.1126 -0.0174
 8909W        W26433  15.425   2.012   3.970 -0.1866 -0.1880  0.0313
 8910W        W26434  18.383  17.851  11.131  0.2894 -0.0369 -0.0779
 8911W        W26435  11.462  11.805   2.478 -0.2105  0.2169 -0.2246
 8912W        W26436   3.698  16.449  11.894 -0.0329 -0.0057 -0.0432
 8913W        W26437   3.697  17.937   3.211  0.2095  0.1134  0.0802
 8914W        W26438  15.815   2.405   2.653  0.1499  0.3043  0.2318
 8915W        W26439  13.981  15.817  11.514 -0.1321 -0.1376  0.0708
 8916W        W26440   0.169   1.203   1.257 -0.2293 -0.0087  0.0551
 8917W        W26441   6.254   1.530  11.367 -0.2000  0.0078 -0.1065
 8918W        W26442  16.099   5.243  15.622 -0.0106 -0.0719  0.0538
 8919W        W26443  10.986  11.937  12.853 -0.1642  0.2128  0.3418
 8920W        W26444   8.163   6.168   2.258  0.2780  0.0401  0.0889
 8921W        W26445   8.859  16.619   2.272  0.0738 -0.0204  0.0565
 8922W        W26446   2.456  11.965   1.720 -0.2639 -0.1976  0.1918
 8923W        W26447  18.204  12.252   5.350  0.2359  0.0872  0.0909
 8924W        W26448  13.942   1.758   2.536  0.1241 -0.1578  0.4671
 8925W        W26449  16.350  11.738   3.451 -0.1156  0.1058 -0.6148
 8926W        W26450  16.893   5.481  12.440  0.0180  0.1689 -0.2851
 8927W        W26451   1.409   5.215  13.674 -0.0447 -0.1781 -0.0786
 8928W        W26452  10.019  11.094  10.108  0.0042 -0.1800  0.0494
 8929W        W26453  14.158  12.533  11.660  0.0996 -0.0996  0.0681
 8930W        W26454  13.573  11.694   0.863 -0.0031  0.3401 -0.1106
 8931W        W26455  13.168   5.439   2.117 -0.3050 -0.4204  0.0613
 8932W        W26456   1.013  14.227  15.740 -0.2915 -0.1860 -0.2614
 8933W        W26457   8.865  17.377  14.029 -0.0775 -0.0057  0.1253
 8934W        W26458   2.207  13.025   1.929  0.0834 -0.1731  0.2854
 8935W        W26459   3.684   3.719  10.380 -0.1297  0.0880  0.2950
 8936W        W26460  12.795   0.938   0.245  0.1531  0.2141 -0.1321
 8937W        W26461   4.464   3.171  14.788  0.4041 -0.3211  0.2554
 8938W        W26462   3.596  10.447   0.252 -0.0071  0.0720  0.3336
 8939W        W26463   1.224   4.839  15.478 -0.0510  0.0907  0.4203
 8940W        W26464  16.265   5.752   0.848  0.0918 -0.2270  0.2786
 8941W        W26465  15.288  15.365  11.739 -0.1518  0.0378 -0.2436
 8942W        W26466  15.947   1.174  13.657 -0.1315 -0.0033  0.2645
 8943W        W26467   4.242   1.729  13.886  0.0981  0.2280  0.1620
 8944W        W26468   3.124  11.604  12.965 -0.1459 -0.2832  0.2778
 8945W        W26469  15.456   2.243   3.186 -0.0845 -0.0263  0.1855
 8946W        W26470   1.590   9.650  14.641 -0.2388  0.0201  0.0404
 8947W        W26471   3.656   2.994  15.100 -0.0008  0.0891  0.3347
 8948W        W26472  17.321   5.706  11.105 -0.1537  0.0147  0.3250
 8949W        W26473   7.637   4.193  12.672 -0.1310 -0.1707  0.0613
 8950W        W26474   3.883   6.753  11.990  0.0978 -0.1958  0.4460
 8951W        W26475  10.589  14.860  10.366  0.0559  0.2389 -0.2530
 8952W        W26476   8.401   5.094   4.844 -0.0610  0.2111  0.4175
 8953W        W26477  10.283   9.430  13.507  0.0084  0.0884 -0.0056
 8954W        W26478  15.968  12.043   5.544  0.1458 -0.0247  0.0577
 8955W        W26479  13.719   5.541   1.137  0.1003  0.1004 -0.3311
 8956W        W26480  15.474  12.384  15.237  0.2001  0.0058 -0.3271
 8957W        W26481   1.843  12.666  14.880  0.1673 -0.0457 -0.0775
 8958W        W26482   4.760   8.279  14.345  0.2079  0.1775  0.3772
 8959W        W26483   1.020   9.598  14.590 -0.0799 -0.4055 -0.2197
 8960W        W26484   5.224  15.698  12.876  0.1355 -0.1107 -0.3287
 8961W        W26485   3.567  14.128  15.108 -0.1299  0.4681  0.0181
 8962W        W26486  14.605   1.640   1.763  0.3424  0.1546  0.0971
 8963W        W26487   5.675   2.064  12.290 -0.1977  0.1285 -0.0171
 8964W        W26488   5.347   6.101  15.218 -0.0615 -0.1571  0.1890
 8965W        W26489   7.977   1.182   0.252  0.0422 -0.0248 -0.0247
 8966W        W26490   8.543   9.514  15.256 -0.1574  0.3294 -0.3024
 8967W        W26491   7.716   9.764   2.542 -0.1152  0.0401 -0.0417
 8968W        W26492   3.843   3.083  15.573  0.2690  0.1749 -0.2756
 8969W        W26493  14.094  13.124  12.416  0.1147  0.5252  0.1337
 8970W        W26494   1.875   4.765  15.719 -0.0888 -0.0512  0.0012
 8971W        W26495   1.893  17.615  14.264 -0.2314 -0.1917 -0.1532
 8972W        W26496  14.874  14.100   1.028  0.1162 -0.1610 -0.0187
 8973W        W26497   7.440  15.655  14.781  0.0581 -0.1198 -0.3484
 8974W        W26498  13.092  13.787   3.319 -0.1310 -0.0457 -0.0577
 8975W        W26499   6.552   0.906  15.107  0.3293 -0.0115 -0.1362
 8976W        W26500   5.414   8.612   4.686 -0.1743  0.2766 -0.0360
 8977W        W26501  17.367   2.249  13.058  0.0143 -0.0699 -0.0107
 8978W        W26502   7.107  13.879   1.127 -0.2483  0.2633 -0.0452
 8979W        W26503   7.621  16.413   2.835 -0.2181  0.1794  0.2365
 8980W        W26504  10.393   3.812  13.343  0.2713  0.0656 -0.0359
 8981W        W26505  18.215  13.621   2.308  0.0803 -0.1100  0.0837
 8982W        W26506   2.807  11.623   4.269  0.2447  0.3648 -0.5110
 8983W        W26507   0.351  13.287   2.529  0.1302  0.1238  0.0124
 8984W        W26508   5.693  15.561  11.103  0.2066 -0.3341  0.0816
 8985W        W26509  11.566   5.167  15.101 -0.1271 -0.0839 -0.3602
 8986W        W26510  11.776   5.543   3.814 -0.1848  0.2010 -0.0084
 8987W        W26511   6.671  17.566  13.270  0.1395 -0.2446  0.4583
 8988W        W26512  11.789   3.329  11.190 -0.0113 -0.1217 -0.2554
 8989W        W26513   3.658   3.733   0.996 -0.0733 -0.2444  0.1268
 8990W        W26514   8.706   7.436  15.860 -0.0621 -0.0543 -0.0856
 8991W        W26515  15.545  17.518  13.628 -0.2197 -0.1575  0.0659
 8992W        W26516  14.207   3.529  14.858 -0.0860  0.1663  0.2737
 8993W        W26517  17.805  12.568  13.794 -0.0828  0.1932  0.0797
 8994W        W26518   5.183  16.696  15.181  0.0515  0.1647  0.0112
 8995W        W26519  11.825   2.485   2.607  0.3287 -0.0094  0.1726
 8996W        W26520   5.811  14.344  14.561  0.0121  0.1655 -0.0161
 8997W        W26521   9.016  14.137  14.072  0.2136 -0.4817  0.2927
 8998W        W26522   1.833  16.368   1.773  0.0155  0.0516 -0.2381
 8999W        W26523  13.884  16.286   3.505 -0.0061  0.0729  0.0184
 9000W        W26524   6.604   9.742   2.723 -0.4431 -0.0258 -0.0624
 9001W        W26525  18.243   5.702  14.834  0.0535 -0.0766 -0.0407
 9002W        W26526   0.706   1.445  10.440 -0.2752  0.1013 -0.3339
 9003W        W26527   2.688   4.848  11.747 -0.0420  0.1184  0.1924
 9004W        W26528  13.883  16.669  14.533 -0.0750  0.1902 -0.1017
 9005W        W26529   1.119   3.831  14.845  0.0556  0.1098 -0.0862
 9006W        W26530  13.273  14.952  13.850  0.0486  0.3996  0.1318
 9007W        W26531   1.308  14.417  13.882  0.0918  0.1262  0.1390
 9008W        W26532   4.745   1.789   4.275 -0.0477 -0.0997  0.1869
 9009W        W26533   2.278   3.423  11.229  0.1520  0.0102 -0.2066
 9010W        W26534  12.304  12.052  15.659  0.0919 -0.0807 -0.1305
 9011W        W26535  15.352   1.440   4.646  0.3175  0.2631  0.0824
 9012W        W26536   4.752   9.969   0.058 -0.1997 -0.0151  0.0462
 9013W        W26537  11.006  13.215  12.510 -0.0723 -0.1900  0.0221
 9014W        W26538   7.515   8.855   0.688  0.0475 -0.0639 -0.1702
 9015W        W26539   5.340  12.566   0.485 -0.2019 -0.1083  0.0351
 9016W        W26540  16.236  15.911   4.023  0.2704 -0.4624 -0.0351
 9017W        W26541   4.536   3.017   3.712  0.2872 -0.0751 -0.0523
 9018W        W26542   0.013   8.659  13.805  0.4338 -0.0887 -0.0431
 9019W        W26543   0.207  13.847   2.433  0.2290 -0.1651 -0.3001
 9020W        W26544  14.745  16.125   0.949 -0.1885 -0.0231  0.1485
 9021W        W26545  11.076  13.449  13.536  0.0870 -0.2678  0.0382
 9022W        W26546  14.093   2.108  15.542 -0.2606  0.1112 -0.0963
 9023W        W26547   5.347   6.962   2.952  0.0971 -0.0722  0.0409
 9024W        W26548  15.916   6.370  12.882  0.0064  0.3086  0.1173
 9025W        W26549   1.855   2.744   1.655  0.4004 -0.0214  0.1532
 9026W        W26550   0.270   2.418   3.816 -0.0506  0.0472 -0.0266
 9027W        W26551  15.252   0.635   3.694 -0.1733 -0.1161  0.0494
 9028W        W26552   9.962   9.921  11.972 -0.1679 -0.0413  0.1849
 9029W        W26553  17.207  12.638   3.807 -0.3273 -0.0329 -0.1360
 9030W        W26554   3.893   5.887  15.499 -0.3009 -0.0835  0.0623
 9031W        W26555   9.597  10.660   0.782  0.1650 -0.0460  0.1499
 9032W        W26556   5.823  16.433  14.294 -0.3429 -0.1845  0.0679
 9033W        W26557   8.755   8.038   0.090 -0.2872  0.1337  0.3544
 9034W        W26558   4.562  10.067  15.012 -0.3238 -0.0952  0.5318
 9035W        W26559   9.028  17.581  14.484  0.1564 -0.0554 -0.0084
 9036W        W26560  17.291   1.247   1.903  0.1676  0.1023  0.1419
 9037W        W26561   0.340   7.606  11.196  0.3088  0.2467  0.1967
 9038W        W26562   2.821  13.833   4.866 -0.4480 -0.2815  0.0863
 9039W        W26563   7.083   0.898  14.826 -0.2931  0.2885  0.2023
 9040W        W26564  13.177  12.584  14.845  0.0773 -0.0756 -0.0517
 9041W        W26565   3.113  13.581   3.965  0.0115  0.1268 -0.0196
 9042W        W26566   1.064   7.054   2.552 -0.0831  0.3487  0.1927
 9043W        W26567   6.507  17.967   2.497 -0.2312 -0.3143  0.0220
 9044W        W26568  14.923  14.620   2.288 -0.2846 -0.1410  0.0205
 9045W        W26569   2.859  16.678   1.746 -0.2187  0.1464  0.0416
 9046W        W26570   3.694   2.226  13.968  0.3252 -0.2234 -0.1162
 9047W        W26571  16.244   5.709  11.655 -0.3036 -0.2198 -0.0214
 9048W        W26572   3.165   6.545  10.882  0.0647  0.2309  0.1711
 9049W        W26573  17.611  12.351   1.081 -0.0213 -0.4026 -0.4291
 9050W        W26574   4.535   3.151   1.171 -0.0450  0.3579 -0.0563
 9051W        W26575   7.976   2.052  15.024  0.0757  0.3095 -0.2536
 9052W        W26576   5.605  13.659   4.442 -0.4762  0.0039 -0.1967
 9053W        W26577  13.321  10.955   3.998  0.3160  0.2006  0.1226
 9054W        W26578   2.772   0.619  14.562 -0.2367  0.0641  0.0215
 9055W        W26579  16.261   0.677  15.243 -0.2141 -0.1350  0.1829
 9056W        W26580  16.088  14.035  13.652  0.2858 -0.0431  0.1984
 9057W        W26581  13.105  10.756  14.123 -0.1820  0.3677 -0.0197
 9058W        W26582  10.806  12.132  14.498  0.3499  0.2595  0.1370
 9059W        W26583  10.307   2.138   2.613  0.0788  0.1323 -0.1385
 9060W        W26584  17.962  13.778  14.408  0.0411 -0.1547 -0.2737
 9061W        W26585  12.914   6.653  11.471 -0.1267  0.1149  0.2999
 9062W        W26586   5.754  14.610  15.190 -0.0588 -0.1277 -0.0336
 9063W        W26587  17.735   1.133  14.738 -0.0734  0.0884  0.1962
 9064W        W26588   9.576   2.617  13.773  0.0481  0.1319  0.0682
 9065W        W26589  12.321   7.134   2.545 -0.2099  0.1661 -0.5515
 9066W        W26590  14.128   7.624  11.121 -0.1610  0.0469  0.3670
 9067W        W26591   9.153   6.308  12.268  0.0362  0.3699 -0.3536
 9068W        W26592   8.385  13.266  11.031 -0.0811 -0.0526 -0.2585
 9069W        W26593   0.768  18.077  14.752 -0.1900 -0.0704 -0.1745
 9070W        W26594  15.177   4.355   2.365  0.2243  0.2563 -0.0567
 9071W        W26595   1.974   8.557  10.620  0.0510 -0.0314  0.1072
 9072W        W26596   0.002   2.185  15.535  0.2680  0.0466 -0.1473
 9073W        W26597   1.437  13.608   4.001 -0.4181 -0.2540  0.1513
 9074W        W26598   9.596   7.963  15.067  0.2240  0.5988 -0.0591
 9075W        W26599   0.923   7.223  15.016  0.0182 -0.0080  0.0857
 9076W        W26600  17.756   5.370  11.134 -0.2089  0.2371 -0.0421
 9077W        W26601  14.791   1.188   1.919  0.2308  0.0426 -0.1091
 9078W        W26602  12.747   9.629   3.958  0.1300  0.1229  0.1068
 9079W        W26603   9.065  15.705  12.123  0.1552 -0.2360 -0.1647
 9080W        W26604   4.386  13.828  14.173 -0.0964 -0.0745 -0.0505
 9081W        W26605  12.767  15.656   3.069  0.0649  0.0366  0.1575
 9082W        W26606   2.599   2.985   3.791 -0.0349  0.1192  0.0084
 9083W        W26607  17.130  17.617  14.263  0.1735  0.1133 -0.0903
 9084W        W26608  11.376  16.031  11.744 -0.0284 -0.0459 -0.3065
 9085W        W26609   3.909   4.249  13.019 -0.0684 -0.2584 -0.0706
 9086W        W26610   2.730   4.526  15.549 -0.0913  0.2021  0.0589
 9087W        W26611   5.972  15.127  12.248 -0.0718  0.0376 -0.0811
 9088W        W26612   0.491   1.908   3.894  0.0470  0.1971 -0.3823
 9089W        W26613   6.251   0.178   1.886 -0.0921  0.1835 -0.1051
 9090W        W26614   7.583  11.004   1.627 -0.2729  0.0104 -0.2163
 9091W        W26615  12.555  16.782  10.641 -0.1006  0.3339 -0.1476
 9092W        W26616   7.594  18.368  14.930 -0.0604  0.3331 -0.1339
 9093W        W26617   1.186  16.524  15.121 -0.1134  0.0828 -0.3915
 9094W        W26618  14.892   3.691   1.959 -0.0194  0.2707 -0.2480
 9095W        W26619   4.259   3.514   2.892 -0.2180  0.2920 -0.2370
 9096W        W26620   5.414   0.903  13.193  0.0211 -0.1960 -0.2959
 9097W        W26621  15.255   6.114   3.364  0.1122 -0.1346 -0.1065
 9098W        W26622   5.246  15.944   3.920  0.2597 -0.2587  0.1628
 9099W        W26623   0.155   9.501   0.948 -0.0385 -0.2310  0.3168
 9100W        W26624  17.984  18.072   1.838  0.0008 -0.0326 -0.3230
 9101W        W26625   2.509   1.425   0.712 -0.0510 -0.0496  0.1416
 9102W        W26626   4.351   0.632  15.056 -0.0193 -0.1268  0.0865
 9103W        W26627   3.749   1.700  14.022 -0.3273 -0.1098 -0.0628
 9104W        W26628   4.695   8.631  12.823  0.2259 -0.2424 -0.0006
 9105W        W26629  15.015  18.336  12.530 -0.1573 -0.4210  0.0062
 9106W        W26630  14.594  11.800   4.057 -0.0774  0.0083  0.0192
 9107W        W26631  11.068   7.160  12.235 -0.0205  0.0924  0.0552
 9108W        W26632   7.927   2.666   3.237  0.2974 -0.2169  0.0468
 9109W        W26633   5.019   3.555  11.119 -0.1321 -0.4500  0.0504
 9110W        W26634   4.243  13.692  15.708 -0.2911  0.0075 -0.1276
 9111W        W26635   4.418  15.538   2.967  0.0051 -0.0192  0.0319
 9112W        W26636  11.599   6.509  15.194 -0.1833  0.0753 -0.0830
 9113W        W26637   4.370   2.494   3.800 -0.2377 -0.2928 -0.0967
 9114W        W26638   5.426   0.556   3.204 -0.1732  0.2148 -0.1873
 9115W        W26639   2.778  17.422  14.563  0.1580 -0.2006 -0.2464
 9116W        W26640  16.904   4.476   2.925 -0.2689 -0.1012  0.1347
 9117W        W26641   8.935  16.042  13.915 -0.3119 -0.2043  0.0406
 9118W        W26642  15.077  12.529  12.883  0.0566  0.1030  0.1532
 9119W        W26643  14.382  11.845  12.932 -0.0616 -0.0341  0.0576
 9120W        W26644   4.710  15.572  13.716 -0.0043 -0.1046  0.0269
 9121W        W26645   4.683   7.823  14.171 -0.1172 -0.1822  0.2091
 9122W        W26646  14.461  16.090   4.662  0.0717  0.1179  0.0453
 9123W        W26647  14.245  17.384   2.505  0.2126  0.2193 -0.0734
 9124W        W26648   9.085  16.617   3.275  0.2963 -0.0396 -0.0167
 9125W        W26649  10.648  18.078  14.654 -0.3365  0.0979  0.1804
 9126W        W26650   1.752   0.063  15.074  0.1395  0.0557  0.2226
 9127W        W26651   6.239   4.738   0.026  0.0967 -0.2160 -0.3928
 9128W        W26652  17.796  14.018  15.056 -0.0083 -0.1598  0.2778
 9129W        W26653   4.317  11.785   0.997 -0.0132  0.2134  0.0004
 9130W        W26654   3.109  12.010   4.661  0.2118  0.0059  0.1307
 9131W        W26655  10.440  10.803  11.879 -0.1734 -0.0715 -0.2191
 9132W        W26656   0.652   0.396   2.816  0.1182 -0.0797  0.0177
 9133W        W26657   6.065   2.355   4.362  0.1929  0.0251  0.0357
 9134W        W26658  14.894   7.031  15.758 -0.1568 -0.0089 -0.1025
 9135W        W26659  13.689   6.373   1.845  0.1574  0.0322 -0.0861
 9136W        W26660  11.715  14.923   1.315 -0.0694  0.3602  0.0063
 9137W        W26661   9.056   5.847   5.950 -0.1473  0.1073 -0.0259
 9138W        W26662  12.517  10.447   6.055 -0.3998  0.1159 -0.3770
 9139W        W26663   3.336   1.437  12.809  0.0405 -0.0414  0.0100
 9140W        W26664   7.925   1.134   3.645  0.2907  0.1894  0.1245
 9141W        W26665   8.688   9.294   3.069 -0.1938 -0.3095 -0.0340
 9142W        W26666  10.193  18.125   4.678  0.1966 -0.1042  0.2747
 9143W        W26667   7.168  11.348   4.329 -0.2005 -0.1608 -0.3059
 9144W        W26668   5.751   9.253   0.517  0.0203  0.4513  0.4799
 9145W        W26669  11.760   3.724  12.750 -0.1187  0.2840  0.1449
 9146W        W26670  14.525  10.482   2.323 -0.2105 -0.0767  0.2570
 9147W        W26671   4.835  16.641   4.227 -0.1151  0.1620 -0.1451
 9148W        W26672   4.968  16.913   3.089  0.1549 -0.0528  0.1757
 9149W        W26673  11.148  15.337   4.814  0.2338  0.2133 -0.1104
 9150W        W26674   6.948   7.407   0.527  0.1082 -0.0362 -0.1754
 9151W        W26675  13.746   7.895  14.345  0.1063  0.0099  0.0492
 9152W        W26676  17.003   6.669   4.868  0.4796 -0.0731  0.0053
 9153W        W26677   7.052   7.348  12.152  0.0034 -0.1579 -0.1943
 9154W        W26678  17.363  10.015  13.033 -0.0718 -0.0263  0.2490
 9155W        W26679  16.008   7.519   0.357 -0.0926  0.0691 -0.0957
 9156W        W26680  15.384   0.629   1.388 -0.1767 -0.2317 -0.2896
 9157W        W26681  12.350   9.863  11.171  0.1524  0.1391 -0.0493
 9158W        W26682   3.655   2.471   2.612  0.0954  0.0534 -0.1254
 9159W        W26683  15.303   4.071   3.461 -0.1785  0.0884 -0.1245
 9160W        W26684  10.138   0.598   4.764  0.1060 -0.1463 -0.1667
 9161W        W26685  14.907  17.455  12.175  0.0986  0.0462  0.3193
 9162W        W26686   9.756   1.008   4.073 -0.0929  0.0276  0.0512
 9163W        W26687  12.840  16.000   1.423 -0.1378 -0.1653 -0.3130
 9164W        W26688  13.530   1.295   0.165 -0.1929  0.2150  0.0364
 9165W        W26689   0.177   7.169   1.611  0.1127  0.0066 -0.0449
 9166W        W26690   4.654  13.292  12.595  0.3501  0.0937 -0.0811
 9167W        W26691   7.400   8.519   1.863 -0.0350  0.2051 -0.5831
 9168W        W26692  15.422  10.203   3.103 -0.0334  0.2618 -0.0696
 9169W        W26693  10.873  13.770  11.383 -0.2791 -0.2970 -0.0239
 9170W        W26694   7.776   0.253  15.318  0.2769  0.0282 -0.3314
 9171W        W26695   4.211   5.722   0.262 -0.0834 -0.0573 -0.0151
 9172W        W26696  15.995   0.592   1.504 -0.2000 -0.3848  0.0050
 9173W        W26697   5.950  13.854  11.743 -0.2322  0.2471  0.2235
 9174W        W26698   6.686   6.768  13.764  0.0598 -0.0547  0.0926
 9175W        W26699   8.244  15.208   3.290 -0.1312 -0.2070 -0.0399
 9176W        W26700  17.782  14.072   4.187  0.2717  0.0536  0.0323
 9177W        W26701  16.916  17.052   2.940 -0.0386 -0.0028 -0.2432
 9178W        W26702   6.090  11.348   1.154 -0.1291  0.2336 -0.2590
 9179W        W26703   7.601  12.877  14.377 -0.0091  0.1991 -0.0060
 9180W        W26704  16.517   0.795   1.910  0.1054  0.1265 -0.1455
 9181W        W26705   6.982  13.882  11.975 -0.1589  0.3134 -0.0327
 9182W        W26706   6.718  16.796  15.728  0.0095  0.1656  0.1642
 9183W        W26707   7.657   7.622  12.157 -0.0759 -0.0905  0.0868
 9184W        W26708  11.406   1.001   4.850  0.2830 -0.3204 -0.0337
 9185W        W26709  13.759  14.423  15.041  0.2319  0.1471 -0.0469
 9186W        W26710   5.264   5.174  12.916  0.0447  0.1118  0.1316
 9187W        W26711  14.854  18.142  13.981  0.0907  0.1648  0.2830
 9188W        W26712   1.024  12.137   0.585  0.2619  0.0026  0.3663
 9189W        W26713  13.419  12.252   4.378 -0.2616  0.0247 -0.1692
 9190W        W26714  16.792  12.783   4.743 -0.0043 -0.1531 -0.2731
 9191W        W26715   6.932   8.688   1.675  0.2412  0.0063 -0.3620
 9192W        W26716   8.528  12.492  10.394  0.1449 -0.2157  0.2199
 9193W        W26717   5.940   6.843  14.760  0.2539 -0.0363 -0.0439
 9194W        W26718   8.194  16.917  14.035  0.1013  0.0009 -0.0126
 9195W        W26719   2.334  10.963  11.062  0.2736  0.0523 -0.2119
 9196W        W26720   0.607  15.784   2.047  0.1526 -0.0495 -0.4665
 9197W        W26721   0.905   6.225  14.124 -0.0772  0.2664 -0.0859
 9198W        W26722  15.589   7.731   3.729 -0.0566  0.1941  0.1864
 9199W        W26723  17.153  15.975  13.460 -0.1870 -0.1978  0.0473
 9200W        W26724   5.205  17.345   1.105 -0.0314  0.0398 -0.1991
 9201W        W26725   7.044  15.398  13.393 -0.2247  0.1037 -0.1500
 9202W        W26726   9.375  16.701   2.401  0.1681  0.0547  0.3837
 9203W        W26727  11.188   0.006  12.033  0.3844 -0.1685  0.0240
 9204W        W26728   1.002   3.126   2.778 -0.1309 -0.1669  0.1591
 9205W        W26729  15.547   4.072  10.796  0.3785  0.0577  0.2035
 9206W        W26730  15.719   4.413   4.545 -0.0675  0.0521 -0.1640
 9207W        W26731   6.177  16.810  14.836 -0.3052 -0.4982 -0.0929
 9208W        W26732   2.229   2.652  11.293  0.1629  0.1660 -0.0605
 9209W        W26733   5.518   8.702   1.173  0.2190 -0.3041  0.3799
 9210W        W26734  17.508   4.438  11.406  0.0238  0.0386 -0.2154
 9211W        W26735  13.992   1.472  15.709  0.0165  0.0264  0.2000
 9212W        W26736   9.222   1.169   2.162  0.0135  0.0862 -0.1212
 9213W        W26737   4.901   8.562  11.098 -0.4130  0.2610  0.0240
 9214W        W26738   2.237  10.092   5.779  0.2254  0.5072 -0.0767
 9215W        W26739   2.435  11.289  15.077  0.1205  0.0405 -0.1396
 9216W        W26740   2.394   0.563  11.432 -0.2601  0.1832 -0.0012
 9217W        W26741  10.716   5.161  14.360  0.5658  0.0804 -0.1678
 9218W        W26742   4.130   0.636  13.742  0.2780  0.0612 -0.1689
 9219W        W26743   8.185  12.657   0.323  0.1119  0.0990  0.0957
 9220W        W26744   3.447  15.049   1.269  0.1101 -0.1254 -0.1197
 9221W        W26745   1.107  13.672   2.617 -0.0287  0.2152  0.0774
 9222W        W26746  16.421  16.143  11.862 -0.0365 -0.0768 -0.0130
 9223W        W26747  14.181   7.822  11.731 -0.0351 -0.1223  0.0458
 9224W        W26748   9.767   2.563   0.153  0.3831  0.0158  0.1009
 9225W        W26749  10.019   5.444  13.201 -0.5913 -0.0044  0.0744
 9226W        W26750   1.847   8.495  11.725 -0.1689  0.0344  0.2519
 9227W        W26751  17.722   7.688   3.460  0.0129  0.2093  0.3672
 9228W        W26752  11.139   1.811   4.291  0.0732 -0.0118  0.0623
 9229W        W26753  12.540  11.943  15.171  0.1808 -0.1099 -0.0290
 9230W        W26754   3.894   6.500  13.249 -0.1664  0.0054 -0.1285
 9231W        W26755   3.261   7.732   4.584  0.0718  0.1392  0.1233
 9232W        W26756   4.682   6.900  14.996 -0.1635  0.0529 -0.0787
 9233W        W26757   9.156  10.304  12.931 -0.0672  0.1412  0.0281
 9234W        W26758   9.751  12.815   3.547 -0.0104 -0.0895 -0.3500
 9235W        W26759   9.694  11.661  14.001  0.0654  0.2333  0.2807
 9236W        W26760   1.268  17.540  12.689 -0.0704  0.0715  0.1715
 9237W        W26761   2.139   5.483  12.436 -0.3105  0.1773  0.2999
 9238W        W26762  12.783   8.774  13.226  0.0154  0.0872  0.1522
 9239W        W26763  17.085   0.717   4.262  0.0161 -0.1974 -0.0988
 9240W        W26764   3.043   2.818   3.993  0.0277  0.1220  0.2437
 9241W        W26765   9.129  16.825  15.118  0.1841  0.4254 -0.2706
 9242W        W26766   7.317   8.515   2.622  0.3495  0.2541 -0.1235
 9243W        W26767  11.858   7.989   3.251  0.0952  0.1921 -0.0440
 9244W        W26768  18.007   8.229   2.052  0.0491  0.2895 -0.1782
 9245W        W26769   7.574  11.055  15.749  0.0054  0.0531  0.0300
 9246W        W26770  11.564  15.699  14.328  0.2111  0.3411 -0.0136
 9247W        W26771   2.105  13.944  14.112  0.0362 -0.3504 -0.2455
 9248W        W26772  17.386   0.103  12.006 -0.1778  0.2619 -0.0315
 9249W        W26773  16.513   3.196  15.813  0.2005 -0.0090 -0.3164
 9250W        W26774  13.412  12.996   3.211 -0.3468  0.3400 -0.3395
 9251W        W26775  12.679   6.057   0.435 -0.0709  0.2656  0.1099
 9252W        W26776  10.603  17.205   1.239 -0.2490 -0.0207 -0.2229
 9253W        W26777   1.408  11.156  15.409  0.0349 -0.3822  0.0278
 9254W        W26778   2.178   0.095   2.530  0.2254 -0.1631  0.1447
 9255W        W26779   6.550  12.057  12.435 -0.4179  0.1040  0.1991
 9256W        W26780  16.330  18.162  15.441  0.1620 -0.0362 -0.0336
 9257W        W26781   1.757  13.394  11.955 -0.0799  0.2907 -0.0046
 9258W        W26782  16.250  17.783  11.077 -0.2235 -0.1906  0.0915
 9259W        W26783  15.832   9.288   3.121 -0.3190  0.1455 -0.0310
 9260W        W26784   5.098   9.216  15.101 -0.1296  0.0623  0.1469
 9261W        W26785   7.730   2.085  11.179  0.0134  0.0440  0.2514
 9262W        W26786   8.851  10.880  11.462  0.0205 -0.0013 -0.1136
 9263W        W26787   9.085  15.066   4.247  0.0963  0.3259 -0.1939
 9264W        W26788  14.978  17.653   4.961 -0.1428  0.0094  0.2255
 9265W        W26789  12.278   3.223  15.213  0.0732 -0.4286  0.0830
 9266W        W26790   5.682   8.327  13.306 -0.3631  0.0055 -0.3920
 9267W        W26791   6.143  14.291   2.443 -0.0142  0.3322 -0.0009
 9268W        W26792   2.105   6.860  13.205  0.2051 -0.1856 -0.4673
 9269W        W26793   2.636  13.663   3.566  0.0675  0.0432 -0.0900
 9270W        W26794  18.010   3.756  14.245 -0.0318 -0.1731 -0.1460
 9271W        W26795  11.537  17.228   1.755  0.0717 -0.0896  0.1486
 9272W        W26796   4.136   8.382  13.738  0.2461  0.3492  0.0786
 9273W        W26797  11.688  18.218   1.362  0.1705  0.2600  0.1246
 9274W        W26798   4.570   4.996   3.847  0.0255 -0.2116 -0.1552
 9275W        W26799   8.363   6.193  15.416 -0.1930 -0.2342 -0.1424
 9276W        W26800   7.678  16.893   0.113 -0.1894 -0.1358 -0.2232
 9277W        W26801   9.541   5.795   1.531 -0.1408  0.0684 -0.3956
 9278W        W26802   9.011   8.045   1.445  0.1579 -0.0992  0.2466
 9279W        W26803   0.077   7.780  14.763  0.0870 -0.1180  0.1563
 9280W        W26804   5.291  17.178  15.184  0.0457 -0.0259 -0.2918
 9281W        W26805   1.150   1.990  12.615  0.1792  0.1026 -0.2107
 9282W        W26806   4.983  15.280  10.551  0.0220  0.1375 -0.1887
 9283W        W26807   0.982   1.222  14.403  0.3572 -0.4600  0.1936
 9284W        W26808   5.167  12.572   1.886  0.2383 -0.1847 -0.1338
 9285W        W26809  10.672   7.297   0.270  0.1849  0.0998 -0.0615
 9286W        W26810  14.991  13.621  14.098  0.2144  0.1030 -0.1958
 9287W        W26811  13.449   7.530  13.100  0.0477 -0.0382  0.3196
 9288W        W26812  13.738   6.571  15.520 -0.0782  0.0759 -0.0790
 9289W        W26813  15.025   5.937   1.258  0.1327  0.1886  0.0972
 9290W        W26814   8.814   2.387  15.274  0.2890  0.2870  0.0682
 9291W        W26815   1.490  16.253  13.621 -0.0760  0.1302 -0.3395
 9292W        W26816  16.900  13.006   0.769 -0.2273  0.0560 -0.4437
 9293W        W26817   9.400  14.969   4.693 -0.0865 -0.0695  0.0890
 9294W        W26818   0.040   3.501  14.134 -0.1439 -0.0210 -0.1959
 9295W        W26819   7.817   1.317  15.375  0.4869  0.1110 -0.0102
 9296W        W26820  11.343   7.782   2.332  0.2571  0.2109  0.0188
 9297W        W26821   3.586   9.485   4.204 -0.2321  0.1110  0.1639
 9298W        W26822   4.239   5.067  11.575 -0.1872 -0.1139  0.0099
 9299W        W26823   2.168   0.573   2.392  0.1135  0.1025 -0.1906
 9300W        W26824  14.723  13.969  14.326 -0.0440  0.3579 -0.2694
 9301W        W26825   0.649  11.550  11.760  0.2151 -0.1492  0.3111
 9302W        W26826   4.626  17.476   2.975  0.1455  0.0236  0.0815
 9303W        W26827   2.432   0.839   4.840 -0.2493  0.1095 -0.0430
 9304W        W26828  13.122   6.611   2.474  0.2087 -0.0549  0.0352
 9305W        W26829   5.176  15.494   0.974 -0.0730  0.4261 -0.3143
 9306W        W26830  17.620  15.671  15.838 -0.2676  0.3297 -0.1444
 9307W        W26831   0.919  14.386  12.233  0.1523 -0.1197 -0.2089
 9308W        W26832  15.121   1.314   3.032  0.0209 -0.0122  0.0874
 9309W        W26833   5.424   0.429  14.336  0.1204 -0.0936  0.0055
 9310W        W26834   8.771  16.133  14.763  0.0488 -0.4451 -0.0417
 9311W        W26835  18.385   8.041   0.999 -0.0209  0.0046 -0.0371
 9312W        W26836   8.475  10.976  13.906 -0.0062  0.1367 -0.2480
 9313W        W26837   6.566   0.049  13.902 -0.0837  0.0096  0.0393
 9314W        W26838  18.344   5.610   2.558 -0.3024 -0.0516  0.0307
 9315W        W26839   5.925   8.803  13.401 -0.0339  0.0472  0.2762
 9316W        W26840   3.592   8.767  14.807  0.2454 -0.1246 -0.1002
 9317W        W26841   8.219  12.842   4.305 -0.1730 -0.4632 -0.2300
 9318W        W26842   0.424  17.319   2.406  0.0643  0.2353  0.1207
 9319W        W26843   2.357   5.207  13.519 -0.0703  0.0719 -0.2702
 9320W        W26844   5.648  11.356  15.148  0.1137 -0.0838  0.5638
 9321W        W26845  16.026   5.645   3.388 -0.0601 -0.0454  0.2097
 9322W        W26846  16.811   6.464  11.929 -0.4825  0.1440 -0.0692
 9323W        W26847  13.266   4.042  14.214  0.1892 -0.2186 -0.3340
 9324W        W26848   1.416   1.181   2.287  0.0515  0.0871  0.0332
 9325W        W26849  15.073  12.255  13.800 -0.2435 -0.0819  0.1391
 9326W        W26850  14.202   4.616  11.699 -0.1513  0.2946  0.1212
 9327W        W26851  11.086  12.571   0.150 -0.3940 -0.0569  0.1316
 9328W        W26852  11.671   4.518  10.470 -0.1337 -0.3358 -0.1739
 9329W        W26853  15.128  17.254   3.382  0.2513 -0.1095  0.3578
 9330W        W26854   9.156  15.259   1.120 -0.0176 -0.0560  0.1030
 9331W        W26855   6.269   4.504   2.414 -0.2094 -0.1519 -0.0499
 9332W        W26856  15.779  12.681   0.826 -0.2713 -0.2985 -0.2192
 9333W        W26857   1.836   6.411   2.647  0.1995  0.0251  0.1829
 9334W        W26858   4.986  18.234  11.018  0.2480 -0.0694 -0.1989
 9335W        W26859  13.275  14.435  15.773  0.3226  0.1210  0.1866
 9336W        W26860  10.818   8.075   5.168  0.2383 -0.0428  0.1737
 9337W        W26861   7.776   3.870  10.739 -0.3446  0.1544 -0.2548
 9338W        W26862  11.242   3.064   2.554  0.3028  0.2170 -0.1171
 9339W        W26863  12.105  11.116  13.014 -0.1067  0.0444 -0.1616
 9340W        W26864  15.856   5.864   0.205  0.0223  0.2630  0.1393
 9341W        W26865  11.653   8.351  13.965 -0.3526 -0.1514 -0.0822
 9342W        W26866  14.472  17.639  13.894 -0.1838  0.0892 -0.3710
 9343W        W26867  14.513  10.502  12.924 -0.1534 -0.3728 -0.0483
 9344W        W26868   6.685  16.544  10.884 -0.0371 -0.2776  0.1517
 9345W        W26869  16.666   1.047  12.175  0.1295 -0.0414  0.3017
 9346W        W26870  15.597   3.278   1.507 -0.2619  0.0336  0.4459
 9347W        W26871   0.396   8.394  13.626 -0.4030  0.1336 -0.6579
 9348W        W26872  16.819   7.913   2.001 -0.3173 -0.0902  0.2537
 9349W        W26873  11.201   1.080  13.583 -0.1354 -0.1723  0.1358
 9350W        W26874   4.914   8.211   3.275  0.1137 -0.0562  0.0009
 9351W        W26875   5.419  16.287  12.895  0.2071  0.0014  0.1902
 9352W        W26876   7.892  15.503  14.619  0.0313  0.2624  0.1603
 9353W        W26877   0.930   6.695   2.239 -0.1174  0.1123  0.2217
 9354W        W26878   1.577   8.445   2.561  0.1197  0.1643 -0.0143
 9355W        W26879  16.752  13.706   5.574  0.0040  0.0785 -0.2505
 9356W        W26880  12.070  12.400   1.883  0.0476 -0.3011 -0.0446
 9357W        W26881  17.643   9.291   2.610 -0.1794 -0.1871 -0.0809
 9358W        W26882  14.157   6.699  12.993  0.0331 -0.1924  0.1177
 9359W        W26883  15.574  11.722   1.727  0.2043 -0.2346  0.0367
 9360W        W26884   0.365  12.328  11.588  0.1915 -0.0466  0.2471
 9361W        W26885   0.190   0.559  12.953  0.1094  0.0869  0.2377
 9362W        W26886   2.245   5.224   2.689 -0.1233  0.0238 -0.0182
 9363W        W26887   6.614  11.852  15.284  0.1176  0.1433 -0.1925
 9364W        W26888   5.637  15.971  11.452 -0.1451  0.1763  0.0101
 9365W        W26889  11.848  10.476   2.886  0.3345  0.0986  0.0382
 9366W        W26890   6.922   9.421   2.143 -0.1325  0.1734  0.0884
 9367W        W26891   1.832   1.764  11.865  0.0088  0.0046  0.1528
 9368W        W26892  14.661  10.843   3.580  0.0632  0.3887  0.1047
 9369W        W26893  16.497   0.057   2.640 -0.3335  0.0688  0.0476
 9370W        W26894  15.054  12.555  11.484  0.2855 -0.1083 -0.0785
 9371W        W26895  12.650  13.747   2.105  0.3299 -0.1261  0.1158
 9372W        W26896   3.768   0.171  10.295 -0.1217 -0.1818  0.2440
 9373W        W26897   4.391   8.705  11.188  0.0709  0.0159 -0.0516
 9374W        W26898  14.267   0.416  11.422 -0.0068 -0.0600  0.1048
 9375W        W26899  16.902  11.877   4.197  0.0635  0.2139  0.2727
 9376W        W26900  16.392   2.799   0.311 -0.0132 -0.1311 -0.2960
 9377W        W26901  10.804   5.909   4.485 -0.2429  0.2025 -0.4208
 9378W        W26902  18.310  16.064   4.497  0.1504 -0.0777  0.0292
 9379W        W26903   6.569   2.381   2.403 -0.1661 -0.1678 -0.2785
 9380W        W26904   6.329   7.675   2.501  0.0759 -0.1164 -0.1470
 9381W        W26905   9.411  11.409  15.434  0.1586  0.0059  0.2315
 9382W        W26906   0.270   9.317   3.769  0.2688 -0.0325  0.0449
 9383W        W26907  14.181   3.945  13.989  0.3704 -0.0926 -0.1727
 9384W        W26908  12.942   9.205   3.283  0.1504 -0.1528 -0.1045
 9385W        W26909  10.168   1.739   3.494 -0.1250 -0.1328  0.1714
 9386W        W26910  14.224  10.554  13.718 -0.1137 -0.0684 -0.0488
 9387W        W26911  17.132  12.740  12.534  0.0268  0.0389 -0.2536
 9388W        W26912  14.580  15.405  15.695  0.0424 -0.2216 -0.2136
 9389W        W26913  17.442  11.943   5.741 -0.0627 -0.0054 -0.1362
 9390W        W26914   8.147  13.448   0.805  0.2497  0.0937  0.1181
 9391W        W26915   3.817  17.615  12.992  0.2781  0.2090 -0.1259
 9392W        W26916  15.419   9.669   0.546 -0.2150 -0.2185  0.1779
 9393W        W26917   0.585   3.483   4.597  0.1424 -0.1054  0.3622
 9394W        W26918   6.808   6.273   3.121  0.3585 -0.0614 -0.2146
 9395W        W26919  12.811   1.164  13.558 -0.2735 -0.0756  0.2604
 9396W        W26920   7.057   6.710   4.313 -0.0190  0.1602 -0.0562
 9397W        W26921   4.531   9.486  14.915 -0.0395 -0.1934  0.0786
 9398W        W26922  10.960   6.551   1.315  0.1729 -0.0761 -0.1772
 9399W        W26923  14.955  14.299   1.891 -0.0025 -0.0581 -0.1162
 9400W        W26924  17.273   1.803  14.065  0.1453 -0.0655  0.0441
 9401W        W26925   9.465   4.995  12.439 -0.1113 -0.5180 -0.0112
 9402W        W26926   4.996   6.435  13.599 -0.2986 -0.0510 -0.1239
 9403W        W26927   6.365   1.808   0.800  0.2339 -0.2947 -0.0233
 9404W        W26928  11.875   8.935  13.217  0.0719 -0.1554  0.3007
 9405W        W26929   9.889   7.118   1.379  0.1325  0.0317 -0.0831
 9406W        W26930  12.465  18.298   3.399  0.1706 -0.2779  0.0832
 9407W        W26931  16.408  10.511  11.557 -0.1127 -0.0581 -0.1511
 9408W        W26932  16.597   6.468  15.692  0.0137  0.4131 -0.0411
 9409W        W26933   0.057   1.840   1.981 -0.3262  0.0374  0.1916
 9410W        W26934   4.371  13.551  11.283 -0.1906  0.2526 -0.1700
 9411W        W26935  16.535   5.960  13.941 -0.0639 -0.3842  0.0471
 9412W        W26936   5.766  13.664   3.636  0.2202 -0.1423 -0.1226
 9413W        W26937  12.984  11.487   4.619 -0.1954  0.1940 -0.0019
 9414W        W26938  17.651  12.813  12.753 -0.3943  0.1774  0.3760
 9415W        W26939   1.855   3.890  11.337 -0.0195 -0.0523  0.3698
 9416W        W26940  17.895   6.338  12.326 -0.0668 -0.2556  0.1452
 9417W        W26941  12.093  14.269  13.752 -0.2449  0.2761  0.0649
 9418W        W26942   0.688  10.088   0.471 -0.0938 -0.4234 -0.0650
 9419W        W26943  16.437  14.554   0.941  0.1124 -0.0218 -0.2050
 9420W        W26944  14.298  14.487  12.904 -0.2701 -0.3562  0.0026
 9421W        W26945  14.542  16.674   2.302 -0.0122 -0.0642  0.2488
 9422W        W26946  16.639  14.679   3.439 -0.0241  0.0463 -0.0399
 9423W        W26947   1.529   2.652   4.031  0.1571 -0.0757 -0.2369
 9424W        W26948   8.291  14.691   1.813 -0.0473 -0.2521 -0.1813
 9425W        W26949   8.900   2.643   2.353 -0.0402 -0.1379  0.0268
 9426W        W26950   5.658   5.393  12.660  0.2103 -0.1611  0.0952
 9427W        W26951   3.129  14.300   3.187 -0.0520 -0.0406 -0.3707
 9428W        W26952  16.522   0.909  14.901 -0.0901  0.2442 -0.1002
 9429W        W26953  16.414  10.799   1.773 -0.1583 -0.1205 -0.0795
 9430W        W26954  13.496   3.588  13.976  0.0307  0.2826 -0.2028
 9431W        W26955  17.196  17.046  10.146  0.3226 -0.1807  0.1022
 9432W        W26956  12.949  15.658   2.569  0.2568  0.4756  0.2000
 9433W        W26957   8.921   2.875   3.365  0.0713  0.1479 -0.2874
 9434W        W26958  16.338  14.151   4.389  0.2585 -0.1700  0.0536
 9435W        W26959  16.656  14.257  11.365 -0.0181  0.0888  0.3320
 9436W        W26960   2.216   8.363   2.156 -0.2339 -0.1478 -0.1359
 9437W        W26961  14.933  13.104   6.124 -0.0736 -0.0480  0.2923
 9438W        W26962  16.208   2.257   5.068 -0.1171  0.2711  0.2148
 9439W        W26963  11.131   4.097   2.607  0.1282  0.0178  0.0504
 9440W        W26964  12.582  13.813  15.176 -0.0700  0.1082  0.0916
 9441W        W26965   2.655  16.393   2.832  0.0153  0.1547  0.1171
 9442W        W26966  10.511   2.488  12.874 -0.1766 -0.1457 -0.0909
 9443W        W26967   4.578  11.394   0.063  0.2377  0.2458 -0.1906
 9444W        W26968   5.004  10.500   2.838 -0.0951  0.0545 -0.0066
 9445W        W26969  12.407  17.252   0.015 -0.3415 -0.1190 -0.2724
 9446W        W26970   8.635   6.417   1.923 -0.1734  0.1477 -0.2016
 9447W        W26971   0.382   1.678  13.838 -0.1012  0.0073 -0.0046
 9448W        W26972  14.158   4.264   1.134  0.0026 -0.1278  0.0001
 9449W        W26973  10.137  16.122  15.178  0.0083 -0.0644  0.1797
 9450W        W26974   2.558   9.918  11.862 -0.2984 -0.0815  0.3385
 9451W        W26975  15.020   2.752  13.938  0.1035 -0.0822 -0.0280
 9452W        W26976   7.276   0.225   4.726 -0.1090  0.1865  0.1920
 9453W        W26977   0.194  15.802  14.768  0.2884 -0.4620 -0.0612
 9454W        W26978  12.683   4.062   1.769 -0.4277  0.1114  0.0205
 9455W        W26979   5.142  13.224  11.303  0.1494  0.2187  0.2578
 9456W        W26980  11.616  13.440   2.275  0.5018 -0.4269 -0.2729
 9457W        W26981  12.005  12.748   1.195  0.0715  0.0453 -0.1215
 9458W        W26982   9.202   0.306   1.720 -0.1028  0.1610 -0.0117
 9459W        W26983   1.419  14.720   4.910 -0.2555 -0.0079 -0.0524
 9460W        W26984   9.598  12.250  12.879  0.0834 -0.2114 -0.3201
 9461W        W26985   6.309   0.994  14.599  0.0673 -0.0994 -0.0224
 9462W        W26986   1.011  12.988  10.782  0.1491 -0.0555  0.2269
 9463W        W26987  14.094  10.911   0.866  0.0563 -0.0337 -0.0602
 9464W        W26988   8.415   9.221  10.663  0.3891 -0.0656 -0.0494
 9465W        W26989   2.100  16.480   1.299 -0.2738 -0.0112  0.2261
 9466W        W26990  13.637   2.498  12.385 -0.1133 -0.1224 -0.4144
 9467W        W26991   6.235   6.973   0.780 -0.2482  0.2247 -0.0489
 9468W        W26992   9.796   9.580  15.148  0.2716  0.3627  0.2150
 9469W        W26993   9.503  17.630  12.246  0.2780  0.1590 -0.0130
 9470W        W26994   4.824  17.388   0.006  0.1787 -0.0242  0.0612
 9471W        W26995   7.330   2.515  10.880  0.0585  0.2524  0.0622
 9472W        W26996   2.289  10.369  14.598 -0.1976  0.1999 -0.1866
 9473W        W26997  13.413  12.784   4.149 -0.0291  0.0698  0.1737
 9474W        W26998   9.021   3.907   3.595  0.2957  0.1860 -0.0011
 9475W        W26999  14.567  15.113   1.702 -0.0154  0.1016 -0.0581
 9476W        W27000   3.695   8.450  13.507 -0.0313 -0.0909  0.3974
 9477W        W27001   7.755  12.769  15.404 -0.2746  0.2223 -0.1121
 9478W        W27002  10.514  10.311   0.691 -0.2113 -0.0140 -0.1331
 9479W        W27003   4.085   1.823  14.360  0.1417  0.3148 -0.2751
 9480W        W27004  12.328  15.901   1.689  0.2371 -0.0577 -0.3007
 9481W        W27005  17.118  18.138  14.889 -0.0214  0.1790  0.0663
 9482W        W27006   0.292  16.111  11.814  0.6288  0.0939 -0.0888
 9483W        W27007   6.800  15.636   2.419  0.0820 -0.0123 -0.1889
 9484W        W27008   8.099   8.310  11.802 -0.3135 -0.0595  0.2941
 9485W        W27009   0.924  13.006   1.695 -0.0727 -0.5474 -0.0703
 9486W        W27010   4.709  10.783  13.499  0.5080 -0.5356 -0.0413
 9487W        W27011  16.348  11.935   4.911 -0.1885  0.1350  0.3779
 9488W        W27012   5.848   9.861  11.301 -0.3963 -0.2232  0.1069
 9489W        W27013  13.486   7.365   3.881  0.2168  0.0120  0.0052
 9490W        W27014  16.090   1.896  14.011  0.4261 -0.1387  0.2170
 9491W        W27015  16.712   2.563  13.907 -0.1283 -0.1106  0.0599
 9492W        W27016   6.819   4.285  14.010 -0.1231 -0.1201  0.1541
 9493W        W27017   7.152  17.685   2.907  0.0191 -0.0003 -0.1833
 9494W        W27018   5.251   3.580  14.108 -0.0206  0.1714 -0.2796
 9495W        W27019  14.876   6.730   4.510  0.1147 -0.1562  0.1643
 9496W        W27020  17.057  14.019  11.109  0.2687  0.1533 -0.1083
 9497W        W27021   7.220  13.057  13.034  0.2107 -0.0314 -0.3717
 9498W        W27022  14.757   7.103  11.770  0.2105  0.1102  0.2016
 9499W        W27023  18.123  11.824  15.248  0.0712  0.0013 -0.0261
 9500W        W27024   8.745   3.132   2.441  0.0651  0.2603 -0.0984
 9501W        W27025   6.825   8.912  11.993  0.0893 -0.0406 -0.0217
 9502W        W27026   1.010   7.047  10.774  0.1260  0.1725 -0.5764
 9503W        W27027   1.334   0.332  13.299  0.0383  0.0032  0.0440
 9504W        W27028   6.272   6.092  12.607  0.2515  0.0273  0.0319
 9505W        W27029   6.298   3.150  12.251 -0.3490  0.0733  0.0824
 9506W        W27030  15.781   0.580  15.150 -0.0007  0.1363  0.0226
 9507W        W27031   0.479   8.506   4.333 -0.2270 -0.1060 -0.1691
 9508W        W27032   0.199   0.552   3.872 -0.2100  0.2959  0.0594
 9509W        W27033  14.614   3.994   3.100 -0.2354 -0.1461  0.0421
 9510W        W27034   7.785   6.012   1.382  0.0274 -0.0988 -0.4893
 9511W        W27035   2.833   3.411   3.532 -0.2176 -0.3307  0.2144
 9512W        W27036   5.737  11.819  11.599  0.2803 -0.3102  0.3432
 9513W        W27037   5.592   0.046   3.025 -0.0920 -0.0441  0.0312
 9514W        W27038   7.150  17.994  15.828  0.0508  0.2437 -0.0061
 9515W        W27039  10.959   8.628   0.363 -0.0432  0.1010 -0.3063
 9516W        W27040  14.806   6.741  14.115  0.0681  0.1004 -0.1574
 9517W        W27041   3.135   2.053   1.660  0.0243  0.0647 -0.1126
 9518W        W27042  14.670  16.949   3.112 -0.0845  0.3188  0.1996
 9519W        W27043  15.760  14.716   4.925 -0.1048 -0.2993  0.2309
 9520W        W27044   1.750   9.233   0.637  0.0185 -0.1220 -0.2182
 9521W        W27045   7.202  13.514  15.614  0.0658  0.1282 -0.0587
 9522W        W27046   1.672   7.923  15.037 -0.0995  0.0526 -0.0929
 9523W        W27047   4.009   4.580  12.075 -0.0131 -0.2474  0.2953
 9524W        W27048   8.219   8.643   9.863  0.1589 -0.1543 -0.1254
 9525W        W27049  14.348   0.282  15.717 -0.2128 -0.1679  0.0084
 9526W        W27050  15.810   2.003   3.518 -0.0837  0.1573 -0.3368
 9527W        W27051   7.180  13.703  15.145  0.2130 -0.1906 -0.1433
 9528W        W27052   9.389   6.059  11.889  0.1177  0.0708 -0.1208
 9529W        W27053   2.098  17.081  13.372 -0.0480 -0.1423  0.0130
 9530W        W27054   9.320   1.623   2.063 -0.0320 -0.0303 -0.1637
 9531W        W27055   6.001   3.626   4.100 -0.0465  0.2483  0.0076
 9532W        W27056  12.605  17.919   4.680 -0.4520  0.0197 -0.2696
 9533W        W27057  15.031  13.163  14.295  0.3205 -0.0840 -0.1356
 9534W        W27058  13.439   2.931  12.781  0.1497  0.0604 -0.0687
 9535W        W27059   4.533   9.022  15.064 -0.4751  0.0824  0.0973
 9536W        W27060  16.459   7.456   3.960  0.1109  0.1578  0.3023
 9537W        W27061   4.537  10.984  11.254 -0.0084 -0.1611  0.0685
 9538W        W27062  15.179   3.714  13.124  0.1368  0.3491  0.0711
 9539W        W27063   3.530  11.386  13.922  0.0326  0.2764  0.0829
 9540W        W27064   2.180   1.058   9.907  0.1411  0.1731  0.0517
 9541W        W27065   7.853   9.064  11.379  0.0991  0.0342 -0.0326
 9542W        W27066  13.915  11.519   4.798 -0.0334  0.2064  0.1792
 9543W        W27067   7.200  18.352   5.583  0.0792 -0.4153  0.1140
 9544W        W27068   1.342  11.038  11.910  0.0549  0.4873  0.2149
 9545W        W27069  14.247   0.135   1.693 -0.1144 -0.2806 -0.2647
 9546W        W27070  17.135  10.773  10.729 -0.0652 -0.1042 -0.0328
 9547W        W27071   9.967  17.027  13.965 -0.0069 -0.1055  0.1669
 9548W        W27072   6.580   9.619  12.697  0.1183 -0.1717 -0.3273
 9549W        W27073  12.388  16.139  12.412  0.0794  0.2208 -0.1515
 9550W        W27074  14.332   4.821   1.797  0.3760 -0.1990 -0.1528
 9551W        W27075   9.863   1.492   3.892 -0.1360  0.1705  0.0406
 9552W        W27076  17.295   8.417  12.727 -0.0419  0.1891  0.1007
 9553W        W27077  15.284  17.806  12.056  0.0172 -0.1678  0.0831
 9554W        W27078   8.820   5.801   1.986 -0.2936 -0.2733  0.0216
 9555W        W27079   2.045  16.227  14.557  0.4313 -0.0466 -0.1975
 9556W        W27080   0.098  13.057   0.594  0.1586  0.1069 -0.4610
 9557W        W27081  10.824   6.705  12.977  0.0802 -0.1927 -0.0304
 9558W        W27082  16.051   4.993  14.621 -0.2619  0.3699 -0.2442
 9559W        W27083  12.572  12.167  11.768 -0.2102 -0.1155  0.2789
 9560W        W27084   7.153   4.235  14.655 -0.1430  0.1987 -0.2511
 9561W        W27085  11.861   4.709  15.460 -0.1887 -0.1898  0.0437
 9562W        W27086  17.491  14.462  15.263 -0.0937  0.3329  0.2762
 9563W        W27087  13.688  14.328  12.198 -0.2219  0.1504  0.0500
 9564W        W27088  15.215  13.255  14.703 -0.0055 -0.1295 -0.0084
 9565W        W27089  17.152  17.157   2.419  0.0405  0.1972  0.0885
 9566W        W27090  13.329  14.399  12.990  0.1180 -0.1874  0.0024
 9567W        W27091  10.832   0.346  14.437  0.0468  0.0010  0.4931
 9568W        W27092   0.575  17.875   4.295  0.1833  0.1076 -0.0725
 9569W        W27093  11.728   5.880  10.264 -0.1043 -0.3524 -0.0653
 9570W        W27094  12.196  18.024   4.892  0.0367  0.0676 -0.0501
 9571W        W27095   3.041   3.552  12.146 -0.0574 -0.1914 -0.0575
 9572W        W27096  10.831   8.589   3.010 -0.2056 -0.0245  0.2513
 9573W        W27097   3.353   3.922   3.032  0.0731 -0.1014 -0.2236
 9574W        W27098  14.263   0.588   1.962  0.2374 -0.3057 -0.1124
 9575W        W27099  13.656   2.139   3.003  0.2442  0.1737 -0.0545
 9576W        W27100  10.388  16.904   3.855 -0.0864  0.2759  0.0696
 9577W        W27101   1.214  15.505   1.372  0.2072  0.0866 -0.1754
 9578W        W27102  16.099  17.014   2.700 -0.0709 -0.1160 -0.1945
 9579W        W27103  13.199  14.267   3.862  0.1656 -0.2642  0.2613
 9580W        W27104   8.331  14.116  12.097  0.2532 -0.2587  0.0551
 9581W        W27105  10.310   5.683  11.017 -0.0785 -0.1858 -0.1794
 9582W        W27106   2.087  16.108  13.096 -0.2406  0.0044  0.0365
 9583W        W27107  16.393  16.213  13.180 -0.1280 -0.1990  0.0733
 9584W        W27108   2.623   1.268   2.591  0.2786 -0.2939  0.1421
 9585W        W27109   4.242   8.995   4.149  0.3953  0.1187 -0.0145
 9586W        W27110  11.901  13.566   1.634 -0.0985 -0.0447  0.0780
 9587W        W27111   8.505  12.159  11.980 -0.0742 -0.0815 -0.3608
 9588W        W27112   3.731  12.084  14.924 -0.4341 -0.0845  0.0594
 9589W        W27113   5.939  15.646   4.379 -0.5753  0.1967  0.1866
 9590W        W27114  11.989  14.792  14.508 -0.0950  0.1706  0.1376
 9591W        W27115  11.622  11.258   0.009 -0.0709 -0.0286  0.2283
 9592W        W27116   7.680  16.589  12.687 -0.1035 -0.2581 -0.0447
 9593W        W27117   1.495   6.871   0.431  0.0257 -0.0117 -0.0300
 9594W        W27118   0.138   7.362   4.887  0.0379  0.1299  0.1463
 9595W        W27119  13.218  10.281  10.547  0.0187  0.4146 -0.1378
 9596W        W27120  13.833   2.204   4.774  0.3493  0.1415 -0.3894
 9597W        W27121   5.057   8.989   3.579 -0.1240  0.0741  0.1147
 9598W        W27122  17.089   1.496   1.445  0.0606  0.2259  0.0006
 9599W        W27123  18.293  15.426   2.014  0.2867 -0.1827  0.2562
 9600W        W27124  17.651   8.428   4.730 -0.1996 -0.1411 -0.0812
 9601W        W27125   6.141   6.093  11.219 -0.0560  0.0018  0.0233
 9602W        W27126   2.000   1.612   0.719 -0.0485 -0.2217  0.3267
 9603W        W27127  10.295  13.461   3.699  0.2667  0.3078 -0.0439
 9604W        W27128  10.820   8.618  11.414  0.2133 -0.2953  0.0476
 9605W        W27129  12.649   2.503   3.481 -0.2959  0.0999 -0.2706
 9606W        W27130   9.127  17.769  12.551  0.0273  0.0608 -0.1483
 9607W        W27131  16.302   1.923   0.937  0.0537 -0.1406  0.0759
 9608W        W27132  13.870   9.684  14.458  0.1686 -0.2091  0.0623
 9609W        W27133   3.025   3.940  13.126  0.0556  0.2965 -0.0040
 9610W        W27134  17.480   2.034   5.912  0.1964  0.1245 -0.1929
 9611W        W27135  14.278  12.493   4.856 -0.0715  0.0255  0.1540
 9612W        W27136  15.932   2.830  14.342 -0.1286 -0.0702 -0.1320
 9613W        W27137   3.870  12.875   1.446  0.2014 -0.2086 -0.1111
 9614W        W27138   3.804   3.986   0.549  0.3088  0.2228  0.0522
 9615W        W27139  14.867   3.223  15.540 -0.0390  0.0699  0.0769
 9616W        W27140   0.552   6.069   4.625 -0.1854 -0.1190 -0.0036
 9617W        W27141  10.372   5.674   2.162 -0.0080  0.1805  0.0033
 9618W        W27142   3.612  12.519   1.187 -0.1345  0.3309 -0.2503
 9619W        W27143   1.522  11.620  15.291  0.1841  0.0605 -0.1020
 9620W        W27144  16.339   4.272   1.303  0.1338 -0.0316  0.0485
 9621W        W27145  14.436   2.056  11.460  0.0270 -0.0280  0.1058
 9622W        W27146  17.869   2.735   0.195  0.2074  0.0395  0.0696
 9623W        W27147  15.298   4.426   0.085  0.1017  0.0215  0.3648
 9624W        W27148  11.039  10.055  12.261 -0.0976  0.3092 -0.2105
 9625W        W27149  10.775   3.476   4.337  0.0270 -0.2427  0.0401
 9626W        W27150   6.985  14.235   1.495 -0.0862  0.0483  0.3907
 9627W        W27151   9.881  14.929  13.223 -0.0676  0.2705  0.3843
 9628W        W27152   1.435   9.281  11.909 -0.0605 -0.2105  0.1650
 9629W        W27153   3.513  14.617   4.005 -0.1867 -0.0170 -0.0401
 9630W        W27154   6.092   6.795   5.445 -0.0973  0.0420 -0.2172
 9631W        W27155   2.771  13.363  12.458 -0.1149 -0.5871  0.2901
 9632W        W27156  16.631  17.069   2.423 -0.0804  0.1380 -0.0383
 9633W        W27157   8.146  16.418  12.102  0.2060 -0.0673 -0.0174
 9634W        W27158   5.935   1.428  13.738  0.0293  0.1239  0.2930
 9635W        W27159  16.848  13.774  13.857 -0.0958  0.3565  0.0577
 9636W        W27160  16.210   5.249   3.808 -0.0529  0.3951  0.1424
 9637W        W27161  13.816   4.934   2.773 -0.2089 -0.1400 -0.2307
 9638W        W27162   6.718  11.410   4.510 -0.1220  0.0674  0.3289
 9639W        W27163   5.672  11.174  13.757 -0.0144  0.0427 -0.2412
 9640W        W27164  10.112   2.155   1.751  0.2503 -0.1728 -0.1698
 9641W        W27165  15.671  16.471   4.390  0.1115  0.0756  0.0592
 9642W        W27166   0.433  11.259   3.260 -0.1213  0.0008  0.0236
 9643W        W27167  14.086   7.655  14.609 -0.2197 -0.2428 -0.0198
 9644W        W27168   9.032  15.760   2.905 -0.1200  0.0801 -0.4262
 9645W        W27169  16.336  17.341   0.007  0.0288 -0.1647  0.0340
 9646W        W27170  15.559  14.880   3.506 -0.1475  0.0006 -0.0983
 9647W        W27171   1.155  16.974   2.381 -0.1597 -0.3065  0.1688
 9648W        W27172   9.479   9.109   3.943  0.0843 -0.1812  0.1922
 9649W        W27173  15.106   9.479  12.299 -0.3310 -0.2075 -0.1912
 9650W        W27174  10.252  17.875   1.496  0.0187  0.0758 -0.0259
 9651W        W27175   6.294  13.739   3.950 -0.0508  0.1703 -0.0376
 9652W        W27176   8.924  16.588  14.711 -0.2349 -0.2629  0.0709
 9653W        W27177   0.500  12.564   3.245 -0.2965 -0.0486 -0.1443
 9654W        W27178   3.141   5.227   0.114 -0.1144 -0.0871 -0.0232
 9655W        W27179   7.562  16.010  11.815 -0.0146 -0.0324 -0.3729
 9656W        W27180   1.577   1.857  12.355 -0.0090 -0.3202  0.1640
 9657W        W27181   0.187   6.557  14.905 -0.3006  0.2340 -0.2266
 9658W        W27182  13.967  14.045   6.136 -0.1555 -0.0933 -0.1299
 9659W        W27183  12.182  15.942   2.791 -0.2318  0.1612  0.1732
 9660W        W27184   6.728   4.357   1.405 -0.0488  0.0606 -0.1609
 9661W        W27185  13.077   2.315   3.213 -0.0214 -0.0500 -0.3190
 9662W        W27186  12.585  12.529  14.081  0.5547 -0.0384  0.1369
 9663W        W27187   1.441  17.293   1.368  0.1383 -0.0264 -0.1679
 9664W        W27188  14.107   1.763  12.400 -0.1921 -0.0014  0.1978
 9665W        W27189  18.178  17.560   3.606  0.2043  0.0567 -0.2368
 9666W        W27190   2.396  13.738   4.607  0.2384  0.0223  0.0017
 9667W        W27191  12.005   2.197  15.833 -0.1362  0.0438 -0.2011
 9668W        W27192  16.705   1.621  10.934 -0.0847  0.2456 -0.1331
 9669W        W27193  10.836   4.184   1.745  0.0771 -0.3209  0.1165
 9670W        W27194   5.669   2.231  13.192 -0.1357 -0.3488 -0.0264
 9671W        W27195   7.118   0.447  10.499  0.0853  0.4270 -0.0431
 9672W        W27196   7.129   3.161  15.062 -0.0983  0.1155  0.0567
 9673W        W27197  13.469  15.066   4.620  0.0352 -0.3656  0.0987
 9674W        W27198   9.552  15.730   2.783  0.3675 -0.1545 -0.0594
 9675W        W27199  18.393   2.975  15.165 -0.0539  0.1302 -0.0470
 9676W        W27200  15.794   1.296   2.813 -0.0922  0.3562 -0.3124
 9677W        W27201  18.097   5.061   3.526  0.1366  0.0498  0.0708
 9678W        W27202   8.117   4.346   2.676  0.4017  0.0998 -0.0233
 9679W        W27203  11.168   7.753  14.353 -0.0739  0.1307 -0.2191
 9680W        W27204  16.432   7.527   0.056 -0.2746  0.1826 -0.1774
 9681W        W27205  18.202   7.375   2.192  0.0907 -0.1981  0.0229
 9682W        W27206  16.415  12.476   4.878  0.0627 -0.0013  0.0030
 9683W        W27207  10.527  16.942   3.370 -0.0664 -0.0662  0.3258
 9684W        W27208  18.278   1.920  12.086  0.1741 -0.1454 -0.0076
 9685W        W27209  16.660  10.433  10.804 -0.0015  0.2968  0.0381
 9686W        W27210  17.931  12.176   5.809  0.2420  0.1316  0.1351
 9687W        W27211   8.628  15.092   0.074  0.1423 -0.1920 -0.2974
 9688W        W27212   8.839  15.003   1.950  0.3901 -0.1338 -0.0647
 9689W        W27213  10.762   1.897   1.098 -0.0236  0.1250 -0.0965
 9690W        W27214   9.744   1.464   4.357  0.2404 -0.0617 -0.1891
 9691W        W27215  11.675   5.036   3.740  0.2376 -0.0568  0.4025
 9692W        W27216  13.920   6.646   0.120 -0.0408  0.1504 -0.0835
 9693W        W27217  12.989  14.400   1.467 -0.2408  0.0603 -0.1595
 9694W        W27218   6.899   7.512  11.687  0.3276 -0.2225 -0.0427
 9695W        W27219   0.036   8.436   3.511  0.4247 -0.0615  0.3064
 9696W        W27220   5.363   7.712  15.827 -0.0794  0.0534  0.2174
 9697W        W27221   3.411   7.388  15.144  0.2132  0.1861  0.0370
 9698W        W27222   3.339   1.034   5.024  0.1933 -0.0448  0.1654
 9699W        W27223  15.627  10.684   3.861  0.0447 -0.1537 -0.0870
 9700W        W27224   9.936   0.533  14.691  0.2818  0.0486 -0.1614
 9701W        W27225   2.358   0.536  13.078  0.1022 -0.3822  0.0684
 9702W        W27226   8.104  12.394  12.129 -0.4298  0.1847 -0.0879
 9703W        W27227   8.560   6.795  13.439 -0.2911 -0.0515 -0.2143
 9704W        W27228  11.744  10.554   0.934 -0.2003 -0.3574 -0.0094
 9705W        W27229   4.881  12.333  13.800 -0.2641 -0.0713  0.1471
 9706W        W27230   0.764   9.938  11.748 -0.1019  0.2607  0.0530
 9707W        W27231   3.656  17.785  13.863 -0.1191  0.1653 -0.1540
 9708W        W27232   8.667   1.857   1.480 -0.1711 -0.0264  0.0688
 9709W        W27233   0.272   4.773   3.214 -0.2541 -0.1828  0.3903
 9710W        W27234  11.000   8.222  11.167  0.0845  0.2200  0.1065
 9711W        W27235   9.059  11.217  15.741 -0.3678 -0.0690  0.1956
 9712W        W27236   9.430   0.514   0.123 -0.0913 -0.0332 -0.0366
 9713W        W27237  18.361   7.079  13.604  0.0911  0.4462 -0.2114
 9714W        W27238   0.401   6.237   3.867  0.0542 -0.0794 -0.0229
 9715W        W27239   8.673   6.140  12.283 -0.1328 -0.0463  0.2187
 9716W        W27240  11.821   1.893  11.829 -0.2124 -0.3157 -0.2355
 9717W        W27241  14.222   7.161  10.108  0.1225 -0.3623 -0.0461
 9718W        W27242  17.775   6.027  11.928  0.2504 -0.2567  0.1618
 9719W        W27243   4.726   8.263  14.920  0.0619 -0.0897  0.5099
 9720W        W27244  10.351  11.208  15.390  0.3038  0.0295 -0.0856
 9721W        W27245   0.931  12.312   0.135  0.5482 -0.0833 -0.2896
 9722W        W27246   4.371   4.492  12.877 -0.0436 -0.1120 -0.1898
 9723W        W27247   9.074  17.502   2.826 -0.2604 -0.1106  0.1819
 9724W        W27248  14.651  14.917   0.075 -0.1087 -0.0320 -0.2603
 9725W        W27249  15.492   7.267   2.103  0.0986  0.0751 -0.0518
 9726W        W27250   0.463  15.571  12.165  0.0312 -0.0886  0.5248
 9727W        W27251   9.077   7.774   4.433 -0.0048  0.0961  0.0710
 9728W        W27252  11.301   4.480   1.875 -0.1138  0.1232 -0.0093
 9729W        W27253  12.830  12.893  15.083 -0.0528  0.0448 -0.1203
 9730W        W27254  12.766  17.753  15.160  0.2531 -0.2232  0.0306
 9731W        W27255  14.839  14.180   5.029  0.2069 -0.0271 -0.0554
 9732W        W27256  11.360  13.569   1.645 -0.0292  0.0140 -0.0026
 9733W        W27257   9.416  12.815   3.170 -0.4445  0.0834  0.0245
 9734W        W27258   6.707  13.085   1.957  0.0347  0.1935  0.1393
 9735W        W27259   5.650   3.962   4.010  0.0530  0.1243 -0.2006
 9736W        W27260  18.002  13.174  15.098  0.1354  0.0940 -0.1871
 9737W        W27261   1.887   3.577  14.446  0.3949  0.4942  0.5719
 9738W        W27262   9.519   6.043  14.892  0.2561 -0.0018 -0.1186
 9739W        W27263   2.007  11.541   2.386 -0.1072  0.2602 -0.5110
 9740W        W27264  11.144   1.695   6.068  0.3246 -0.1890  0.0332
 9741W        W27265   1.448  17.156  12.343 -0.1104 -0.2315  0.3067
 9742W        W27266   6.196   4.809  11.834 -0.2560 -0.0067  0.0698
 9743W        W27267  13.903   6.738   3.447  0.0220  0.1524  0.1516
 9744W        W27268   8.298  14.570   0.938 -0.1886 -0.1049 -0.1432
 9745W        W27269  16.326  14.421  12.743  0.3606 -0.0289 -0.0025
 9746W        W27270   2.611   6.357   0.635  0.2470 -0.1856 -0.1132
 9747W        W27271   3.293  10.796   1.100 -0.0800 -0.1566  0.0262
 9748W        W27272   4.874   2.583   5.345  0.2545  0.0450  0.0906
 9749W        W27273  10.117   8.176   2.671  0.1616 -0.2014  0.0412
 9750W        W27274  11.709   6.109   1.473 -0.0764  0.0987 -0.2158
 9751W        W27275  16.478   6.507   3.088  0.0014  0.2653  0.0095
 9752W        W27276  13.593  11.818   5.187  0.1170 -0.0894 -0.3655
 9753W        W27277  11.669   7.826  14.214 -0.3484 -0.3799  0.1870
 9754W        W27278  14.516   1.503  13.053  0.0066 -0.2917 -0.0987
 9755W        W27279   6.250  14.264  12.054 -0.0075 -0.4190 -0.0330
 9756W        W27280   7.865   2.925   2.708  0.4481 -0.1551  0.0331
 9757W        W27281  13.873   5.183   3.294  0.3291  0.2727 -0.2211
 9758W        W27282   5.543  18.253  10.925  0.1402 -0.1210 -0.2321
 9759W        W27283   2.368  10.778  14.231 -0.1090  0.2240  0.0701
 9760W        W27284   0.782  12.435  11.932 -0.0924 -0.0718 -0.1136
 9761W        W27285  13.128  15.682  11.774 -0.1455 -0.2813 -0.0210
 9762W        W27286  10.878  15.613   1.722 -0.0380 -0.0122  0.0480
 9763W        W27287  17.534   9.302  11.407 -0.0979  0.0462  0.1653
 9764W        W27288  17.598   7.594  15.397 -0.0139 -0.3632  0.1191
 9765W        W27289   4.365  13.050  14.429  0.3153 -0.0909 -0.2115
 9766W        W27290   7.387   6.964  11.261  0.1043  0.0330  0.2369
 9767W        W27291   3.252  12.561  13.250 -0.2706  0.0064  0.0871
 9768W        W27292   1.880   9.607   3.310  0.0504  0.0917  0.1379
 9769W        W27293   4.958   2.099  12.810  0.1535  0.1365 -0.1492
 9770W        W27294   5.446   3.248  11.042 -0.0690  0.0625  0.2401
 9771W        W27295   4.260   0.282   0.606 -0.1515 -0.1807 -0.0346
 9772W        W27296  12.931  15.546   4.036 -0.0232 -0.0762 -0.1742
 9773W        W27297  11.875  13.686   4.446 -0.2348 -0.3359 -0.4059
 9774W        W27298  17.096  13.807  14.357  0.2776  0.0569 -0.1286
 9775W        W27299  13.294  11.588   2.803 -0.1423 -0.0688  0.0122
 9776W        W27300  17.292  11.490   2.583  0.0950 -0.3082 -0.2118
 9777W        W27301   4.304   8.629  13.271 -0.1612  0.1171 -0.1925
 9778W        W27302   4.215   9.986   0.071  0.0961 -0.1316  0.0600
 9779W        W27303   8.096   1.790  15.454 -0.2967  0.3179 -0.2997
 9780W        W27304   4.303   2.033  13.470  0.0588 -0.0404 -0.0259
 9781W        W27305  13.796   5.274  14.293  0.2219 -0.1722  0.0169
 9782W        W27306   6.761   7.557   0.093  0.0053 -0.3132 -0.0438
 9783W        W27307  15.306  18.025  13.547 -0.4383  0.0055 -0.1392
 9784W        W27308   2.831   5.373  13.066 -0.2494  0.0275 -0.3258
 9785W        W27309   0.670   6.800  15.236  0.1075 -0.0474  0.2291
 9786W        W27310   2.855  12.096  14.882  0.0318  0.1272 -0.1613
 9787W        W27311  12.214  16.692   4.164  0.1018 -0.0162 -0.0838
 9788W        W27312  16.755   2.169  15.223  0.0856  0.1354 -0.2326
 9789W        W27313   2.992  11.709  13.988 -0.1051 -0.1496 -0.0523
 9790W        W27314  10.521   4.262   3.837  0.1672  0.0131  0.1777
 9791W        W27315   8.512   1.987  15.127  0.1041  0.0977  0.3381
 9792W        W27316   7.196   5.984   2.186 -0.0509  0.2249  0.0241
 9793W        W27317   1.439   8.097  12.688 -0.1991 -0.2340 -0.0645
 9794W        W27318   1.862   5.487   1.417 -0.0545 -0.1488 -0.1892
 9795W        W27319   3.259  12.820   1.370 -0.2392 -0.1609  0.0924
 9796W        W27320   0.051   8.984   3.421  0.0833  0.0389  0.3148
 9797W        W27321  11.829  15.288   3.325  0.2534  0.0029  0.0569
 9798W        W27322   5.789   5.955  15.463 -0.0749 -0.1819  0.1484
 9799W        W27323   3.137   5.283  15.114 -0.1115 -0.1186 -0.1847
 9800W        W27324  10.072  15.784   4.003  0.1628  0.0495  0.0330
 9801W        W27325  12.722   4.455  12.007 -0.0672 -0.1586 -0.1015
 9802W        W27326  14.202   4.345  14.287 -0.1323 -0.1369 -0.1767
 9803W        W27327   1.558   6.771   1.037  0.1723  0.1016 -0.0318
 9804W        W27328  12.373   1.915   1.532  0.3178  0.0548 -0.3690
 9805W        W27329  13.021   5.016   3.666 -0.1556  0.1426 -0.1935
 9806W        W27330  10.761  11.486  13.799 -0.1799  0.0095  0.2837
 9807W        W27331  14.032  11.155  15.484  0.0664 -0.1559  0.0077
 9808W        W27332   4.887   4.172   5.729  0.1168 -0.1827 -0.2342
 9809W        W27333   5.541  16.160  13.426  0.0086 -0.2303 -0.1374
 9810W        W27334  16.402   0.271  15.565 -0.0185  0.0512 -0.0054
 9811W        W27335  11.524   4.278   2.360  0.1918  0.2911  0.1166
 9812W        W27336   4.623   8.654   3.229 -0.3841  0.2029 -0.0344
 9813W        W27337  11.876  17.041   2.854 -0.0710 -0.0744 -0.0692
 9814W        W27338   8.831  15.762  11.682  0.1234  0.1369 -0.2729
 9815W        W27339  11.731   8.551  11.433  0.1794 -0.0812  0.0735
 9816W        W27340   5.076  10.529  13.245  0.0102  0.0657  0.4687
 9817W        W27341   1.834  17.339  15.526 -0.0959  0.0639  0.1118
 9818W        W27342  10.426  11.299   4.193 -0.1238  0.0306 -0.0576
 9819W        W27343  17.241   7.143  14.615  0.1993  0.4078  0.4165
 9820W        W27344  11.076  16.549   2.269  0.0221  0.0927  0.0468
 9821W        W27345   9.847  11.420   0.480  0.0303  0.1298  0.1948
 9822W        W27346   3.804  15.997   2.859 -0.1536  0.1052  0.2414
 9823W        W27347   5.902  16.835   4.875 -0.1647 -0.0723  0.0693
 9824W        W27348   6.153   0.254  13.298  0.3018  0.2078 -0.0349
 9825W        W27349   3.684  14.397  12.874  0.1620 -0.0308 -0.0623
 9826W        W27350  10.833   0.707   2.629  0.0461  0.1649 -0.2220
 9827W        W27351   2.123  11.062   4.262 -0.2100  0.2176 -0.0265
 9828W        W27352  15.472  10.157   0.518  0.2407 -0.3310 -0.1112
 9829W        W27353  14.130  11.489  13.279 -0.0816 -0.0348 -0.2196
 9830W        W27354   2.242   6.736  15.623 -0.0692 -0.4733  0.0055
 9831W        W27355  12.714  10.409   2.338  0.0853  0.1648 -0.4840
 9832W        W27356  10.590  14.657  12.060  0.0549  0.0847 -0.1811
 9833W        W27357   6.623   2.183  13.299  0.0527 -0.2089 -0.1673
 9834W        W27358  15.233  15.006   3.131  0.0426 -0.1833 -0.0385
 9835W        W27359   5.817  11.299   1.619  0.1355  0.0501 -0.0354
 9836W        W27360   6.736   1.645   2.958  0.0228 -0.0662  0.2969
 9837W        W27361  16.234   9.216  11.752 -0.0298  0.0722 -0.0453
 9838W        W27362  14.499   9.154  12.965 -0.0529  0.0576  0.1578
 9839W        W27363  15.006   2.386   3.296 -0.1142  0.1418  0.2599
 9840W        W27364   6.447   0.826   3.557  0.2157  0.0513 -0.3584
 9841W        W27365  11.888   8.868   0.706 -0.2356 -0.0108 -0.0686
 9842W        W27366   0.056  17.903   4.134  0.2984 -0.2310 -0.1230
 9843W        W27367   5.711   8.741   2.655  0.1314  0.1761 -0.0999
 9844W        W27368   8.703  17.811  14.805 -0.0474 -0.3154  0.0238
 9845W        W27369  10.570   5.425   4.539  0.4260 -0.1474 -0.1292
 9846W        W27370   5.752  17.500  13.243  0.3521 -0.2171 -0.1228
 9847W        W27371   4.961  16.570  14.725  0.0761  0.3942 -0.1142
 9848W        W27372   3.702   3.336   4.201  0.2955  0.0960 -0.1541
 9849W        W27373   7.293  17.070  11.689 -0.0833 -0.0596 -0.1942
 9850W        W27374   6.922  16.489   1.235 -0.0851 -0.2242  0.0933
 9851W        W27375   5.776   9.078  14.433 -0.4362  0.1001  0.0219
 9852W        W27376  18.383   4.977  15.280 -0.0018  0.1242 -0.3357
 9853W        W27377  13.543  16.056  11.688  0.0532 -0.1095 -0.0226
 9854W        W27378   1.088  12.129   4.368  0.0781 -0.0521  0.1874
 9855W        W27379  15.285   9.924   1.458 -0.2387 -0.2653 -0.0109
 9856W        W27380   0.563   2.841  15.525 -0.0323  0.3175 -0.1760
 9857W        W27381  15.164   0.610  14.472  0.1422  0.1304  0.0292
 9858W        W27382   4.239   8.663   5.832  0.3573  0.2354  0.2027
 9859W        W27383   0.794   5.968  11.667 -0.1134  0.0803  0.1391
 9860W        W27384   6.746  13.530   4.465  0.0426 -0.2425 -0.1382
 9861W        W27385  15.022  15.839   2.605  0.0568 -0.4682  0.1863
 9862W        W27386   4.134   7.599  12.322 -0.1246 -0.1206  0.0265
 9863W        W27387  13.938   0.360  14.844  0.3043 -0.1218  0.1234
 9864W        W27388  10.492  17.043  11.831  0.0757  0.1354  0.1736
 9865W        W27389  11.329   6.342   1.716  0.3141  0.2936  0.3068
 9866W        W27390  15.035   3.124   4.379  0.2038 -0.0171  0.0645
 9867W        W27391  10.624   6.923  15.311  0.2452 -0.0903  0.0770
 9868W        W27392   7.063  11.565   0.538 -0.3460 -0.1546  0.0255
 9869W        W27393  13.020  15.220   0.212  0.1596 -0.0349 -0.0164
 9870W        W27394  13.645   6.207  12.555  0.3542 -0.1674 -0.1746
 9871W        W27395  11.750  15.756  13.670 -0.0855  0.0002  0.1627
 9872W        W27396  12.263   9.591  14.956 -0.0069 -0.1466 -0.1630
 9873W        W27397   7.972  12.124   4.138  0.1330 -0.3158  0.1759
 9874W        W27398   3.363  15.449  15.270  0.1255  0.1152  0.0434
 9875W        W27399  11.227  16.802   0.345 -0.2348  0.1358 -0.0483
 9876W        W27400   7.428   2.826   2.488 -0.2317 -0.4041  0.1482
 9877W        W27401   8.045  16.135   2.838  0.2831 -0.0607 -0.1580
 9878W        W27402   7.497  13.949   0.851 -0.0477 -0.0117  0.1182
 9879W        W27403   2.349   5.136  15.674 -0.2685  0.0596 -0.0137
 9880W        W27404   9.541  15.517   1.345 -0.1867  0.3171 -0.0806
 9881W        W27405   3.902   7.703   1.865  0.0512  0.0681  0.0215
 9882W        W27406  12.687   5.255  12.481  0.1935  0.0084  0.0824
 9883W        W27407  16.367   7.872  13.297 -0.0001 -0.1950 -0.3791
 9884W        W27408   5.748   1.984   1.389 -0.0745  0.1315  0.0767
 9885W        W27409  11.935   8.264   2.256 -0.0362  0.0277  0.3961
 9886W        W27410  17.580   2.794  11.877 -0.2215 -0.1786 -0.2072
 9887W        W27411   9.910  14.067  10.498  0.1046  0.0230  0.0869
 9888W        W27412  17.336   0.366   0.516 -0.1790  0.1586 -0.1462
 9889W        W27413   4.649   3.329   3.275  0.1468 -0.1905  0.1562
 9890W        W27414   6.804   0.711  12.585  0.0682 -0.0530  0.1555
 9891W        W27415   2.308  14.973  15.141  0.0438 -0.1701 -0.0461
 9892W        W27416   2.026  15.602   2.625  0.1815  0.0642  0.1129
 9893W        W27417   3.216   4.005  14.232 -0.0146  0.0227 -0.0883
 9894W        W27418  18.114   7.458   5.310 -0.2765  0.0557 -0.1927
 9895W        W27419  15.447   9.353  15.825  0.0723  0.2117 -0.1989
 9896W        W27420  13.313  10.471   5.219  0.1147 -0.0976  0.3502
 9897W        W27421   2.310  14.716  12.496  0.0717  0.2826  0.0628
 9898W        W27422   0.276   1.526  11.918 -0.0611  0.0209 -0.1633
 9899W        W27423  13.537   9.322  13.205 -0.1103  0.1212 -0.1346
 9900W        W27424   8.250  18.372  11.235  0.1740 -0.1265 -0.0594
 9901W        W27425  11.364  13.706   2.691  0.0159 -0.2008  0.2220
 9902W        W27426  11.030   2.209  14.487 -0.2796  0.0873 -0.0840
 9903W        W27427   1.510  12.522   1.465  0.1829 -0.2675  0.2436
 9904W        W27428  16.941  10.167   0.398  0.0974 -0.1313 -0.0922
 9905W        W27429   4.784   5.098  15.084  0.3215  0.1452  0.0548
 9906W        W27430  14.228  13.012  14.232 -0.2156 -0.0705  0.0863
 9907W        W27431  14.804   1.078  11.968  0.0303 -0.2198 -0.0702
 9908W        W27432   6.336   0.583   0.569  0.3223  0.1129 -0.0573
 9909W        W27433   7.283  14.254  13.492 -0.1142  0.2107  0.3675
 9910W        W27434  10.931   7.921  13.969  0.0112  0.1474  0.3051
 9911W        W27435  10.754  15.198   1.254  0.0147 -0.1395 -0.1325
 9912W        W27436  14.253  18.060  12.213  0.0658  0.1308  0.1344
 9913W        W27437  17.431  14.251  11.975  0.1992 -0.1821 -0.2029
 9914W        W27438  11.934  13.693  15.830 -0.1732  0.1463  0.2781
 9915W        W27439   5.535   6.667  15.038 -0.0555  0.1435  0.2963
 9916W        W27440   9.691  15.202  13.901  0.3828  0.5498  0.1215
 9917W        W27441   9.105  10.651   4.654  0.1336 -0.0487  0.1662
 9918W        W27442  13.990  14.452   2.314 -0.3278 -0.0656 -0.1307
 9919W        W27443  14.093   3.881   2.204 -0.1907  0.0764 -0.0417
 9920W        W27444   0.673  17.894   0.393 -0.0013 -0.0831  0.2614
 9921W        W27445   9.114  13.841  13.648 -0.1705 -0.1503  0.1256
 9922W        W27446  13.914   6.883  15.102  0.0489  0.2540  0.0078
 9923W        W27447   3.529   2.938   2.086 -0.0008  0.2117 -0.0296
 9924W        W27448   4.952   5.929   0.557  0.0295  0.0100 -0.1430
 9925W        W27449  16.532  10.893   4.392 -0.0389 -0.1228  0.0392
 9926W        W27450   5.064   1.343  13.986 -0.0867  0.0712 -0.1548
 9927W        W27451   2.859  16.228  15.773  0.0449  0.1963 -0.0218
 9928W        W27452   1.555  15.190   4.018  0.0313  0.0724 -0.2422
 9929W        W27453   1.710  15.039   0.125  0.0753  0.1203 -0.0565
 9930W        W27454  13.978   3.070   4.995  0.0263 -0.0772 -0.2808
 9931W        W27455  18.375  17.466   5.881 -0.1351  0.2555  0.0834
 9932W        W27456  16.829   3.713  11.160 -0.1912  0.2451 -0.3156
 9933W        W27457   9.940  10.503   4.006 -0.2162 -0.0005  0.0266
 9934W        W27458  15.663  12.803   2.942 -0.2540 -0.1172  0.0928
 9935W        W27459   6.208  18.326  10.445  0.2951  0.1340  0.1592
 9936W        W27460  14.818  14.617  14.372 -0.1459  0.0294  0.3644
 9937W        W27461   6.980   4.556  13.534  0.2352 -0.1680  0.1208
 9938W        W27462   8.179  10.520   0.530  0.0278 -0.0905 -0.1277
 9939W        W27463   4.011  17.688   2.085  0.0745 -0.0965  0.0605
 9940W        W27464   4.412  13.212  13.502  0.1733  0.0600  0.3048
 9941W        W27465   8.222   0.494   1.376 -0.1456 -0.1986 -0.3514
 9942W        W27466  14.162   6.623   3.876 -0.1117 -0.0721  0.0638
 9943W        W27467   8.382  15.994  13.894 -0.0536  0.2440 -0.2170
 9944W        W27468   7.290  11.485  13.472 -0.0235  0.0599  0.2221
 9945W        W27469  13.352   0.978  14.817 -0.1319  0.2715 -0.2548
 9946W        W27470   6.771  16.464  13.891 -0.2378 -0.0055  0.0957
 9947W        W27471  16.652  12.384   0.273 -0.0131 -0.0289  0.2232
 9948W        W27472  16.010   0.590  14.258 -0.1115 -0.0039 -0.2076
 9949W        W27473  10.333   1.227  12.095 -0.1719  0.0981  0.0671
 9950W        W27474   3.460  13.730   0.879  0.3701 -0.1561  0.2407
 9951W        W27475   4.158  11.855  11.730 -0.0888  0.0361 -0.0920
 9952W        W27476   7.273   4.385   1.896 -0.1960  0.0973  0.2223
 9953W        W27477   6.570  15.813  14.318  0.1649 -0.1974 -0.0306
 9954W        W27478   8.368  18.009  11.535 -0.0189 -0.6234  0.1057
 9955W        W27479   7.197   7.152   4.110 -0.1612  0.0173  0.1396
 9956W        W27480  12.663  10.553  13.927 -0.1540  0.1313  0.0060
 9957W        W27481  16.153   2.007   1.936 -0.2379 -0.2928  0.2344
 9958W        W27482   3.166   0.912  14.538 -0.4365 -0.0697 -0.1180
 9959W        W27483  16.668  16.447   3.308  0.0002  0.1004  0.0917
 9960W        W27484  14.532   4.979  11.595  0.0864 -0.0254 -0.1297
 9961W        W27485  13.664   3.192   1.808  0.0607 -0.3032  0.0216
 9962W        W27486  12.150  13.779   4.880 -0.0409  0.1801  0.0309
 9963W        W27487  12.221   4.493   5.014  0.0745 -0.7379  0.2063
 9964W        W27488   0.372   2.023  13.509 -0.0339  0.2580  0.0835
 9965W        W27489  12.300   0.908  11.873  0.1561  0.1703 -0.0346
 9966W        W27490   7.181   8.481  12.094  0.0837 -0.2492 -0.0600
 9967W        W27491  17.647  15.971  11.545 -0.3373  0.0858  0.2427
 9968W        W27492   9.020   9.504  12.220 -0.0090  0.3470 -0.1080
 9969W        W27493  13.972  12.302  15.172  0.2213 -0.0909  0.1482
 9970W        W27494   5.123  13.752   2.582  0.2216  0.0186 -0.1383
 9971W        W27495   0.144  16.139   5.326 -0.1446 -0.3006 -0.0936
 9972W        W27496  15.210   4.709   5.819 -0.1593  0.1007  0.2241
 9973W        W27497  10.146   1.445   3.063  0.0280  0.0007  0.2959
 9974W        W27498  13.483  12.740   2.785 -0.0879  0.1317 -0.0367
 9975W        W27499  16.260  10.748   0.920  0.0481  0.0334  0.1336
 9976W        W27500  13.776  11.410   3.259 -0.0250 -0.0114 -0.1205
 9977W        W27501   4.526   1.641   0.389 -0.1347 -0.0968 -0.5320
 9978W        W27502  13.206  16.469   4.039 -0.1072  0.0365  0.0068
 9979W        W27503  18.054   4.284  11.340  0.4801 -0.3420  0.1579
 9980W        W27504  16.791   2.228   4.430 -0.0854 -0.1827 -0.1894
 9981W        W27505   2.831   5.445  13.595 -0.2633  0.3059 -0.0195
 9982W        W27506   9.778  17.033   2.304 -0.2910  0.1565 -0.1699
 9983W        W27507  18.087  12.286  14.875 -0.2351  0.1257  0.1612
 9984W        W27508   3.309   4.514  10.604  0.0284 -0.1394  0.2150
 9985W        W27509   9.434  17.536   0.633  0.2527 -0.1607  0.4920
 9986W        W27510  17.806  11.130  13.256 -0.0540  0.1086  0.0506
 9987W        W27511   1.187  10.104  14.781  0.2949 -0.1744  0.0346
 9988W        W27512   5.379  12.591   0.955  0.0259  0.2031 -0.0190
 9989W        W27513  10.677   8.117  12.660 -0.1830 -0.2686  0.0324
 9990W        W27514   9.335   9.240  12.568  0.3156 -0.2517  0.6547
 9991W        W27515  16.516   0.709   1.419 -0.0172  0.4694 -0.0687
 9992W        W27516   2.906   5.223  11.041 -0.1614 -0.3198  0.0201
 9993W        W27517   2.396   2.097  13.137  0.0806  0.1967  0.1651
 9994W        W27518   0.645   5.457   2.278 -0.0037 -0.0603 -0.0627
 9995W        W27519  15.719   5.950   3.115  0.3258  0.3254 -0.2312
 9996W        W27520  10.452   4.708   4.099 -0.3119 -0.2244  0.0836
 9997W        W27521  15.029  14.179  12.297 -0.0262  0.0914 -0.1250
 9998W        W27522   5.898  18.208   3.745  0.0096  0.0135  0.3745
 9999W        W27523  11.375   3.629   1.277 -0.0535  0.0354  0.0199
10000W        W27524   7.761  17.869  14.081  0.1809  0.2096  0.2197
10001W        W27525   1.813   7.073   0.060  0.1564  0.0086 -0.3527
10002W        W27526  17.571  12.940  14.934  0.1618  0.0493  0.2080
10003W        W27527   1.338   9.951   1.372  0.1571  0.1202 -0.0172
10004W        W27528   6.064   2.243  10.968 -0.0433 -0.0273  0.2106
10005W        W27529   2.317   4.369  13.377  0.1190  0.0373  0.0594
10006W        W27530  17.750   3.387  12.573 -0.0646 -0.0856 -0.0298
10007W        W27531  15.686   6.606  13.507 -0.0070  0.1857 -0.0106
10008W        W27532  11.028  17.855   0.837 -0.0267  0.0733 -0.0549
10009W        W27533  10.975  14.044   0.711  0.2070 -0.1196  0.0962
10010W        W27534  11.747  12.183   4.249  0.0520 -0.0935  0.3301
10011W        W27535   9.552   3.770   4.171 -0.1698 -0.3045 -0.0175
10012W        W27536   5.917   7.776  12.537 -0.0701  0.3961  0.1319
10013W        W27537   4.281  15.126  15.055  0.2461  0.0569  0.0527
10014W        W27538  14.831   1.530   2.668 -0.2001 -0.2601 -0.0984
10015W        W27539   3.219   4.975  13.103 -0.0361 -0.2612  0.2043
10016W        W27540   1.065  10.998  11.360 -0.1930 -0.1996  0.2048
10017W        W27541  15.013   3.664   0.915  0.3226 -0.0439 -0.0869
10018W        W27542   4.241  12.499   4.928 -0.1054  0.0719 -0.1851
10019W        W27543  16.465  15.868  14.131 -0.1671  0.1587  0.1810
10020W        W27544  15.440   9.542   4.226  0.1076  0.4202 -0.0332
10021W        W27545   1.011  13.859   3.105  0.0082  0.0922  0.5225
10022W        W27546   7.206  13.085  11.638  0.0071  0.0029 -0.3548
10023W        W27547  12.968   0.270  13.070  0.3349  0.0739 -0.3702
10024W        W27548  10.964   9.107   1.875  0.1206  0.0232  0.1145
10025W        W27549  10.957  16.267  11.366 -0.1125  0.1978  0.3377
10026W        W27550  12.465   8.850  14.115  0.0733 -0.1453  0.0153
10027W        W27551  16.749   7.381   3.133  0.1476  0.1043  0.1172
10028W        W27552  10.459  17.921  12.282  0.1596  0.2928 -0.3138
10029W        W27553  17.013   5.481  15.259  0.0521 -0.0772 -0.5009
10030W        W27554   7.180  15.617   1.614  0.1586  0.1047  0.2626
10031W        W27555  17.265   8.003  15.510  0.2158  0.2303  0.1050
10032W        W27556   6.827   4.345  11.446  0.1901  0.3585  0.0395
10033W        W27557  15.548  12.127   4.479  0.1300  0.0033  0.0794
10034W        W27558  10.224   5.712  14.270  0.3196  0.2455  0.0408
10035W        W27559  17.585  14.223   4.629 -0.0738  0.0436  0.0749
10036W        W27560   3.190  16.731  13.148 -0.0908 -0.1130  0.0693
10037W        W27561  17.199   9.438   3.943  0.1266  0.0286  0.2601
10038W        W27562  17.278  13.897   4.208 -0.3655  0.1613 -0.1284
10039W        W27563  14.499  14.578   5.320 -0.2447  0.2873 -0.1925
10040W        W27564  18.139  10.661   0.772 -0.1985  0.0030  0.3113
10041W        W27565  12.197   9.738  13.288  0.0870 -0.1183 -0.2072
10042W        W27566   0.382   8.813   3.742 -0.0616  0.3122  0.2265
10043W        W27567  11.200  13.873  15.293 -0.0378  0.0598  0.0135
10044W        W27568   2.333  14.362  10.882  0.0848 -0.4738 -0.1118
10045W        W27569  18.115  17.647  13.939  0.0674  0.2670 -0.2296
10046W        W27570  16.776  11.508   2.472  0.2594 -0.3149 -0.1500
10047W        W27571   4.661   0.525  11.270  0.1268 -0.0430  0.3013
10048W        W27572  17.515  16.035  10.874  0.0731 -0.0494  0.2560
10049W        W27573   9.245  15.943  13.088 -0.2032  0.0865 -0.1369
10050W        W27574   2.747  13.691  13.491 -0.2829  0.0552 -0.2807
10051W        W27575  10.078   7.749  14.905  0.0888  0.1034 -0.0768
10052W        W27576   5.899  11.456  15.621 -0.1224  0.2061  0.0001
10053W        W27577  12.039   3.647   2.822  0.1887  0.0047 -0.0233
10054W        W27578  10.031  14.206  13.040 -0.0924  0.1970 -0.0818
10055W        W27579   9.711   9.246   3.520 -0.0909  0.0103  0.2141
10056W        W27580   4.682   9.390  14.249  0.2570  0.2289 -0.1612
10057W        W27581  14.261   4.458   5.311  0.2800  0.0432  0.1380
10058W        W27582  11.461   5.414  11.502 -0.1860  0.3209  0.2901
10059W        W27583   8.618  18.341  14.897  0.0120  0.1152 -0.4172
10060W        W27584  13.899   2.076  11.533 -0.0346  0.4810 -0.0100
10061W        W27585  16.858   4.304   1.190  0.2531  0.3382 -0.1283
10062W        W27586   7.437   2.776  15.632  0.0435 -0.2030  0.1252
10063W        W27587  14.074   6.558  12.521  0.1347 -0.2943  0.3104
10064W        W27588   6.266   5.395  13.912  0.0541 -0.1510  0.2117
10065W        W27589   1.340   5.283   3.916 -0.0450  0.0644 -0.1202
10066W        W27590   3.546  12.501   3.090  0.0348 -0.1869  0.0071
10067W        W27591   1.984  17.726   2.482  0.0135 -0.1532  0.0798
10068W        W27592   4.473   4.234   1.109 -0.2198  0.0863 -0.1296
10069W        W27593  17.887   5.966   0.371  0.2915 -0.0707  0.1342
10070W        W27594   1.808   5.080   3.740  0.3332  0.0416 -0.2936
10071W        W27595  15.711   4.556  13.103  0.2430 -0.0149  0.2200
10072W        W27596   5.551   1.874   1.990 -0.0194  0.1779  0.0399
10073W        W27597   7.573  11.008  13.422 -0.0915 -0.0358 -0.1794
10074W        W27598   3.807  15.211   2.110  0.1857  0.0909  0.0715
10075W        W27599  15.483  16.574  13.221  0.0046  0.2676  0.1859
10076W        W27600   5.129   3.167  13.793  0.1200 -0.0988 -0.0221
10077W        W27601  15.372  15.832  14.933 -0.0630  0.0118 -0.0738
10078W        W27602  14.877   5.399   2.093 -0.2339 -0.0353 -0.0776
10079W        W27603   2.961  13.908   9.884  0.0380 -0.2542  0.0414
10080W        W27604  14.241   7.217  11.824  0.1245  0.2910  0.0878
10081W        W27605   7.903   3.128  14.511 -0.1273  0.1100 -0.3635
10082W        W27606   5.208   2.022   4.462 -0.3327  0.1986  0.1389
10083W        W27607   6.604  17.537  12.203 -0.1825  0.1001 -0.0203
10084W        W27608  13.738   2.157   0.635 -0.1658 -0.1903 -0.1892
10085W        W27609   9.331  14.582   0.371 -0.0772  0.1191  0.1794
10086W        W27610  14.486   8.212  11.987 -0.3766  0.1142 -0.2447
10087W        W27611   9.784   3.047  11.748  0.0752  0.0684  0.1514
10088W        W27612   0.106   2.849   2.395 -0.2757 -0.1618  0.0074
10089W        W27613   5.730   1.188   0.891 -0.0703 -0.0235 -0.0604
10090W        W27614  10.156  11.844   6.159 -0.1778  0.1119  0.1702
10091W        W27615   8.098   6.844   0.258  0.0560  0.2088 -0.4945
10092W        W27616  11.631  17.224   4.695 -0.1771  0.1656 -0.0366
10093W        W27617  17.411   6.208  15.132 -0.0765  0.2148 -0.1626
10094W        W27618  10.646   8.272  14.810 -0.0319  0.0486 -0.0228
10095W        W27619   9.470   8.032   1.056 -0.0784 -0.2441 -0.3018
10096W        W27620  11.993  10.478   2.193  0.1294 -0.0161  0.0858
10097W        W27621   7.054  13.437   1.473  0.2357  0.3484  0.0399
10098W        W27622   4.188  15.508   3.463 -0.4268  0.0041  0.1369
10099W        W27623  14.695   5.712  12.824  0.1946  0.3092  0.1102
10100W        W27624   9.768   6.118   2.704 -0.1837 -0.0141  0.0199
10101W        W27625   0.394  13.674  11.757  0.0411 -0.0965 -0.3089
10102W        W27626  12.856  18.321   1.837  0.0412  0.3866  0.2392
10103W        W27627   3.828  13.121   1.925 -0.0848  0.1624  0.0856
10104W        W27628   9.375   0.872  13.737 -0.1713  0.0819 -0.1115
10105W        W27629  16.602  15.226  13.197  0.4153  0.2993  0.0915
10106W        W27630  17.227   5.042   9.867 -0.1138  0.1938 -0.3093
10107W        W27631  10.887  11.066  13.240 -0.1517 -0.0606  0.0736
10108W        W27632   1.668  14.669  12.359 -0.1898  0.0371  0.3404
10109W        W27633   7.980  10.341  11.711  0.1453  0.0135 -0.0630
10110W        W27634  13.886  18.081   1.629 -0.2675  0.2573 -0.3304
10111W        W27635  12.524  15.893   0.423 -0.0613 -0.1540  0.2271
10112W        W27636  12.018  13.365  12.618 -0.1598 -0.0526 -0.0215
10113W        W27637   7.542  14.616  14.734 -0.1367 -0.0079  0.0024
10114W        W27638   3.707   1.200  15.732  0.0206 -0.3713  0.0446
10115W        W27639   8.997  16.604  11.915 -0.0440 -0.0830 -0.1967
10116W        W27640  17.003  14.759  15.332 -0.0103 -0.1834 -0.2421
10117W        W27641  12.104   2.675   0.997  0.1394  0.2902  0.1702
10118W        W27642   0.578   8.048   4.414 -0.1259 -0.4608 -0.4584
10119W        W27643  15.732   4.123   0.403  0.2592 -0.0523  0.0107
10120W        W27644   9.615  10.067  14.289 -0.1099  0.2706 -0.1656
10121W        W27645  17.094  10.983   1.570  0.2134  0.1238 -0.1160
10122W        W27646   2.175   4.793  11.060 -0.1981  0.0253 -0.0457
10123W        W27647   8.474  17.809  12.323 -0.0151 -0.0809  0.0705
10124W        W27648   8.190  16.565   1.423 -0.2668  0.0521  0.1792
10125W        W27649   1.501   5.947   0.896 -0.0404  0.0348  0.0283
10126W        W27650   5.961  12.757   3.519  0.2203  0.1232  0.4170
10127W        W27651  12.956  11.819  13.291 -0.0796  0.1505 -0.0476
10128W        W27652   8.847   9.090  12.998 -0.1564  0.1435 -0.0587
10129W        W27653  17.454   4.431   4.426  0.3272 -0.6207 -0.0538
10130W        W27654  16.808   0.661  15.225  0.0838  0.0039 -0.1170
10131W        W27655   6.110   1.245  10.917 -0.2039  0.2455 -0.0769
10132W        W27656  15.063  13.830   4.209  0.1410 -0.0633  0.0644
10133W        W27657  16.704   7.455  13.835 -0.0971 -0.1288  0.0523
10134W        W27658   2.906  15.557  15.168 -0.0620  0.2064  0.2434
10135W        W27659  18.091   9.481   2.839 -0.0518 -0.4956  0.5157
10136W        W27660  18.030   2.847  14.804  0.0423 -0.0030  0.0766
10137W        W27661   2.229  16.864  12.234 -0.0958 -0.0136  0.0363
10138W        W27662   7.176  11.963   3.636  0.1016 -0.1154 -0.1958
10139W        W27663  11.810   5.920  12.598  0.0485  0.1648 -0.0579
10140W        W27664  13.315   2.819   1.944 -0.2794  0.1345 -0.1147
10141W        W27665   4.141   8.503   5.104  0.1029  0.1408  0.2251
10142W        W27666  12.380  17.301  13.648  0.4047 -0.1310  0.0786
10143W        W27667  10.009   3.856  14.254 -0.0611 -0.1257  0.0803
10144W        W27668   0.120   1.361   0.548 -0.1513  0.2359  0.4122
10145W        W27669  13.831   8.538  11.013  0.1067  0.2439 -0.0115
10146W        W27670   6.337   2.360   1.423  0.1633 -0.0561 -0.3199
10147W        W27671   7.887   9.520   9.794 -0.4301 -0.3006  0.2239
10148W        W27672  13.059   0.820   4.889  0.2821 -0.1363 -0.0668
10149W        W27673  11.050  12.699  13.428  0.1887 -0.3863  0.1701
10150W        W27674  11.114  14.305   1.158  0.0483 -0.3503  0.2893
10151W        W27675  17.353   5.506   0.637  0.0097 -0.0505 -0.5105
10152W        W27676   2.715  10.818   1.297 -0.4470 -0.0358 -0.1157
10153W        W27677   0.375   8.076   3.416 -0.0945 -0.1152 -0.3717
10154W        W27678  13.984   0.108   1.271 -0.3695 -0.0275  0.1133
10155W        W27679  16.169   0.594  14.782 -0.2167 -0.0514 -0.2293
10156W        W27680   2.664   9.880  12.302 -0.1757 -0.1240 -0.1821
10157W        W27681   8.264  12.622   5.259 -0.2094 -0.0808  0.0939
10158W        W27682   7.314   2.694  11.596  0.2687 -0.0263 -0.3579
10159W        W27683   4.001   4.954  13.965  0.1369  0.0269  0.2787
10160W        W27684   9.191   5.050  12.881  0.1391 -0.1109 -0.2310
10161W        W27685   7.314  12.252  13.466 -0.0024 -0.2558 -0.1155
10162W        W27686  10.472  17.949  15.159  0.0998 -0.2340  0.0475
10163W        W27687   6.785  10.482   1.346  0.1753 -0.0527 -0.2953
10164W        W27688  17.967   3.994   3.486  0.1677  0.3748  0.1070
10165W        W27689  14.993   0.004   4.247 -0.1538 -0.0677  0.2161
10166W        W27690   2.976  12.390   0.045 -0.2954  0.0462 -0.1080
10167W        W27691   1.085   2.873   1.379 -0.2222  0.0585  0.0934
10168W        W27692   7.315   2.025   0.503  0.2445  0.0980  0.0161
10169W        W27693   5.713  15.522  12.613  0.1100  0.0682 -0.3519
10170W        W27694   0.183   3.421   4.032  0.0129  0.2771 -0.3026
10171W        W27695   1.178  10.403   3.998  0.0211  0.5224  0.2035
10172W        W27696  14.422   2.325  15.171 -0.1082 -0.0285 -0.2260
10173W        W27697  13.054   5.096   0.640  0.1236 -0.1761 -0.2025
10174W        W27698   0.559  16.687  11.464  0.0286  0.0358 -0.0288
10175W        W27699  17.243  11.939  14.284  0.0137 -0.1217 -0.4293
10176W        W27700   1.786  17.424  13.705  0.0008 -0.0834 -0.0576
10177W        W27701  18.195  14.327  12.747 -0.0983  0.1370  0.4309
10178W        W27702   1.353  13.209   1.978  0.0435 -0.1449  0.2838
10179W        W27703   0.351  18.219  11.540 -0.1990 -0.0325 -0.2667
10180W        W27704   6.263  17.514  11.735 -0.3476 -0.0289 -0.1139
10181W        W27705   1.316   9.507   0.169 -0.0288 -0.1125 -0.0568
10182W        W27706   2.921   6.880  12.100 -0.2200  0.0231  0.5201
10183W        W27707   3.557  17.868   1.173  0.3442 -0.0499  0.3774
10184W        W27708   6.820   9.286  12.350 -0.0833 -0.1438 -0.0901
10185W        W27709  10.519  17.706   0.601 -0.0858 -0.0034  0.4825
10186W        W27710  17.300  13.304   1.557  0.1976 -0.0065  0.0037
10187W        W27711   0.490   1.599  13.251 -0.3651  0.0795  0.0951
10188W        W27712  10.614  13.963   1.137 -0.0642 -0.1150  0.2621
10189W        W27713  13.955  13.283   4.882  0.0513 -0.1911 -0.1214
10190W        W27714  14.760   6.175   0.680  0.0503 -0.3490 -0.0719
10191W        W27715   4.415  10.832   4.628 -0.0682  0.0977 -0.1585
10192W        W27716   1.095   5.986  12.202  0.0732 -0.1907  0.0253
10193W        W27717   9.757  13.149   4.489  0.2421 -0.0110  0.1225
10194W        W27718   9.234  17.266   1.620  0.2919  0.1261  0.2587
10195W        W27719  13.779  16.029  14.149 -0.2318 -0.1664  0.1108
10196W        W27720   0.304  10.500   2.549  0.0849  0.0561  0.1105
10197W        W27721  10.253   8.266  14.518 -0.1425 -0.0169 -0.0714
10198W        W27722   4.150  17.981  13.920 -0.0346 -0.2938  0.1001
10199W        W27723   9.137   3.034   4.450  0.4179 -0.0121 -0.2569
10200W        W27724   1.976  16.720   4.543 -0.1182 -0.1367 -0.3095
10201W        W27725  14.358   8.357  12.475 -0.1972 -0.1986 -0.0480
10202W        W27726  15.063   1.850   2.995  0.3477 -0.1341 -0.1541
10203W        W27727   9.137   4.551  13.147  0.0544 -0.1033  0.1548
10204W        W27728  15.175  14.924  15.149  0.1246 -0.0639 -0.5927
10205W        W27729   3.506   9.765  10.670 -0.1278  0.1034  0.1770
10206W        W27730  17.090   4.050   4.384 -0.2058 -0.2159  0.1663
10207W        W27731   0.206   7.528  12.163  0.1778 -0.0895  0.3129
10208W        W27732   7.645   1.819   3.995  0.3982  0.3959 -0.1666
10209W        W27733  17.631  12.298   1.549  0.2683  0.3736  0.0922
10210W        W27734   5.104  13.425   4.386 -0.1361 -0.2449 -0.0160
10211W        W27735  17.440   3.037   1.118  0.0295 -0.0823 -0.1587
10212W        W27736  11.163  11.447  13.037  0.0358  0.1562  0.0291
10213W        W27737   0.569  12.516  15.671  0.0842  0.1594  0.3931
10214W        W27738   1.613   7.949   1.910 -0.2810 -0.2109 -0.2107
10215W        W27739   0.302  11.027  14.335  0.1105 -0.0143 -0.4497
10216W        W27740   9.475   8.633  10.067  0.4050 -0.1242 -0.1928
10217W        W27741  12.669  10.846   3.917  0.4055 -0.0772  0.0672
10218W        W27742  14.243   3.370  10.749  0.3413 -0.0155  0.0639
10219W        W27743   6.877  16.337  15.344 -0.1441 -0.3332  0.3614
10220W        W27744   1.550   5.584  11.209 -0.1125 -0.1631  0.1617
10221W        W27745  14.736  14.750  14.948 -0.0791  0.5434  0.0959
10222W        W27746   7.628   7.263  15.688  0.1292 -0.0139 -0.0605
10223W        W27747   6.231   3.654  15.195 -0.2187  0.0676 -0.0348
10224W        W27748  14.759   3.922   1.475  0.0406  0.0452  0.0870
10225W        W27749  16.684  10.774  12.758 -0.0682  0.2372 -0.0560
10226W        W27750  11.345  16.880   3.837  0.0324  0.0959 -0.1156
10227W        W27751   4.167  12.755  11.996  0.1033  0.2806  0.2141
10228W        W27752   1.970   5.028   1.228  0.0568 -0.0495  0.0213
10229W        W27753  13.311   4.915   0.276  0.2208  0.2351  0.0028
10230W        W27754  16.648   4.462   1.610 -0.0479 -0.2635  0.1911
10231W        W27755  14.746   8.630  15.214 -0.2230 -0.1150  0.0224
10232W        W27756  10.757  13.978   2.062  0.1933 -0.0984  0.0946
10233W        W27757  11.121   8.716   4.113  0.1126 -0.0472  0.1823
10234W        W27758  16.053   7.265  15.240  0.0380 -0.1264 -0.1265
10235W        W27759  17.077  14.304  14.462  0.1614 -0.2023 -0.1724
10236W        W27760  11.882  17.113  13.834 -0.0182  0.1989 -0.1122
10237W        W27761   3.484   1.484   2.333  0.0309  0.0398 -0.0718
10238W        W27762  17.544  16.419  15.131  0.0339 -0.1210  0.1092
10239W        W27763  10.030  14.985  10.935  0.3030  0.0298  0.0587
10240W        W27764   4.890  11.043   0.228 -0.0445  0.2024  0.3435
10241W        W27765  16.950  11.858   2.769 -0.2618 -0.0291  0.1820
10242W        W27766  15.401   8.710  11.964  0.3259  0.4253  0.0262
10243W        W27767  15.510  12.387   4.970 -0.2462 -0.2654 -0.1254
10244W        W27768  11.481  11.576  13.398 -0.0732 -0.3550 -0.0702
10245W        W27769   2.424  11.937  12.479  0.2394  0.1423  0.0422
10246W        W27770  12.136   8.487   1.854  0.1913  0.3654  0.1543
10247W        W27771   2.496   3.833  12.707 -0.0742  0.0566  0.0300
10248W        W27772  10.021  10.960  13.633 -0.1313  0.0714 -0.3146
10249W        W27773  11.153   7.578   4.239  0.4133 -0.5753  0.2310
10250W        W27774  11.461  12.124  13.182  0.2411  0.2267  0.1836
10251W        W27775   2.654   2.867   4.305 -0.0110 -0.1226 -0.0966
10252W        W27776   8.394   6.026  12.688  0.0045  0.3100  0.1208
10253W        W27777   7.058  12.464   3.664  0.2013  0.1169  0.3260
10254W        W27778  10.192   3.072  12.000  0.1511  0.0473 -0.1593
10255W        W27779  10.482  17.433   3.671 -0.1078  0.0806 -0.0526
10256W        W27780   0.061   8.703   2.413  0.3051  0.0729 -0.1853
10257W        W27781   4.976   3.268   0.730 -0.0173 -0.2242  0.1230
10258W        W27782   0.451  12.770  15.256 -0.0262 -0.1523 -0.1040
10259W        W27783   8.817  14.690   0.986  0.1739  0.4780  0.1033
10260W        W27784   7.658   0.102   1.811  0.2234  0.0238  0.0517
10261W        W27785  14.963  14.957   1.961  0.0354 -0.2283  0.2815
10262W        W27786  15.971  12.545  13.982  0.1307  0.2055  0.2086
10263W        W27787   3.452   0.472  12.192  0.1618 -0.2910  0.1485
10264W        W27788   2.316  17.783  14.715  0.0993 -0.0065 -0.0612
10265W        W27789   0.150  17.550  13.859 -0.2084 -0.0942 -0.1467
10266W        W27790   4.957   3.748   0.326  0.2793 -0.3400  0.0876
10267W        W27791   1.534   0.504  11.576 -0.0025 -0.0359  0.0746
10268W        W27792   3.834   1.617   2.727  0.3962  0.0270 -0.1315
10269W        W27793  13.288   9.525   3.119 -0.1891 -0.0470 -0.1096
10270W        W27794   0.240   2.305  13.016  0.0151 -0.1274 -0.0474
10271W        W27795  13.865   0.802   1.776 -0.0312  0.2129  0.1041
10272W        W27796  15.444   3.752  14.903 -0.1320 -0.2230  0.2040
10273W        W27797  14.519   8.713  12.146  0.3975 -0.0501  0.2839
10274W        W27798  17.706   7.060   9.816  0.0557  0.0248  0.0389
10275W        W27799  14.180  13.380  13.826  0.2050  0.0721 -0.1155
10276W        W27800  11.417   7.294   4.448  0.1823  0.1524 -0.1297
10277W        W27801   0.234   8.903   0.601  0.0332  0.0206  0.3911
10278W        W27802   5.524  12.307   1.648  0.0775 -0.2698  0.0347
10279W        W27803  14.716  11.717   2.725  0.0836  0.2432 -0.1047
10280W        W27804   7.286   2.958   4.133 -0.1518 -0.0741  0.2761
10281W        W27805   5.981   1.195   3.489 -0.1286  0.2225  0.2979
10282W        W27806   4.100  15.976   2.085 -0.2149 -0.1955 -0.1845
10283W        W27807  16.761  13.506   4.073 -0.0660 -0.0937  0.0932
10284W        W27808   0.874  11.574   1.729 -0.1239  0.2219 -0.0417
10285W        W27809  14.051  14.282  13.802 -0.3768 -0.1071 -0.0496
10286W        W27810   2.778  17.287  11.483 -0.1253 -0.3409  0.0450
10287W        W27811   4.309   5.208  12.823 -0.0799  0.2371  0.0405
10288W        W27812  13.858  15.495   3.030 -0.2937 -0.1988  0.1269
10289W        W27813  13.524  12.753   2.001 -0.0682  0.2637 -0.0938
10290W        W27814   2.009  16.460  11.621 -0.0651  0.1157  0.0152
10291W        W27815  11.798  14.836   0.246  0.0264  0.1331  0.1871
10292W        W27816   5.101   6.542  12.108  0.3842  0.0438  0.1201
10293W        W27817  12.095   2.914  11.068 -0.1195  0.3694  0.1729
10294W        W27818  11.293   8.667  15.623 -0.1725 -0.1364 -0.2202
10295W        W27819  14.672  15.894  12.299 -0.1700 -0.0269 -0.0337
10296W        W27820  14.368  14.857  11.606 -0.0023 -0.0128 -0.0810
10297W        W27821   6.640   8.099   3.524  0.1617  0.0036 -0.1021
10298W        W27822   0.947   1.741  11.297 -0.2806 -0.1300 -0.1495
10299W        W27823  10.865  13.520   4.643  0.0185  0.0633 -0.1294
10300W        W27824   6.825   5.079  13.451 -0.0796  0.0005  0.0477
10301W        W27825   8.084  13.060  14.198  0.2261 -0.1323  0.0623
10302W        W27826  18.348  16.340  15.055 -0.4679  0.0892 -0.1725
10303W        W27827   3.284   2.566  12.588 -0.1169  0.0929 -0.0482
10304W        W27828   9.053   7.988  14.348 -0.2263  0.1684 -0.0469
10305W        W27829   1.382   1.926   0.148 -0.0152 -0.2573  0.0594
10306W        W27830   9.602  17.773   2.488  0.0176 -0.0393  0.1078
10307W        W27831   1.071   0.635  11.489 -0.0889  0.1962  0.1121
10308W        W27832   9.379   6.456   5.210  0.1642  0.2639 -0.1508
10309W        W27833   6.772  10.657  11.395  0.0006 -0.3700 -0.0178
10310W        W27834  17.401   2.653  12.443 -0.0935  0.0060  0.2800
10311W        W27835  10.337   6.041  11.569  0.1229 -0.1797  0.2697
10312W        W27836   7.226   3.620  15.270 -0.1467  0.1144  0.1135
10313W        W27837   3.718   6.895   4.422 -0.0777 -0.1104 -0.2053
10314W        W27838  16.085   0.285   4.824 -0.1485 -0.0197 -0.0919
10315W        W27839   0.846   0.863   2.033  0.0830  0.1398  0.3502
10316W        W27840   3.138  11.134  12.137 -0.2251 -0.0682 -0.1281
10317W        W27841   6.673   8.771  14.540 -0.0863  0.2469 -0.0313
10318W        W27842  15.327   4.758  12.856  0.2345 -0.2524  0.1678
10319W        W27843  16.458  12.032   2.827  0.1210 -0.0702 -0.1555
10320W        W27844   4.651   7.495   0.735  0.0998  0.1416 -0.1303
10321W        W27845   0.294  16.398   2.737  0.0126 -0.1647  0.1327
10322W        W27846   4.835  13.363  13.045  0.2534  0.2706 -0.2793
10323W        W27847  13.213   8.183  13.845  0.0686  0.2143 -0.1316
10324W        W27848   5.884  11.666   1.891  0.4530  0.3517 -0.3395
10325W        W27849  11.045   7.887   1.926 -0.0276 -0.2110 -0.0136
10326W        W27850   0.341  15.725   1.158  0.3121 -0.2227  0.0426
10327W        W27851  16.442  16.299  13.900 -0.0619  0.0489  0.3270
10328W        W27852  10.670   7.577   1.600  0.1493  0.2903  0.0568
10329W        W27853  12.740   8.576  13.769  0.2841 -0.3389 -0.1460
10330W        W27854   9.675   4.706  11.508  0.0261 -0.4332  0.0058
10331W        W27855  10.725   9.145  13.457 -0.0309 -0.0454 -0.1879
10332W        W27856  15.601  12.640  11.926  0.0269  0.2444  0.1416
10333W        W27857  17.973  11.319  12.290  0.2397  0.1630 -0.2355
10334W        W27858   7.776   0.030  13.219 -0.1660 -0.1144 -0.2495
10335W        W27859   6.435  13.098  15.733  0.0105 -0.2638 -0.0687
10336W        W27860   1.806   3.443  10.500 -0.0167 -0.0587 -0.1002
10337W        W27861  11.350  14.762   5.845  0.0403  0.0988 -0.1895
10338W        W27862   0.919   6.991   4.501 -0.3116  0.2241  0.1816
10339W        W27863  12.532   1.187   0.579  0.2013  0.1169  0.0515
10340W        W27864   3.025  12.879  12.660  0.3394  0.1079  0.0971
10341W        W27865  10.155   4.360  14.024  0.0287 -0.0160 -0.0724
10342W        W27866   6.861  13.903  15.407 -0.0566 -0.6161  0.3634
10343W        W27867   0.600   9.808   1.932  0.2354  0.3373  0.2755
10344W        W27868  14.825   8.645  13.279 -0.0968 -0.1868 -0.0598
10345W        W27869   6.776   3.190   3.007 -0.0803 -0.0309  0.2499
10346W        W27870  14.242   9.959  14.346 -0.0160  0.4273 -0.0545
10347W        W27871   1.297  12.109   2.307  0.3456 -0.1705 -0.0358
10348W        W27872  15.572  15.180   2.695  0.3586 -0.0457 -0.4057
10349W        W27873   2.890  16.711  10.774 -0.0370  0.3472 -0.3223
10350W        W27874  15.897   8.613  15.580 -0.0813 -0.4322 -0.0019
10351W        W27875   5.899   4.089  14.602 -0.4476  0.0727  0.0236
10352W        W27876   0.437   4.532  11.538 -0.1070 -0.1346 -0.3086
10353W        W27877   0.284  16.456   0.982  0.0546  0.1338 -0.1496
10354W        W27878   1.314  11.293   0.359 -0.4353  0.1149  0.0349
10355W        W27879  14.484   5.882   4.389 -0.2937  0.1661 -0.1950
10356W        W27880   3.494  13.778   3.686 -0.1201  0.0912 -0.1682
10357W        W27881   4.867   3.190  14.221 -0.1462 -0.2311 -0.2274
10358W        W27882   8.706   0.516  13.992  0.1296 -0.0671 -0.2666
10359W        W27883  16.806  14.930   4.321 -0.1926  0.2755  0.1626
10360W        W27884  16.708  13.469   2.692 -0.0332  0.0288  0.1437
10361W        W27885   0.398   0.840   3.012  0.0339 -0.0386 -0.0355
10362W        W27886   4.323  13.999  14.647 -0.0814  0.0773 -0.0002
10363W        W27887   2.040   6.652   2.170 -0.2305  0.2758 -0.2575
10364W        W27888   6.153   2.759   2.657  0.3732  0.4939 -0.1450
10365W        W27889   8.499  12.761   3.393 -0.0046  0.0806 -0.0499
10366W        W27890   6.847   6.726  11.307  0.1306  0.1628  0.1445
10367W        W27891   0.291  11.422   0.514 -0.0920 -0.4243  0.1848
10368W        W27892   1.816  11.321   1.437  0.2257 -0.1001 -0.0606
10369W        W27893   5.722  12.582  12.099 -0.1918 -0.1162 -0.4735
10370W        W27894   6.976   0.953   2.670  0.0539 -0.1724 -0.3787
10371W        W27895  16.493  15.931   4.433 -0.0601 -0.0036  0.4746
10372W        W27896   6.449   2.982  13.035  0.1624  0.0864  0.0272
10373W        W27897   4.929  10.010   2.995  0.1213 -0.2001 -0.2307
10374W        W27898  14.856   4.603   1.558 -0.1148  0.1016 -0.0447
10375W        W27899  18.200  10.204   2.333  0.0866 -0.1015  0.0315
10376W        W27900   1.692  11.599  14.231  0.0093 -0.1967 -0.2640
10377W        W27901   2.758   1.360  11.327  0.1474  0.2137  0.3719
10378W        W27902  12.865   3.569   4.355 -0.2406  0.1527 -0.0457
10379W        W27903  16.673  15.485   4.292 -0.2059  0.0249  0.2301
10380W        W27904  14.351  16.572   4.678  0.0744 -0.0327  0.1616
10381W        W27905   3.968  11.543  14.133  0.1597 -0.2291  0.1400
10382W        W27906   3.933  10.104   0.530 -0.2032 -0.0309  0.3068
10383W        W27907   7.944  13.178  15.160 -0.0529  0.0532 -0.2165
10384W        W27908   5.503   5.074   2.494  0.0182 -0.0740  0.3350
10385W        W27909   4.159  10.314  15.187  0.4260 -0.0209 -0.1388
10386W        W27910   3.222  16.577   3.100 -0.1898 -0.3171  0.1845
10387W        W27911   0.053   5.879   1.152  0.2981  0.0082  0.1334
10388W        W27912   8.058  12.830  11.054  0.1244  0.0015 -0.2462
10389W        W27913  16.515  16.434   4.541  0.2874  0.1099 -0.3773
10390W        W27914  12.247  10.957  15.362 -0.2923 -0.0764 -0.3015
10391W        W27915   5.199   7.249  15.769  0.2949  0.0388 -0.1228
10392W        W27916  12.194   4.461  15.145  0.2460  0.0285 -0.0153
10393W        W27917  14.930  11.927  10.833  0.0677  0.5493 -0.0853
10394W        W27918  15.737  11.119  12.295  0.0139  0.0982  0.1987
10395W        W27919   4.494  17.851   2.091  0.0891 -0.4278  0.2086
10396W        W27920   3.758   9.614   4.639  0.2345 -0.2693  0.2060
10397W        W27921   8.327   5.643  13.439  0.2358 -0.2416 -0.2693
10398W        W27922  11.909  13.964   4.006  0.1704  0.4612  0.1731
10399W        W27923   4.366   4.657  15.144  0.1500 -0.0500  0.2710
10400W        W27924   4.898   3.758   4.231 -0.0181  0.0364  0.2298
10401W        W27925   3.005  18.026  13.292 -0.0509 -0.0007  0.0390
10402W        W27926  18.143   4.355  12.672  0.1543  0.1943  0.0271
10403W        W27927   8.216  12.566   0.955 -0.0153  0.0068  0.2482
10404W        W27928  11.595   0.107  15.845 -0.0627 -0.2128 -0.1460
10405W        W27929  14.552  14.978   1.120 -0.1002  0.2071  0.1585
10406W        W27930  10.077   3.322  15.075 -0.1290 -0.0114 -0.0905
10407W        W27931  14.174  10.483  14.240  0.1263  0.1071 -0.2464
10408W        W27932  18.267  13.333   1.808  0.4235 -0.0003 -0.1416
10409W        W27933  17.761   6.528   0.635  0.0878 -0.0446  0.1179
10410W        W27934   3.382  17.703   2.806  0.0563 -0.0529 -0.1369
10411W        W27935   0.403   5.435  11.599  0.2113  0.0790  0.0353
10412W        W27936  16.533   8.908  15.018 -0.1603  0.0171 -0.2739
10413W        W27937   9.964  15.860  12.456  0.0566 -0.3461 -0.2695
10414W        W27938   1.994   9.081   2.945  0.1890  0.0298  0.2080
10415W        W27939  13.369  17.104  12.139  0.1315  0.1336  0.0321
10416W        W27940  10.028   4.578   4.739 -0.1370 -0.0319 -0.0056
10417W        W27941   6.771  13.404  11.749 -0.1204 -0.0030  0.1068
10418W        W27942  15.433  16.073   6.063  0.0657  0.0719  0.0334
10419W        W27943   9.315  12.408  14.513 -0.3626 -0.0766  0.1638
10420W        W27944  14.341   3.599   2.617  0.0844  0.2364  0.1257
10421W        W27945  17.627   9.708  12.753 -0.0485 -0.1812  0.2146
10422W        W27946   5.530  13.129   4.291  0.2995  0.0856 -0.2929
10423W        W27947   8.217  10.915   3.548  0.2638  0.2517 -0.3244
10424W        W27948   3.084   2.385  12.134 -0.3018 -0.1477  0.2116
10425W        W27949  12.742   3.739  14.390 -0.1334  0.1905 -0.0805
10426W        W27950  10.217  12.499   4.262  0.2427 -0.0211  0.2131
10427W        W27951   4.843   8.066  12.105 -0.1074 -0.1348  0.2524
10428W        W27952  13.419  17.085  12.653  0.0403 -0.1137 -0.0702
10429W        W27953  12.108  11.639  12.903 -0.3368 -0.0472 -0.1467
10430W        W27954   2.872   9.823   3.891 -0.0211  0.0419 -0.2067
10431W        W27955   2.620   2.717   1.998 -0.1595  0.2238 -0.1027
10432W        W27956  17.545  15.586   3.740  0.0945  0.1767  0.0667
10433W        W27957   6.022   3.920   2.424  0.1470 -0.2421  0.0272
10434W        W27958   9.830   6.984  15.564  0.1438  0.1910 -0.0698
10435W        W27959   8.878  15.172  14.613  0.1366 -0.0055 -0.3712
10436W        W27960   6.854  14.993  13.612 -0.0421 -0.0129 -0.3532
10437W        W27961  14.776   8.596   3.257  0.1170 -0.2097 -0.0744
10438W        W27962   8.591   7.839  13.023  0.0977 -0.0629  0.1976
10439W        W27963   6.118  17.849   4.068 -0.1215  0.1037 -0.1792
10440W        W27964  18.067   1.065  15.610 -0.1248  0.0097  0.1035
10441W        W27965   5.684   4.161   3.432 -0.1092  0.2590 -0.0637
10442W        W27966  13.982   8.156  13.540  0.2424  0.1842  0.0323
10443W        W27967   8.061  12.542  11.415 -0.0413 -0.1242 -0.0024
10444W        W27968   9.318  14.314   2.143  0.1347  0.3641 -0.2125
10445W        W27969   8.432   2.044  15.681  0.0426 -0.2229 -0.0572
10446W        W27970   2.659  16.340  13.948  0.1687 -0.0038  0.1225
10447W        W27971   4.991   1.220  11.895 -0.0671 -0.1604  0.4558
10448W        W27972   0.151   8.351   5.262 -0.2299  0.1072 -0.5042
10449W        W27973  11.973   2.345  14.956 -0.0839 -0.0277 -0.3615
10450W        W27974   8.818   6.136  13.720  0.0900 -0.1341 -0.0778
10451W        W27975  14.768   1.138  10.954 -0.1167 -0.0754 -0.1315
10452W        W27976   0.066   1.709   0.888 -0.1686 -0.2074 -0.0031
10453W        W27977   8.494  10.016  15.339  0.0679  0.3129  0.2025
10454W        W27978  15.533   8.080  13.508 -0.1352  0.1293  0.1766
10455W        W27979  16.914   1.181   4.319  0.1238  0.0324  0.0393
10456W        W27980  15.311  17.411   2.424 -0.1894 -0.0636 -0.0330
10457W        W27981  14.533   8.811  14.754 -0.0772 -0.0867  0.0836
10458W        W27982   3.370  10.310   1.007 -0.0073  0.1866  0.0642
10459W        W27983   2.039  16.377   3.280  0.2569  0.1891 -0.2942
10460W        W27984   6.971  14.378   4.779 -0.0800 -0.1347 -0.0523
10461W        W27985  11.300   3.614  13.935 -0.2730 -0.2434  0.3246
10462W        W27986   7.392  10.170  12.331  0.0996  0.0877  0.0592
10463W        W27987   0.128  17.029   1.197  0.0872 -0.0304  0.0292
10464W        W27988   0.242  11.426  11.433 -0.0609 -0.0575  0.3849
10465W        W27989  16.318   2.333  12.640  0.1260 -0.2386 -0.0282
10466W        W27990   4.103  16.252   3.407 -0.1162 -0.1399  0.1442
10467W        W27991   0.684  12.619  12.458 -0.0784 -0.2698  0.0276
10468W        W27992   7.830   7.203  12.846 -0.1102 -0.1746  0.0198
10469W        W27993   1.269  13.660  10.176  0.2217 -0.3539  0.0570
10470W        W27994   0.660   8.012  13.839  0.3077 -0.0017 -0.1150
10471W        W27995  15.061   0.901  11.268  0.1531  0.0779 -0.1445
10472W        W27996   7.132  18.246  12.587  0.2284 -0.3625  0.1637
10473W        W27997   9.861  17.477  11.891  0.0850  0.0979  0.0639
10474W        W27998   8.885   6.131  11.247  0.0059  0.0030 -0.2918
10475W        W27999   8.370  16.121  12.455 -0.1939  0.1041  0.3101
10476W        W28000   1.705  15.866  14.696 -0.0190  0.2524  0.2956
10477W        W28001   5.692   2.863   3.252 -0.1217 -0.1926  0.4653
10478W        W28002  11.433  15.091  15.292 -0.1418  0.0716 -0.0916
10479W        W28003  15.287   9.183  13.955 -0.1528  0.0024 -0.1574
10480W        W28004  10.620   1.711  12.527 -0.3329  0.2778 -0.1031
10481W        W28005   3.179   9.199  11.771 -0.0920 -0.0140 -0.0772
10482W        W28006   4.861   0.243   1.453 -0.0229 -0.0313 -0.2580
10483W        W28007   8.416   9.070  12.734  0.0248 -0.0879  0.1545
10484W        W28008   8.398   0.624  13.081 -0.2602  0.1957  0.2823
10485W        W28009  11.725   0.457   4.696 -0.1785  0.3476  0.1538
10486W        W28010   3.957   3.698  12.058 -0.1206 -0.0188 -0.0250
10487W        W28011   4.537  11.919   2.368 -0.2367 -0.1908  0.1829
10488W        W28012  18.387   0.473  14.344  0.1197  0.2050 -0.0512
10489W        W28013   3.456   2.741  12.035 -0.1727  0.0465  0.0476
10490W        W28014  10.832   9.724  14.731 -0.0868 -0.2318 -0.1853
10491W        W28015  10.854   2.322  13.310 -0.0964  0.1740 -0.1434
10492W        W28016   3.962  14.198  15.832 -0.2016 -0.3052  0.0100
10493W        W28017   8.888   4.890  10.869 -0.1570  0.0259  0.0089
10494W        W28018   1.146   0.911  13.447 -0.1947  0.0028  0.1926
10495W        W28019  13.069   3.968  13.232 -0.1108  0.1835 -0.2910
10496W        W28020   5.173   4.250   3.651 -0.0091 -0.0397 -0.1476
10497W        W28021  12.422   7.884  14.515 -0.3692  0.2112  0.2552
10498W        W28022   7.877   1.133  14.190 -0.1186  0.2025 -0.0416
10499W        W28023   8.151  18.078  12.003 -0.2552 -0.2190 -0.1209
10500W        W28024   1.944   5.104   0.703  0.1247 -0.1665 -0.1507
10501W        W28025   0.585  10.805  12.559  0.0107 -0.1298  0.0459
10502W        W28026   8.013  11.353   0.772  0.0985  0.1026  0.0077
10503W        W28027  17.928   3.231  12.075  0.3817  0.1000  0.1783
10504W        W28028   7.043   6.029  14.042  0.0287 -0.1290 -0.0727
10505W        W28029   7.713   0.863   1.335 -0.0244 -0.0210 -0.3584
10506W        W28030   4.937   4.021  11.393 -0.2011  0.0337 -0.2259
10507W        W28031   2.779  11.579   1.457 -0.0100 -0.3339  0.0123
10508W        W28032  10.882  18.140   3.256  0.4014 -0.0786  0.1206
10509W        W28033  15.218   7.941   4.424 -0.2244 -0.3147 -0.0546
10510W        W28034  12.987   9.318  13.234  0.0817 -0.0168 -0.0694
10511W        W28035   2.543  14.802  10.654 -0.0184 -0.1066 -0.2444
10512W        W28036  15.065  16.130  10.772 -0.1864 -0.0954 -0.2478
10513W        W28037  10.978   9.535   3.954  0.2852 -0.0317  0.2963
10514W        W28038   3.599   7.167  11.729 -0.1490  0.3860 -0.1124
10515W        W28039  18.006   7.836   2.385  0.3227  0.2205  0.2130
10516W        W28040   8.577  14.527   5.201 -0.0407  0.2189 -0.0589
10517W        W28041  10.742   3.403  11.783 -0.4136 -0.1444 -0.1066
10518W        W28042   1.070   8.080  13.596 -0.0741 -0.1396 -0.0427
10519W        W28043   6.167  14.529  14.811  0.2621 -0.0927  0.0210
10520W        W28044  17.315   3.141   4.649  0.2238 -0.0747 -0.1149
10521W        W28045  10.768   3.861   3.971 -0.0856  0.4420  0.1851
10522W        W28046   8.363  12.216  14.083 -0.0423  0.0689 -0.0799
10523W        W28047   1.215   6.310  15.501 -0.0742  0.0882  0.2042
10524W        W28048   7.385   3.748   2.546  0.0902 -0.1077 -0.1280
10525W        W28049  14.669   2.548   2.794 -0.0038 -0.1539 -0.4226
10526W        W28050   6.583  13.956   3.131  0.1524  0.0340  0.1754
10527W        W28051  13.352  12.189  15.142 -0.1787  0.0018  0.0758
10528W        W28052   4.943  18.220   0.720 -0.1515 -0.5138  0.1988
10529W        W28053  17.247   7.022  11.042 -0.1047 -0.1790 -0.1652
10530W        W28054   3.722   2.721  12.774  0.0623  0.4046 -0.0586
10531W        W28055  12.102  15.142   3.721  0.0617 -0.0405  0.1645
10532W        W28056  14.004  14.976  11.039  0.3893 -0.1000 -0.2057
10533W        W28057   3.818   7.223   2.307 -0.2003 -0.0935 -0.1477
10534W        W28058  16.881   9.458  14.587  0.2415  0.0512  0.1284
10535W        W28059  16.413  17.923   2.818 -0.0896  0.3539 -0.2880
10536W        W28060  12.531  12.169   3.038 -0.3244 -0.1027  0.3214
10537W        W28061   9.285  14.776  12.733  0.0063 -0.1558 -0.4564
10538W        W28062   1.032   3.384   1.426  0.1819  0.1241 -0.0690
10539W        W28063   9.646  13.323   1.903 -0.1545  0.0744 -0.0202
10540W        W28064  12.437  14.125  14.108 -0.0511 -0.2990 -0.1996
10541W        W28065   7.446   8.362  15.598 -0.0033  0.0211  0.2338
10542W        W28066   7.914   4.556   0.826  0.0166  0.2814 -0.1078
10543W        W28067  13.360   9.912  15.307  0.2246 -0.1860 -0.2749
10544W        W28068  15.660  11.689  10.536 -0.0741 -0.3983  0.3646
10545W        W28069  13.972   0.214   4.949 -0.0655  0.1309  0.3614
10546W        W28070   9.892  10.554   1.195 -0.0042 -0.0679  0.6001
10547W        W28071   1.120   4.052   0.208 -0.0080  0.1397 -0.4392
10548W        W28072  14.840   6.282   4.292  0.3239 -0.0340  0.0661
10549W        W28073  13.673  10.334   4.694 -0.0009  0.4015  0.1673
10550W        W28074   1.271  11.357  10.357 -0.0447  0.0177 -0.1753
10551W        W28075   2.362  15.113  14.591 -0.1972 -0.0228  0.2169
10552W        W28076   9.340  17.673  10.693  0.1074 -0.2156  0.2436
10553W        W28077   6.901   8.023  13.107 -0.2902 -0.1039  0.4758
10554W        W28078   3.193   6.486   2.594 -0.2461 -0.0249  0.2061
10555W        W28079   8.024   0.461   4.399 -0.0294 -0.0623 -0.0706
10556W        W28080   5.691   5.498  11.455 -0.0263 -0.1027 -0.1814
10557W        W28081   5.636  16.276   1.445  0.1874  0.0441 -0.1783
10558W        W28082   9.405  10.012   2.882 -0.0101  0.2769 -0.3800
10559W        W28083   5.979   3.616   1.471 -0.1301  0.1609 -0.1142
10560W        W28084   4.082   6.858   3.558 -0.0603 -0.0763 -0.2829
10561W        W28085  17.356  16.792   2.861 -0.0589  0.0919  0.0620
10562W        W28086   5.444  18.049   0.430 -0.1698  0.0021 -0.0925
10563W        W28087  13.036  16.848  11.844 -0.3044 -0.0279 -0.2132
10564W        W28088   9.591   6.914   0.141 -0.6813  0.1388 -0.0531
10565W        W28089  17.627   1.144  12.192 -0.0396 -0.1255 -0.4480
10566W        W28090  10.314  10.478   0.160  0.0165 -0.2468 -0.3627
10567W        W28091   4.047   0.417   4.507 -0.0491  0.0531  0.1966
10568W        W28092  15.542  15.213  14.189 -0.2118 -0.2169  0.3135
10569W        W28093   1.684   5.566  12.286  0.3259  0.2871 -0.1536
10570W        W28094   1.773   9.603   0.279  0.3835 -0.1894  0.2325
10571W        W28095   6.740   9.401   3.255 -0.0601 -0.0548 -0.1351
10572W        W28096  13.415  16.805   1.810 -0.2421  0.0321  0.0876
10573W        W28097   3.099  10.345   1.838 -0.4591 -0.0940 -0.1271
10574W        W28098   0.095  16.345   1.406  0.2138  0.0160 -0.0839
10575W        W28099  14.885   9.659   1.979 -0.2280 -0.0863  0.2946
10576W        W28100  13.203   0.281  15.786  0.2034  0.2007  0.3113
10577W        W28101   5.624  14.545   2.125 -0.1067  0.0541  0.1353
10578W        W28102  15.344  16.481  15.434  0.0211  0.1804 -0.1310
10579W        W28103  13.717   0.967  11.487  0.3485 -0.2900 -0.0310
10580W        W28104   1.333  17.235   4.751 -0.1081 -0.1220  0.2330
10581W        W28105   6.389   6.912   3.461 -0.1452  0.0559  0.0947
10582W        W28106   9.454   5.346   3.989  0.0405 -0.0464 -0.0711
10583W        W28107  10.124   7.229  14.403  0.2568  0.2300  0.0726
10584W        W28108   2.821  13.217  14.429 -0.0003  0.1729 -0.0047
10585W        W28109   8.679   3.312   0.900  0.1679  0.0075 -0.1561
10586W        W28110   2.051  17.194   2.736 -0.1480 -0.1519  0.1173
10587W        W28111   2.447   6.289  15.736 -0.2346  0.2608  0.0564
10588W        W28112  11.766  10.037   0.833 -0.0071  0.1651  0.0423
10589W        W28113   4.879   6.507   0.322  0.1437 -0.1005 -0.0613
10590W        W28114   9.261   3.229   1.074 -0.1701 -0.1534 -0.3352
10591W        W28115   9.493   7.576  12.466 -0.0348 -0.1995  0.0168
10592W        W28116  10.945   4.343  10.770  0.2480 -0.2374  0.1692
10593W        W28117   2.112   5.748   1.884 -0.0718  0.1176 -0.0173
10594W        W28118   3.618  12.051   2.941  0.0372  0.2100  0.1374
10595W        W28119   1.404  16.917  15.393 -0.0146 -0.0539 -0.1757
10596W        W28120   6.403  10.217  12.585  0.0985 -0.2302  0.1125
10597W        W28121  13.422  13.336   4.131 -0.1478  0.1883 -0.0938
10598W        W28122   8.608  10.782   3.298  0.1558 -0.0234 -0.1131
10599W        W28123  17.598  16.884  11.559  0.2370  0.1272  0.2695
10600W        W28124  17.891   3.318   1.295  0.0183 -0.0607 -0.0513
10601W        W28125  11.623   7.014  12.635  0.1266  0.5225 -0.0790
10602W        W28126   9.373   8.891   1.614  0.2102  0.0693  0.0934
10603W        W28127   0.589   5.097  13.390  0.0103 -0.0448  0.0311
10604W        W28128   1.260  15.183   5.035 -0.1133 -0.3356 -0.1902
10605W        W28129   4.001   6.420   3.286  0.1251 -0.0077 -0.1423
10606W        W28130  10.714   3.126  12.247  0.0449  0.1418 -0.1365
10607W        W28131  16.104  13.363  13.387  0.2863  0.1530 -0.0272
10608W        W28132   8.495   5.309  14.398  0.1023  0.0558 -0.0070
10609W        W28133   0.380  15.208  15.409  0.0192 -0.0735  0.0774
10610W        W28134   1.249   5.915  14.494 -0.2281  0.0342 -0.3379
10611W        W28135  16.549  16.139  12.395  0.4957 -0.1323  0.1102
10612W        W28136  10.922  17.013   2.941 -0.0423 -0.2566  0.1950
10613W        W28137  15.963  13.843   1.867  0.0093 -0.3546 -0.2141
10614W        W28138  10.072   4.380   0.665 -0.2676  0.3423  0.2231
10615W        W28139   3.465   8.788   4.679  0.0100 -0.2896 -0.0155
10616W        W28140   1.351   0.711   3.012 -0.0619 -0.5776  0.0302
10617W        W28141   6.949   4.719   1.626 -0.1925  0.0109  0.0310
10618W        W28142   7.074  16.473  14.567 -0.0563  0.0501  0.0422
10619W        W28143   1.597  16.317  14.956 -0.1187 -0.3237 -0.0651
10620W        W28144  12.234  16.161   0.811 -0.1607 -0.0390 -0.1328
10621W        W28145   5.837  11.302  12.696  0.1630  0.0763 -0.2075
10622W        W28146   4.981  15.849   3.033  0.3519 -0.0492  0.2593
10623W        W28147  13.337   8.793  12.195  0.2263 -0.0877  0.1269
10624W        W28148   7.281  12.822   0.161  0.1014  0.0479 -0.1309
10625W        W28149  13.295   2.771   5.851 -0.0292  0.0866  0.0292
10626W        W28150  14.561  10.010   4.307 -0.1098  0.1094 -0.0831
10627W        W28151   8.480   3.897  14.155 -0.0087 -0.1191  0.4184
10628W        W28152  17.431  11.734  12.678  0.0360  0.1665  0.5594
10629W        W28153   2.205  17.436   4.418 -0.0251  0.1914 -0.0618
10630W        W28154   3.743  13.479   1.180 -0.0846 -0.1112  0.1778
10631W        W28155  14.552  18.359  12.376 -0.1738  0.0776  0.4352
10632W        W28156  10.877   4.765   1.933 -0.2073  0.1513 -0.0049
10633W        W28157   4.589  16.947  13.047 -0.0791 -0.1038  0.4611
10634W        W28158  11.779   8.591   4.899  0.0456  0.0866  0.3349
10635W        W28159   3.792   4.203   3.939  0.0631  0.1720  0.2708
10636W        W28160  11.095   8.879  12.879 -0.0530  0.4728 -0.1922
10637W        W28161   8.512   7.459   3.300 -0.3343 -0.0346  0.0736
10638W        W28162  15.586   5.876  12.894  0.6139 -0.0669  0.2374
10639W        W28163   4.275   7.408   2.064  0.1090  0.1423 -0.0427
10640W        W28164   6.069   6.198   2.444  0.0531 -0.2068  0.1750
10641W        W28165   8.311  14.598   4.267 -0.0633  0.0147  0.1078
10642W        W28166  14.984   9.972   0.513 -0.0540  0.1443 -0.0868
10643W        W28167   0.602  12.359   2.228  0.1217 -0.1797 -0.0987
10644W        W28168   8.071   0.389   0.022 -0.0227 -0.0723  0.1354
10645W        W28169  16.007   4.702  11.489  0.1501  0.0824 -0.1839
10646W        W28170  14.082   0.732  11.778 -0.1142  0.0491 -0.2386
10647W        W28171   9.982   7.452  15.681  0.1875  0.1997  0.0035
10648W        W28172  18.047  13.853   3.760  0.0755  0.1232  0.3759
10649W        W28173   1.066   4.955   0.670 -0.3756 -0.0589  0.1378
10650W        W28174   2.192  14.950   0.017 -0.3754 -0.3226 -0.1269
10651W        W28175   9.904  17.059  15.310  0.0056  0.1876  0.1372
10652W        W28176   0.249   5.816  11.287  0.0602  0.1505 -0.1797
10653W        W28177  13.731   3.281   4.551 -0.1395 -0.1246  0.1003
10654W        W28178  12.287   0.922  13.555  0.0785 -0.4309 -0.2598
10655W        W28179   7.483  10.243  11.762 -0.0977  0.2237 -0.3193
10656W        W28180   4.063  16.491   3.834  0.2349  0.0838  0.4414
10657W        W28181  13.481   3.956   0.046  0.0571 -0.1037  0.0545
10658W        W28182  18.325   0.678  15.242 -0.2709 -0.0725  0.0946
10659W        W28183  10.880   4.434   4.182 -0.0407  0.1627 -0.1316
10660W        W28184  14.352   9.314  14.730 -0.2401 -0.3757  0.0204
10661W        W28185   8.865  18.347   3.408  0.1711 -0.2241 -0.1164
10662W        W28186   6.470   9.359  13.083 -0.2530  0.0631  0.1458
10663W        W28187   7.395   5.054   0.469  0.1879 -0.0240  0.0967
10664W        W28188   4.485  12.360  11.817 -0.1495  0.1211 -0.1475
10665W        W28189   4.336   3.366   1.588  0.2108  0.0166 -0.0305
10666W        W28190  17.044  14.561  11.234 -0.2710 -0.0574  0.0207
10667W        W28191   6.522   0.704   1.810 -0.1414  0.1438 -0.2322
10668W        W28192  16.495  15.367  14.144  0.1292 -0.2697  0.0735
10669W        W28193   0.999  17.160   4.187 -0.1771 -0.0681 -0.0746
10670W        W28194  17.945   4.187   2.341  0.0596  0.2142 -0.1045
10671W        W28195  12.032  15.733   2.353  0.0575 -0.0830  0.0120
10672W        W28196   3.346   7.253   3.196  0.5196 -0.0729 -0.0541
10673W        W28197  10.366   4.828  12.550 -0.2758  0.0695  0.2020
10674W        W28198   3.254   9.713  14.702  0.0634 -0.1115  0.1708
10675W        W28199   0.161  13.311  11.962 -0.0219  0.2075 -0.2640
10676W        W28200   3.228   7.476   1.373 -0.2337 -0.1595  0.0988
10677W        W28201   7.855  10.855   4.061 -0.1083 -0.1462 -0.0263
10678W        W28202   4.897   2.996   2.357  0.1187  0.3278 -0.0644
10679W        W28203  11.561   6.031  14.879  0.2241  0.1615 -0.0105
10680W        W28204  10.628   5.122  13.169  0.2236 -0.0516  0.0920
10681W        W28205   2.118   7.686   3.559 -0.1103  0.1119 -0.1403
10682W        W28206   1.560   8.482  13.744 -0.0560  0.0968 -0.0724
10683W        W28207  11.825   5.880  14.000 -0.0574  0.1228  0.1513
10684W        W28208   1.002  13.424   4.161 -0.0940  0.1628 -0.1850
10685W        W28209   5.580  16.331   4.666  0.3238  0.1056 -0.1427
10686W        W28210   5.017   2.939  12.176 -0.2265  0.1393 -0.1248
10687W        W28211  13.590  15.339  13.470  0.2161 -0.3261 -0.0901
10688W        W28212  11.659  14.764  15.597 -0.0486  0.3641 -0.0479
10689W        W28213  14.721   0.577  13.047  0.1778  0.0970  0.0549
10690W        W28214   6.866  15.156  11.795 -0.3850  0.2391  0.1736
10691W        W28215   1.907  14.807   4.656  0.0553  0.4577 -0.0433
10692W        W28216   8.821   5.503   2.477  0.0586 -0.1226  0.0100
10693W        W28217  10.734  14.045   3.119 -0.1411  0.1729 -0.1294
10694W        W28218   6.463  14.699  11.692 -0.0537  0.1409  0.0641
10695W        W28219   2.283   7.483  11.213 -0.1572  0.2423 -0.0762
10696W        W28220  12.843   7.557  11.441  0.0789 -0.1195  0.0915
10697W        W28221   3.421   6.118  14.777  0.0999 -0.0908 -0.0991
10698W        W28222  16.896   1.674  11.991  0.1613  0.0542  0.1688
10699W        W28223   5.100  15.770   1.379 -0.1045 -0.3429 -0.0671
10700W        W28224   0.858  13.298   1.271  0.1833  0.2469 -0.0576
10701W        W28225   1.504  10.356  15.168  0.0859 -0.0090  0.2623
10702W        W28226   9.544   6.943  15.150  0.3677 -0.1567  0.0921
10703W        W28227   2.618   1.609  14.914  0.1506  0.2790  0.3335
10704W        W28228   8.501  15.906   2.768  0.3217 -0.3220 -0.0779
10705W        W28229   8.316  12.935   3.809 -0.0135  0.1086  0.1475
10706W        W28230   6.724  10.823  14.365 -0.0295  0.0971 -0.0415
10707W        W28231   4.392  10.086  12.937 -0.1168 -0.0081 -0.0630
10708W        W28232  16.969  10.154   2.680  0.0601 -0.0191 -0.3663
10709W        W28233   8.034   1.925   3.693 -0.2198 -0.1250 -0.0152
10710W        W28234   7.653  14.425  14.266  0.0750 -0.0621 -0.6182
10711W        W28235   8.434  13.674  10.108 -0.1698 -0.0830  0.1297
10712W        W28236   2.591   9.944  13.813 -0.1724 -0.1108  0.1951
10713W        W28237   1.508  14.263  10.459 -0.0775  0.4178 -0.0293
10714W        W28238  13.095  17.188   1.566  0.0491 -0.0363 -0.1913
10715W        W28239  14.408  11.001   1.690 -0.1703 -0.0105  0.1245
10716W        W28240  11.792  11.409  11.444  0.0572  0.3426  0.0078
10717W        W28241  14.256  11.197   0.254  0.0241  0.3289  0.2056
10718W        W28242   5.226   3.570   2.853  0.1799  0.0346 -0.1608
10719W        W28243  11.821  10.955   0.609 -0.0574 -0.2225 -0.0426
10720W        W28244   6.020  11.016   0.480  0.1076 -0.1113 -0.0493
10721W        W28245  14.638   9.172  15.292  0.1317 -0.2576 -0.0771
10722W        W28246   2.572   4.518   0.492  0.1607  0.2414 -0.0943
10723W        W28247  11.266   7.879  11.962 -0.3893 -0.0027 -0.2036
10724W        W28248  17.897   8.390   0.807  0.0176 -0.0687  0.0392
10725W        W28249   8.388  15.472   4.149  0.0670  0.0317  0.3420
10726W        W28250   1.353   9.972  12.533  0.1873  0.0140  0.2551
10727W        W28251  12.778   5.341  11.040  0.1180 -0.3093 -0.4270
10728W        W28252  17.862  11.656  14.822  0.2941 -0.1332  0.1031
10729W        W28253   0.670   2.339   4.092  0.3311  0.1426  0.0747
10730W        W28254   9.185   0.301   1.257 -0.1864  0.0988  0.4588
10731W        W28255  17.091   4.618   3.416 -0.3172  0.0643  0.1036
10732W        W28256   9.991  16.807   5.879  0.1616  0.0175 -0.1278
10733W        W28257   5.810  17.003  13.029 -0.1750 -0.3225 -0.2219
10734W        W28258   4.632  15.012   3.097 -0.4164  0.4887  0.0575
10735W        W28259   4.519  10.248   0.379  0.1237 -0.2195  0.0616
10736W        W28260   0.006  15.893  12.228 -0.0141 -0.0385  0.2337
10737W        W28261   5.096   6.073  13.227 -0.2588  0.1182 -0.2022
10738W        W28262  10.322   6.758  14.493 -0.2339  0.0012  0.3332
10739W        W28263  16.631   6.439  13.807  0.1206 -0.3110 -0.4396
10740W        W28264   9.958   0.949   1.041  0.1781  0.2418 -0.2820
10741W        W28265   0.964   4.865  13.667 -0.1731  0.1750  0.1536
10742W        W28266  10.744   5.352  12.316 -0.0903 -0.0612  0.1389
10743W        W28267   5.836   8.451  15.756  0.0027 -0.1199 -0.2397
10744W        W28268  12.340  17.999  14.975  0.3575  0.1578  0.1266
10745W        W28269  10.711   0.232  13.952 -0.0802 -0.1801 -0.0330
10746W        W28270   6.347   8.666  14.956  0.1429 -0.6873  0.1944
10747W        W28271   8.825  11.529   4.380  0.3637 -0.0560 -0.1849
10748W        W28272   2.994   8.242   1.042  0.0389  0.0926  0.0825
10749W        W28273  12.792   2.085  12.587  0.1593  0.0080  0.1630
10750W        W28274   6.634  12.787   2.929  0.1998  0.1854  0.2048
10751W        W28275   5.584  15.326   4.098  0.2571  0.0703 -0.3860
10752W        W28276   4.195   5.346  10.642 -0.4308 -0.2239 -0.0125
10753W        W28277   2.341  17.632  15.788 -0.1628  0.0606  0.1156
10754W        W28278   6.379   6.426   2.982  0.0097 -0.2854  0.1476
10755W        W28279  18.320   2.404  12.163 -0.0117  0.2405 -0.1681
10756W        W28280  11.923  14.413  12.455 -0.2399  0.0830  0.0648
10757W        W28281   8.332  14.638  15.259  0.0199  0.0722 -0.1045
10758W        W28282   0.400   1.569  10.078 -0.2438 -0.1679  0.0884
10759W        W28283   0.092   6.560  11.033 -0.1908 -0.2117 -0.1153
10760W        W28284   4.318  16.931   1.591 -0.2468  0.2644 -0.2232
10761W        W28285   5.823   6.057   3.816 -0.1369 -0.2826 -0.2351
10762W        W28286  10.549  17.653  15.836  0.0280  0.1871  0.0553
10763W        W28287   4.814  12.849   2.825  0.0469  0.2678 -0.1159
10764W        W28288  17.639   8.480   5.795 -0.2557 -0.0315  0.3831
10765W        W28289  17.498   6.176  11.189  0.0936  0.1688  0.0083
10766W        W28290   5.150   5.686  12.341 -0.1534 -0.0576  0.5144
10767W        W28291  11.793   0.340   1.478  0.5527 -0.5309 -0.1942
10768W        W28292  10.147   8.521  11.689  0.0188 -0.0670  0.0348
10769W        W28293  18.284   6.105   2.570  0.0235  0.2064  0.1213
10770W        W28294  12.019   4.580  12.345  0.1062  0.0966 -0.2190
10771W        W28295  14.002   0.026  14.439 -0.0013  0.2879  0.3388
10772W        W28296  15.417  15.217  14.704  0.0999  0.1028  0.1533
10773W        W28297   1.657  16.149   3.011 -0.0609 -0.0297  0.0505
10774W        W28298  11.932  16.323  13.428  0.0227 -0.1078 -0.3079
10775W        W28299   2.104  13.971   9.558  0.1547 -0.2756  0.2403
10776W        W28300  12.673   5.910  15.807  0.3002  0.2437  0.1603
10777W        W28301   0.692  10.946  13.111 -0.2923 -0.3438  0.0751
10778W        W28302   2.740  14.522  11.666  0.1350  0.1846 -0.0372
10779W        W28303   0.384   7.975   0.617 -0.1037 -0.4516 -0.0793
10780W        W28304  18.413  11.722  13.118 -0.1720  0.1464 -0.2216
10781W        W28305   9.526  14.103   4.074  0.0552  0.1545  0.1753
10782W        W28306   7.028   2.336  13.685 -0.1922  0.1711 -0.0073
10783W        W28307   1.331  11.946  14.360  0.0154  0.2182  0.0402
10784W        W28308   9.844   5.814   1.963  0.1045  0.0265 -0.1353
10785W        W28309   7.301  14.528  11.183  0.5180  0.1361 -0.1475
10786W        W28310   4.075   5.156   4.198  0.0266  0.0954  0.0232
10787W        W28311  13.845   8.231   1.296 -0.2658 -0.1940 -0.2954
10788W        W28312   8.672   4.668   2.561 -0.1739  0.3639 -0.2056
10789W        W28313   2.762  15.113   3.363  0.0204 -0.3712 -0.3771
10790W        W28314  12.108   3.675  14.461 -0.1218 -0.0323  0.0801
10791W        W28315  15.256  14.458   0.844 -0.1146  0.1349 -0.1371
10792W        W28316   8.110  10.450  11.250 -0.1728  0.0151  0.2412
10793W        W28317   9.988   9.656  13.166 -0.0464 -0.2456 -0.1128
10794W        W28318  11.498  12.554   4.401 -0.1219 -0.1197  0.3700
10795W        W28319   1.400  13.494  13.708 -0.3780 -0.0685 -0.4935
10796W        W28320  12.045  10.908  14.839 -0.0088 -0.4630 -0.2443
10797W        W28321  17.356   7.410   3.704  0.1697  0.1570  0.0637
10798W        W28322  13.610  13.314  11.660  0.0464  0.3655 -0.0699
10799W        W28323  18.137   9.763  12.860  0.2794 -0.0156 -0.1765
10800W        W28324  15.230  15.392   5.335 -0.0057  0.1663  0.3203
10801W        W28325   8.874   1.312   4.882 -0.3704 -0.0143  0.1874
10802W        W28326   9.557   5.615  13.281  0.1311  0.2474 -0.2305
10803W        W28327  12.048  18.195   0.777 -0.2183 -0.1123  0.0125
10804W        W28328   3.447   4.152   3.491  0.3528 -0.0488 -0.1966
10805W        W28329   4.408   1.203  15.150  0.1085 -0.3238  0.0639
10806W        W28330  11.126   5.749  11.611  0.1993  0.0555  0.0935
10807W        W28331  18.247  14.646   4.315  0.0897 -0.1646  0.2657
10808W        W28332   1.406   1.822   1.123  0.3343  0.0000  0.1171
10809W        W28333  17.656   7.315   3.102 -0.1808  0.1902  0.1770
10810W        W28334   9.973  14.144  15.569 -0.1164  0.1132 -0.1235
10811W        W28335   3.273  18.001  13.753 -0.0491  0.0392 -0.2117
10812W        W28336   9.280  10.300   1.379 -0.0888 -0.0446  0.1544
10813W        W28337   2.733  14.199   3.518 -0.2357 -0.1612 -0.2181
10814W        W28338  17.015   9.982   5.976  0.2777  0.2580 -0.2884
10815W        W28339   1.372   7.363   0.348 -0.2063  0.1098 -0.1671
10816W        W28340  15.331   6.115   4.294 -0.1086  0.2228  0.3212
10817W        W28341   1.879   4.635   4.493  0.0425 -0.0101 -0.0520
10818W        W28342  12.760  11.166  14.231 -0.0857  0.0615  0.0878
10819W        W28343   3.164  15.855  14.512  0.2717  0.2703 -0.1478
10820W        W28344  15.109   1.436   3.642 -0.1387 -0.1810 -0.3544
10821W        W28345   6.094   1.482  15.598 -0.2038 -0.3398  0.0949
10822W        W28346  15.552  17.332  14.168  0.1221  0.0897  0.0903
10823W        W28347   9.022   2.807   1.780  0.2374  0.1147  0.1670
10824W        W28348   4.647  14.481   2.610 -0.2364  0.1078 -0.0279
10825W        W28349   5.568  15.646  15.381 -0.0900 -0.2539  0.1278
10826W        W28350   0.518  10.401   4.711 -0.1709  0.0509  0.0837
10827W        W28351  10.455   8.738  13.468 -0.2760 -0.3704 -0.3861
10828W        W28352   7.163   3.470  13.356  0.0834 -0.5291 -0.2068
10829W        W28353   2.089  10.054  11.101  0.2478  0.1093  0.0185
10830W        W28354   3.556  17.929  12.645  0.0813  0.0845  0.0656
10831W        W28355  15.679   4.778  15.658 -0.0303  0.0340  0.0037
10832W        W28356  14.535   8.032  14.470  0.0547  0.5823  0.1381
10833W        W28357   8.637  15.701  12.542  0.0234  0.0105  0.1584
10834W        W28358  12.468  12.532  14.967 -0.1515 -0.2706 -0.0704
10835W        W28359   3.631  10.526   2.134  0.1194  0.1979 -0.0134
10836W        W28360  15.556   6.130  10.864  0.1032  0.1380 -0.0524
10837W        W28361   9.547   9.485   1.588 -0.0284  0.3607  0.3685
10838W        W28362   0.354   3.661  15.730 -0.0746 -0.0187 -0.0815
10839W        W28363  11.597   3.167   1.640  0.1619 -0.0183  0.1305
10840W        W28364  15.686   0.711  14.676  0.3540 -0.0642  0.0994
10841W        W28365  13.080   9.288  12.320  0.2036  0.0046 -0.2414
10842W        W28366  14.794   8.418  11.357 -0.0687 -0.5340  0.0625
10843W        W28367  18.081   6.910  14.365 -0.1166 -0.2209 -0.0301
10844W        W28368  12.598  12.080   4.373 -0.0748  0.2817  0.1366
10845W        W28369   0.544  15.162   1.423 -0.0330 -0.2787 -0.0617
10846W        W28370  11.275   3.814   3.210  0.1508  0.0929  0.1669
10847W        W28371   5.929  17.595  12.720  0.0682 -0.0499 -0.0256
10848W        W28372   7.170  16.363   0.771 -0.1110  0.1161  0.4496
10849W        W28373   7.850  15.241   2.496 -0.2673  0.1902  0.0022
10850W        W28374   5.985   4.555   4.216  0.0367 -0.0548 -0.1252
10851W        W28375   3.977  14.620   4.345 -0.1560 -0.0539  0.1804
10852W        W28376   5.517  11.698  13.399 -0.1227 -0.0709  0.0289
10853W        W28377  11.430  13.535   4.435 -0.1145  0.3050 -0.2620
10854W        W28378   1.801   5.964   3.389  0.0762  0.0915  0.0835
10855W        W28379  12.054  10.429  12.210  0.0187  0.2239  0.1646
10856W        W28380   7.745  14.517   0.943  0.2144  0.1591  0.1395
10857W        W28381  16.137   3.847  15.070  0.1377  0.0978 -0.1286
10858W        W28382   3.957   4.791  14.928 -0.1039  0.4266 -0.0296
10859W        W28383   0.652   0.769   2.485 -0.0719  0.1296 -0.1101
10860W        W28384  14.705   3.475  14.685 -0.1377 -0.1578  0.1128
10861W        W28385   2.397  13.790  12.600  0.0661 -0.0457 -0.2332
10862W        W28386  17.331   2.975  13.525  0.0650  0.0542  0.1466
10863W        W28387   4.288  13.696   3.155  0.4658 -0.0536 -0.2922
10864W        W28388  12.334   3.218   2.040 -0.0850 -0.1319  0.2994
10865W        W28389  12.716  15.548   3.573  0.0322  0.0128 -0.0091
10866W        W28390   4.901  11.195   2.327  0.0309 -0.1762  0.2009
10867W        W28391   7.314   9.133  10.884  0.0343  0.0742  0.0793
10868W        W28392  14.065   9.173  13.723 -0.3650  0.1333 -0.0120
10869W        W28393  17.554  13.453   0.414 -0.2511  0.0019 -0.0725
10870W        W28394   0.758  17.927  11.663 -0.0958 -0.0245  0.0683
10871W        W28395   5.666  17.980  12.886  0.0214  0.0451 -0.0262
10872W        W28396  17.898   9.119  13.671  0.2480 -0.1969 -0.0041
10873W        W28397   3.772   2.641  14.248  0.0311 -0.4384  0.1120
10874W        W28398  14.833  18.015   2.102 -0.0395 -0.2040  0.0993
10875W        W28399  11.432   8.613  13.091 -0.1378  0.0527 -0.2351
10876W        W28400  13.506   3.106   0.690  0.1786 -0.1887  0.0543
10877W        W28401   0.587   5.648  13.342  0.0996  0.2949  0.0144
10878W        W28402  18.378   2.693   3.474 -0.0365 -0.0516  0.0448
10879W        W28403   2.105  16.886   5.355 -0.1347  0.0982  0.1450
10880W        W28404   0.483   7.519   0.344 -0.3694  0.0237 -0.0829
10881W        W28405   8.896   1.172  12.179  0.3314  0.0932  0.0816
10882W        W28406   0.561  13.617   4.404  0.0760 -0.0775  0.0564
10883W        W28407   5.312   0.980  12.560 -0.4891  0.2554 -0.2051
10884W        W28408  18.222   5.285   0.653 -0.0016 -0.1962 -0.2237
10885W        W28409  13.545  12.728  15.636 -0.2724  0.1482  0.1994
10886W        W28410  16.860   7.662  12.429 -0.0130 -0.0820 -0.0481
10887W        W28411  11.695   0.461  14.018 -0.0635 -0.0504  0.2328
10888W        W28412   4.852   4.944   3.428 -0.1780  0.0993  0.0028
10889W        W28413   6.656   2.155   2.836  0.0957 -0.0722 -0.5200
10890W        W28414   1.446   1.277  12.755 -0.2407  0.0251 -0.2472
10891W        W28415   9.108   6.041   0.247 -0.4449  0.4463  0.2708
10892W        W28416   1.439   2.916  11.327  0.0658  0.0654  0.3516
10893W        W28417  17.512   6.711   0.147  0.0344  0.1392 -0.2121
10894W        W28418   9.038   0.954  14.629  0.0583 -0.0775 -0.2558
10895W        W28419  17.412   7.479  13.402 -0.0694 -0.1708  0.1515
10896W        W28420   7.503  11.074  14.781  0.0676  0.1322 -0.0196
10897W        W28421   1.415   4.865   5.198 -0.1739  0.0370 -0.1130
10898W        W28422   2.000  15.757   3.074 -0.2055  0.2241  0.1741
10899W        W28423  11.450  11.033   4.835  0.0662 -0.2530 -0.1419
10900W        W28424   2.711   8.069  14.421  0.0621 -0.1493 -0.2042
10901W        W28425  18.041   4.210  15.593 -0.0264 -0.3909  0.0614
10902W        W28426   8.249  15.784   0.325  0.0370  0.1259  0.2596
10903W        W28427  11.342   0.193   3.582 -0.1332  0.1021  0.2637
10904W        W28428   0.165   6.695   3.898  0.2451 -0.0138 -0.1353
10905W        W28429  18.345   3.292  13.362  0.0609  0.0844  0.0538
10906W        W28430   1.159   9.883   2.169  0.2149 -0.1045 -0.1123
10907W        W28431   6.654  14.368   0.299 -0.1101 -0.0583  0.1475
10908W        W28432   8.141   9.319   1.304  0.0647  0.0918 -0.0815
10909W        W28433   7.730   5.400  11.952 -0.1960  0.1783 -0.1258
10910W        W28434   5.825   9.995  14.369 -0.1371 -0.0050 -0.0086
10911W        W28435  10.437  17.052  15.432  0.0248 -0.1230  0.2857
10912W        W28436  18.046   9.993  13.715  0.0282 -0.1513 -0.0917
10913W        W28437   6.985   8.082  15.533  0.3836 -0.1899  0.2004
10914W        W28438   2.330  12.965   0.541  0.1462  0.0750  0.0438
10915W        W28439  14.039   2.074   1.901  0.0744 -0.3256 -0.3168
10916W        W28440  10.694   8.196   0.434 -0.0466 -0.2049 -0.2631
10917W        W28441   3.375  14.815   2.172  0.0693 -0.0785 -0.1918
10918W        W28442  10.191  10.396   2.633  0.1953  0.2897  0.3739
10919W        W28443  10.374  11.165  14.415 -0.2592  0.1241  0.0249
10920W        W28444   3.923   8.471   0.767  0.1988  0.0134 -0.1552
10921W        W28445   5.680   7.836  10.460 -0.2602 -0.0873  0.0685
10922W        W28446  14.655  13.700  12.524  0.0189 -0.1452 -0.0597
10923W        W28447   1.146   7.844  11.790  0.1117  0.1597  0.0740
10924W        W28448   9.134   7.971   5.064  0.1863 -0.0297  0.4158
10925W        W28449  11.034  15.323  12.459 -0.2610 -0.0538  0.1326
10926W        W28450   4.770   8.337   0.997  0.3809 -0.0876 -0.2774
10927W        W28451  17.131   2.470  14.344  0.1399  0.1923  0.1826
10928W        W28452   6.119  12.704  14.025  0.2446  0.2609 -0.0217
10929W        W28453  14.073  15.058   3.245 -0.1433  0.0569  0.0431
10930W        W28454  17.393  10.944   0.645  0.0546 -0.1161  0.0374
10931W        W28455  14.990  12.579   3.489  0.2268 -0.0217  0.1419
10932W        W28456   5.441   9.882  14.744 -0.0754  0.0975  0.2952
10933W        W28457  18.375   4.096   0.080  0.1854  0.3761 -0.1655
10934W        W28458   7.693  15.955   2.193 -0.0791  0.0425 -0.2219
10935W        W28459  18.160   5.339  15.505  0.0822 -0.1599 -0.1216
10936W        W28460   7.497  10.009   0.159 -0.1519 -0.0468 -0.1120
10937W        W28461   7.546   3.513  14.386  0.2537  0.0928  0.1372
10938W        W28462   4.208   5.019   2.748  0.2520  0.1074  0.1115
10939W        W28463   1.121  11.631   4.656  0.0423  0.0699 -0.0493
10940W        W28464   4.890   6.483  11.272 -0.2894  0.0279 -0.2283
10941W        W28465  16.695   4.063   4.767 -0.0760  0.1092  0.1370
10942W        W28466   0.726  13.827  13.030  0.1479 -0.1728 -0.6090
10943W        W28467  17.336  11.274  11.451 -0.0305 -0.3203  0.2329
10944W        W28468   8.769   8.655  15.159 -0.1577  0.1263 -0.0708
10945W        W28469   8.777   8.023   4.731  0.2199 -0.0861  0.0184
10946W        W28470  13.997  17.841  13.708  0.0664  0.0244 -0.1011
10947W        W28471   2.891   4.860   3.702 -0.0498 -0.0806 -0.0517
10948W        W28472   8.005   1.321   3.143  0.0506 -0.0830 -0.0741
10949W        W28473   7.107  13.587   0.695 -0.3963  0.0810 -0.1342
10950W        W28474   9.704   8.921  12.742  0.0955 -0.0251 -0.2858
10951W        W28475   8.739   5.399  11.981 -0.2053  0.2255  0.4165
10952W        W28476  11.380   4.542  12.137  0.0025 -0.0286  0.0704
10953W        W28477   9.014   2.549  11.531  0.0903 -0.0977 -0.0326
10954W        W28478   2.643  17.834  12.544  0.1677 -0.0904 -0.1209
10955W        W28479   6.988  12.101   0.445  0.2190  0.2093  0.0452
10956W        W28480   2.606   2.245  14.685 -0.1309 -0.1508  0.0164
10957W        W28481  14.677   5.496  10.964  0.2778  0.1392 -0.2242
10958W        W28482   6.008  14.703  15.652 -0.2546 -0.0489  0.0131
10959W        W28483  12.468  14.252   4.180  0.2289  0.1141 -0.1293
10960W        W28484   9.402  12.451  10.768 -0.0680  0.0340  0.4243
10961W        W28485   5.471   3.151   0.590 -0.2651  0.1593 -0.0829
10962W        W28486   5.025  13.233  11.788  0.0919 -0.2836 -0.0687
10963W        W28487  11.366  14.066  12.706 -0.2437  0.1024  0.0250
10964W        W28488  17.937   2.041   3.994 -0.0127 -0.3848  0.2702
10965W        W28489   9.225  10.146   3.357 -0.2492 -0.0683 -0.0263
10966W        W28490   8.675  17.649   3.947 -0.1118  0.1009 -0.2699
10967W        W28491   9.000  14.409  13.144  0.0983 -0.3293  0.0126
10968W        W28492   8.342   3.742  15.341 -0.1660 -0.2017  0.0236
10969W        W28493   2.051  17.958   4.806  0.2065 -0.2966  0.2657
10970W        W28494   4.960  15.098   0.682  0.1287 -0.0568 -0.5435
10971W        W28495  14.177   3.072  14.517 -0.3311  0.0294  0.0404
10972W        W28496  14.546  15.845   0.219  0.0761  0.1975 -0.1343
10973W        W28497   4.285  16.407   0.699  0.1383  0.1451 -0.2776
10974W        W28498   0.260   9.317  13.381 -0.0857 -0.2342  0.0704
10975W        W28499   3.586  12.225  11.595 -0.0144  0.4472 -0.2682
10976W        W28500   2.627   7.968  12.133  0.0636  0.2440  0.0681
10977W        W28501  10.339  10.607  14.403  0.0189 -0.0011  0.0007
10978W        W28502  13.820   8.946   1.188  0.5245  0.2894  0.2932
10979W        W28503   6.639   2.826   1.226 -0.0351  0.0765  0.0698
10980W        W28504   2.793   3.798   4.600  0.5339 -0.0794 -0.1804
10981W        W28505  15.861   4.304   2.098  0.1363  0.2924 -0.2346
10982W        W28506  16.186   2.627   3.031 -0.3437 -0.0922  0.1029
10983W        W28507  17.082   5.551  13.439  0.1915  0.1472  0.1506
10984W        W28508   7.605  13.462   1.699  0.0580 -0.1130 -0.2351
10985W        W28509  15.366  17.556   0.248  0.1685 -0.0610 -0.0930
10986W        W28510   8.602  11.593  10.973  0.1514 -0.1624 -0.3493
10987W        W28511  12.986   3.022  15.669 -0.1081 -0.0719 -0.1653
10988W        W28512   6.915  15.982   1.044  0.1739  0.0142  0.1533
10989W        W28513   8.627   0.166  10.989 -0.0420 -0.2617  0.1155
10990W        W28514   7.978  12.961   2.431 -0.1504 -0.2745 -0.0291
10991W        W28515  16.884   3.885   5.455  0.1482 -0.1805  0.0807
10992W        W28516   3.500   0.543  14.335  0.2642 -0.0511 -0.1233
10993W        W28517  12.378   9.489   2.763  0.4040  0.2523 -0.0058
10994W        W28518   3.906   9.800   3.938  0.0298  0.0074 -0.3806
10995W        W28519  12.179   9.861   1.542 -0.0762 -0.4871 -0.2409
10996W        W28520  16.619  12.575  15.661  0.1983  0.0233  0.2584
10997W        W28521   7.514   1.231   2.258 -0.0879  0.0623 -0.1176
10998W        W28522  13.712  15.819   3.448  0.0252 -0.3214  0.2077
10999W        W28523   2.369  13.491   5.070  0.2370 -0.1071 -0.1525
11000W        W28524  12.779  14.980  14.029  0.1892 -0.3157  0.1977
11001W        W28525   6.560   1.417  15.188  0.0504  0.1427  0.1285
11002W        W28526   9.806  13.756  15.006 -0.1329 -0.3404  0.0021
11003W        W28527  16.758  17.818   1.816 -0.1805 -0.0492 -0.2482
11004W        W28528   3.724  11.405   1.856 -0.2517  0.3289  0.0522
11005W        W28529  14.345   4.807  13.856  0.1395 -0.0770 -0.0354
11006W        W28530   3.498  13.780  12.421  0.2260 -0.2598  0.0132
11007W        W28531  16.091   6.718  15.190 -0.3137 -0.2643 -0.0334
11008W        W28532  16.295  10.947  14.045  0.2502 -0.3221 -0.1103
11009W        W28533   7.022   3.173   2.490 -0.0130  0.2361 -0.0921
11010W        W28534  15.274   1.996   2.482 -0.4231  0.2792 -0.0743
11011W        W28535  14.008   5.108   3.754 -0.3805  0.1192  0.1076
11012W        W28536   1.976  16.851   2.011 -0.0645  0.1301 -0.2314
11013W        W28537   6.473  12.075   1.721  0.2942 -0.1802  0.2093
11014W        W28538   0.115   5.329   3.083 -0.1735  0.0845  0.0334
11015W        W28539  11.000  17.693  10.357 -0.4798  0.4073  0.1390
11016W        W28540   0.551  12.222  14.213 -0.2484  0.2406  0.0446
11017W        W28541  16.696  16.997  15.104  0.1267  0.2591 -0.3226
11018W        W28542  16.460   0.909   3.766 -0.0908  0.0574 -0.2797
11019W        W28543  10.541   9.010   1.072  0.0135  0.2577  0.0417
11020W        W28544  11.718   8.664  14.334 -0.2535 -0.0831  0.2530
11021W        W28545   9.071  17.269   4.767  0.0365 -0.2853  0.2054
11022W        W28546  15.574  13.906  11.827 -0.0962 -0.2439 -0.0551
11023W        W28547  16.896   0.608  11.012 -0.0205 -0.0622  0.2102
11024W        W28548  15.793  13.892   1.384 -0.7281  0.1021  0.1488
11025W        W28549   5.143   8.068  13.250  0.2204 -0.1837 -0.3371
11026W        W28550  15.696   8.906   4.651  0.1394 -0.3856 -0.1882
11027W        W28551   8.763  16.007  15.717  0.1322  0.1836 -0.1323
11028W        W28552  15.414  17.974   4.898 -0.2429 -0.1204  0.0293
11029W        W28553  16.972  13.860   3.659 -0.0605 -0.4113  0.0588
11030W        W28554   1.049  10.825  12.735 -0.2360  0.2229 -0.3450
11031W        W28555   0.619   3.693  13.799 -0.0681 -0.1555 -0.0503
11032W        W28556  16.111  18.028   2.418  0.0924  0.1237 -0.4531
11033W        W28557   1.872  12.776  13.802  0.0156  0.1055 -0.1090
11034W        W28558   5.273  13.593   3.444 -0.1907  0.1273  0.1310
11035W        W28559   8.891   5.638  13.921 -0.1472  0.1321  0.2686
11036W        W28560  14.415   4.870  15.151 -0.0170  0.0885 -0.3479
11037W        W28561   2.814  12.564   1.240 -0.1477 -0.3553  0.1152
11038W        W28562   8.720   1.561  13.661 -0.3682 -0.1240  0.1884
11039W        W28563   6.333   9.085  15.297 -0.1455 -0.1734  0.1271
11040W        W28564   0.997   8.440   3.154 -0.0602 -0.2847  0.3491
11041W        W28565   3.639   8.247  14.039 -0.0268 -0.1222 -0.1954
11042W        W28566   2.156   5.685   0.158 -0.2777  0.1126  0.3220
11043W        W28567  11.846  10.867   1.291 -0.2945  0.1632 -0.3256
11044W        W28568  10.213  17.573   1.061  0.1930 -0.1037 -0.1582
11045W        W28569  10.978   3.302   0.195  0.2182 -0.1452  0.0607
11046W        W28570  16.339   7.225  14.315  0.2429 -0.0771  0.0328
11047W        W28571  11.005  17.078  12.506  0.0561 -0.2734  0.2091
11048W        W28572   1.032  16.940  14.888 -0.0510 -0.1087  0.0339
11049W        W28573   2.217  10.288   3.085  0.4082  0.0430  0.0076
11050W        W28574  13.951  14.640   2.743 -0.2226 -0.3075  0.3994
11051W        W28575   6.701   3.276   2.122 -0.1083  0.2798  0.1094
11052W        W28576   4.732   0.174   3.273  0.0594 -0.0012  0.0813
11053W        W28577   5.495   3.305   3.288 -0.0036 -0.1465  0.1245
11054W        W28578   5.615   3.671  12.075  0.2214  0.0587 -0.2456
11055W        W28579  10.756  13.457   1.940  0.0057 -0.1035 -0.3028
11056W        W28580   2.333   9.643  11.447  0.2898  0.0158  0.0217
11057W        W28581  10.887  12.751  12.363 -0.1095  0.1219  0.0089
11058W        W28582  15.958   7.997   0.495 -0.1926  0.1089 -0.1512
11059W        W28583  15.997   3.878  13.584 -0.3621  0.0568 -0.1129
11060W        W28584  11.150   2.002   0.527 -0.0223  0.1058  0.2320
11061W        W28585   4.742  14.603   4.421 -0.2504 -0.0773  0.0987
11062W        W28586  13.424   2.912   4.496 -0.1156 -0.1742 -0.1324
11063W        W28587  11.675   7.794   3.829 -0.2104 -0.1503 -0.3346
11064W        W28588   9.564  14.662  13.804  0.1261 -0.4642  0.4063
11065W        W28589   0.837  12.793   2.152 -0.1441  0.2358  0.1424
11066W        W28590   8.737  12.656  13.370  0.0765  0.1769 -0.0091
11067W        W28591  17.272  13.793  11.995  0.0932  0.0521  0.0124
11068W        W28592   1.154   0.515   3.588  0.0411  0.1908  0.2006
11069W        W28593   4.619   5.191  11.315 -0.2473 -0.1091 -0.1115
11070W        W28594   4.356   9.482   0.890 -0.1988  0.5119 -0.0207
11071W        W28595  15.356  14.613   1.865 -0.4700 -0.0452 -0.1803
11072W        W28596   3.166  10.609  13.603 -0.4182 -0.1005 -0.2423
11073W        W28597   7.967  16.562  13.173 -0.0228  0.1069 -0.0971
11074W        W28598  13.668   7.064  13.861 -0.0640 -0.1130 -0.2194
11075W        W28599  12.101  14.728  13.565  0.1710 -0.0213  0.2869
11076W        W28600   4.370   1.710  11.195 -0.1854 -0.1028 -0.3992
11077W        W28601  14.870   5.624   5.255  0.2323 -0.1600  0.0439
11078W        W28602  18.324  13.392   2.717  0.3241  0.2809 -0.0124
11079W        W28603  16.020  12.731  14.565 -0.0145 -0.0210  0.0786
11080W        W28604  13.027   6.578  10.850 -0.2316 -0.0190 -0.0679
11081W        W28605   7.144  14.796   1.604 -0.1104  0.2162  0.3093
11082W        W28606   4.687   1.133   2.077 -0.0336  0.0022  0.1074
11083W        W28607   8.013  12.341   1.700 -0.1432  0.1009 -0.0155
11084W        W28608  14.103  11.937  15.452  0.0919 -0.0373 -0.2329
11085W        W28609  16.491  17.079  13.800  0.4338  0.2754 -0.1960
11086W        W28610  10.859  16.770  11.508 -0.0745  0.1454 -0.0660
11087W        W28611   3.256  10.416  14.946 -0.2998  0.0977 -0.1256
11088W        W28612  15.972   6.732   4.475  0.1130 -0.1274 -0.0769
11089W        W28613   0.354  18.087  11.997 -0.2487  0.0602 -0.0309
11090W        W28614  14.493   8.585   4.194 -0.3281 -0.0173  0.1585
11091W        W28615   3.744  14.152  14.645  0.1041  0.0498 -0.0964
11092W        W28616   3.021  14.943   0.622 -0.2726  0.1839  0.1989
11093W        W28617   9.845  11.175  15.403 -0.0457 -0.0120 -0.2772
11094W        W28618  12.457  18.017  14.366 -0.1829  0.2369 -0.0830
11095W        W28619  12.852  12.659   1.805 -0.1104  0.0898  0.1156
11096W        W28620   0.521  13.614   3.905 -0.1179  0.0571  0.2761
11097W        W28621   7.271  15.110  13.897  0.0442  0.0521  0.0611
11098W        W28622  13.142  16.014  12.967 -0.1242 -0.1310 -0.0656
11099W        W28623   4.073   4.267  14.827 -0.3128 -0.4599 -0.3318
11100W        W28624  10.761   5.422  10.911 -0.3988 -0.0418 -0.0521
11101W        W28625  15.071   4.796  14.102 -0.2993  0.2718 -0.0120
11102W        W28626  14.742  13.303   0.218  0.3452  0.2798  0.1413
11103W        W28627   8.686   9.225   3.581 -0.0197  0.0071  0.1502
11104W        W28628  16.352  10.729   3.059 -0.2404  0.0407  0.2020
11105W        W28629   5.516   8.851   0.701 -0.0466 -0.2581 -0.2095
11106W        W28630   6.968   4.073   2.812  0.1261 -0.1737 -0.1376
11107W        W28631   6.625   5.722   9.811  0.0113  0.2348  0.2598
11108W        W28632  17.623   1.968  14.945 -0.0566  0.1273 -0.0478
11109W        W28633   3.911   5.615   0.751 -0.0618 -0.2046 -0.0938
11110W        W28634  17.660   0.705  13.316 -0.2309  0.1473 -0.1059
11111W        W28635   9.984   8.243  14.091 -0.2126 -0.2536 -0.0804
11112W        W28636   6.214  13.670  14.177 -0.1935  0.0759  0.0025
11113W        W28637   7.164   1.958   4.362 -0.0082 -0.1197 -0.0184
11114W        W28638  15.239   6.676  11.484 -0.1222 -0.0932 -0.2549
11115W        W28639  11.267  17.394  11.627 -0.2411  0.1324 -0.0647
11116W        W28640   0.950  16.586  11.200  0.1617  0.0443  0.2260
11117W        W28641  13.089   7.320   1.862 -0.3198 -0.0888  0.0685
11118W        W28642  18.063  16.600   3.370  0.2121 -0.2287  0.0700
11119W        W28643   9.617   3.422   3.352 -0.1959 -0.0048 -0.1905
11120W        W28644   1.870   7.167   2.189 -0.2203  0.0010  0.1171
11121W        W28645  14.570  17.065   2.647 -0.1513  0.3055  0.1125
11122W        W28646  13.588  15.100   3.006 -0.0871 -0.0298  0.2049
11123W        W28647  14.717   0.158   1.950  0.0595  0.0008  0.0836
11124W        W28648   2.086  14.030  15.400  0.0383  0.0481  0.0133
11125W        W28649  16.744   6.963  14.632 -0.1930  0.1305  0.1256
11126W        W28650  13.699  13.429  12.703  0.2184  0.0605  0.3509
11127W        W28651   9.144  16.147  11.872  0.0682  0.0574  0.1044
11128W        W28652  18.292   6.523   2.230 -0.1383  0.4116  0.2643
11129W        W28653  18.411  16.554  13.518  0.0415  0.2419  0.2301
11130W        W28654   6.144   3.288  14.817  0.1813  0.3892 -0.0497
11131W        W28655   9.366   8.392   0.653 -0.2067  0.4974  0.1744
11132W        W28656   0.156  13.002   3.915  0.0115  0.0889  0.1263
11133W        W28657   7.747   8.495  10.334 -0.0858  0.1467  0.0950
11134W        W28658   3.244  14.114   4.950  0.3002 -0.2751 -0.1696
11135W        W28659   7.449   0.744   2.368 -0.0380  0.0348 -0.1211
11136W        W28660   3.648  12.850   0.620  0.3190  0.1213 -0.2425
11137W        W28661  15.727   1.429  15.708 -0.3486 -0.1316  0.5179
11138W        W28662  13.336   8.569   3.181  0.0460 -0.5284 -0.2713
11139W        W28663   0.615  16.815   1.219  0.3643  0.2481  0.2376
11140W        W28664  15.771  14.759  13.449 -0.0338 -0.4874  0.3805
11141W        W28665   1.644  15.919   0.845 -0.0812 -0.1460 -0.0626
11142W        W28666   6.836   8.752  15.036  0.1341  0.0496 -0.0500
11143W        W28667   8.476  14.201   4.665  0.0843 -0.1362  0.0802
11144W        W28668  15.828  13.532  15.754 -0.2782  0.1109  0.0784
11145W        W28669   3.872   9.129  14.493 -0.1839 -0.0125  0.0953
11146W        W28670   6.984  15.269  12.321 -0.1663 -0.1745  0.0892
11147W        W28671  14.971   2.544   0.275  0.0579  0.5198 -0.2705
11148W        W28672   0.884   8.061   0.821  0.0075  0.0549  0.0457
11149W        W28673  14.543   8.998   1.687  0.0756  0.0356  0.4509
11150W        W28674   3.161   5.297  14.582  0.0756 -0.0680  0.1938
11151W        W28675  14.079  13.716   0.391  0.2793  0.1274 -0.0868
11152W        W28676  14.344   0.994   1.118  0.0258  0.1634 -0.0302
11153W        W28677   5.696   3.321   1.038 -0.1138 -0.2980 -0.1970
11154W        W28678  10.895   3.291   1.270  0.1921  0.2931 -0.1097
11155W        W28679   0.885   1.817  13.706 -0.1209  0.2143 -0.1077
11156W        W28680   6.315  13.871   4.807  0.3995  0.1559 -0.0271
11157W        W28681  16.983   0.401  13.068 -0.0149  0.1955 -0.3789
11158W        W28682   2.519  15.875   1.301  0.0971 -0.2536 -0.2304
11159W        W28683   9.663  11.989   2.146 -0.0193  0.0270  0.0186
11160W        W28684  10.680   9.076  15.384  0.2320 -0.0877  0.0570
11161W        W28685   1.419  15.475   0.046  0.2738  0.1598 -0.2767
11162W        W28686  12.653  14.740   2.210  0.0441  0.0968 -0.4315
11163W        W28687   2.173  14.342   4.014 -0.4288 -0.3571 -0.1245
11164W        W28688   5.082   6.919   4.686 -0.1940  0.0116  0.0429
11165W        W28689  13.879  16.368   5.281  0.1417 -0.4295  0.1738
11166W        W28690  13.053   1.570  11.462  0.1524  0.1068 -0.1591
11167W        W28691   4.608   6.258   0.801  0.0496 -0.1452 -0.0072
11168W        W28692   7.241  11.346  15.359  0.0225 -0.2674  0.2790
11169W        W28693  16.809   5.969  15.058  0.0348 -0.2351  0.1244
11170W        W28694   4.319   1.486   4.201 -0.3447 -0.2034  0.0263
11171W        W28695   6.230  10.865   0.932 -0.3376 -0.2278 -0.0034
11172W        W28696  11.649   9.022   2.935 -0.2021 -0.0174 -0.1587
11173W        W28697   7.370  14.033  14.748  0.2817  0.4365 -0.0265
11174W        W28698  12.904  16.045  15.163 -0.2305  0.0250 -0.0902
11175W        W28699  16.497   5.564  15.109 -0.0059 -0.0408 -0.1510
11176W        W28700  16.446   3.556  13.604 -0.1045  0.0705  0.3210
11177W        W28701   3.199   6.558   0.645  0.1946  0.1519  0.3827
11178W        W28702  15.403  17.868  15.415  0.0165 -0.3051 -0.0083
11179W        W28703  16.302  16.776  15.643 -0.0042  0.0715  0.1460
11180W        W28704  13.955  12.916   2.719 -0.0196 -0.0886 -0.1793
11181W        W28705   5.651   3.753   3.082  0.0955 -0.2647 -0.0325
11182W        W28706  11.870  15.956  15.474 -0.2123 -0.1081  0.0113
11183W        W28707  14.072  17.805  11.203 -0.4948 -0.2736  0.0439
11184W        W28708   2.058   9.900   0.890  0.0755 -0.2979  0.2517
11185W        W28709   8.091   9.482   1.819 -0.0089 -0.3057  0.0571
11186W        W28710   6.497   2.054  14.005  0.0930  0.1443  0.0501
11187W        W28711   0.721   6.339   2.501 -0.0409 -0.1712  0.0411
11188W        W28712   4.598  13.868  12.790  0.1345  0.1096  0.0072
11189W        W28713   7.464   1.372   1.222  0.1157  0.2063  0.1502
11190W        W28714   7.129   4.243   0.948  0.2650 -0.1891 -0.0027
11191W        W28715  13.833   2.642   5.634 -0.2126  0.0606  0.5478
11192W        W28716  13.021   8.373   2.243 -0.0973 -0.0941  0.0954
11193W        W28717   2.128   2.988  15.224 -0.0215  0.0633  0.1020
11194W        W28718   5.673  13.619  12.920  0.0566 -0.0931 -0.0458
11195W        W28719   3.863   6.441   2.484 -0.3133 -0.3434 -0.1954
11196W        W28720   3.337   7.641  13.543 -0.2217  0.0494  0.0269
11197W        W28721  15.417  17.458   1.899 -0.0337  0.0283  0.0836
11198W        W28722  11.595   4.348  15.632  0.0217  0.2122  0.0533
11199W        W28723   8.219   8.282   2.834  0.0420 -0.0352  0.0755
11200W        W28724   8.129   3.675  13.372 -0.0837 -0.0556  0.1367
11201W        W28725   3.460   7.162  13.277 -0.0298 -0.2347 -0.0242
11202W        W28726   4.050   1.298  14.327 -0.2708  0.2357  0.1493
11203W        W28727   5.869  12.885  15.855  0.1952  0.1101  0.1839
11204W        W28728   9.183  12.327   5.341  0.1003  0.1892  0.2951
11205W        W28729   1.792   5.712   5.008  0.1196  0.1096 -0.0798
11206W        W28730   4.587  10.711   1.658  0.0746 -0.1315  0.0831
11207W        W28731  10.829  17.776  11.362 -0.0470 -0.0339 -0.0620
11208W        W28732  16.548   6.699   0.618 -0.0628 -0.1122  0.1095
11209W        W28733  16.806  11.839   3.240 -0.0050  0.0031 -0.2353
11210W        W28734  15.146  15.252  13.792 -0.1785 -0.1953  0.1766
11211W        W28735   0.080   0.021  15.099 -0.0567 -0.3216  0.0028
11212W        W28736   3.162  14.178  11.437 -0.0768  0.2389  0.0767
11213W        W28737  11.078  10.373  11.036 -0.3806 -0.0840 -0.0796
11214W        W28738   5.881  11.345  14.699  0.0231  0.1562 -0.2456
11215W        W28739  15.329  12.085  14.690 -0.3075  0.1992 -0.3662
11216W        W28740  10.134   8.612   4.756  0.3876  0.0304 -0.0793
11217W        W28741  17.886   2.833   1.418 -0.3678  0.1000 -0.3281
11218W        W28742   9.480  17.669  14.961  0.0291  0.1219 -0.2672
11219W        W28743  12.617  11.110  13.252 -0.1654 -0.2545 -0.1151
11220W        W28744   3.957  13.492   2.875 -0.1476 -0.1106  0.0699
11221W        W28745   2.685  10.848   2.946  0.2414 -0.0357  0.0788
11222W        W28746   9.383  14.811   3.858 -0.1454  0.1837  0.3228
11223W        W28747  18.078   6.391  10.942 -0.0427  0.1756  0.1254
11224W        W28748   2.364   5.224   3.180  0.0651  0.0775  0.1200
11225W        W28749  10.883  12.220   1.763  0.0889  0.2079 -0.2050
11226W        W28750  14.274  12.175   0.067  0.0989 -0.4354  0.1265
11227W        W28751  17.744  11.753   1.762 -0.3152  0.1567  0.0415
11228W        W28752   6.197  17.332  13.107 -0.0920 -0.1591 -0.0964
11229W        W28753  11.782  18.308   5.022 -0.2922  0.1199  0.1821
11230W        W28754   4.076   3.602   3.966 -0.0339 -0.0976 -0.1714
11231W        W28755  11.378  14.570   1.554  0.1829 -0.3741  0.0149
11232W        W28756  12.379  15.748  11.543 -0.0965 -0.1604  0.3507
11233W        W28757  13.774   3.827  13.565  0.0957 -0.1401  0.2491
11234W        W28758   6.542   5.820  10.994  0.0143 -0.0189 -0.0705
11235W        W28759   6.288  18.273   1.504  0.0587  0.3348  0.3116
11236W        W28760  16.676   1.661   1.086  0.0919  0.0210 -0.0249
11237W        W28761  11.155   6.470   0.757  0.0996  0.1806  0.1322
11238W        W28762  17.749   5.349   1.845  0.0802 -0.1692 -0.0035
11239W        W28763  12.687  15.249   2.218  0.0160  0.0977  0.3261
11240W        W28764   1.317  14.527  11.343  0.1928  0.0732 -0.0622
11241W        W28765   0.215  17.397  11.012 -0.2885 -0.2075 -0.0539
11242W        W28766   6.765  16.095  14.805 -0.0842 -0.1300  0.0129
11243W        W28767  13.882   7.529  12.142  0.1585  0.0627 -0.0537
11244W        W28768   8.849  12.643   3.750 -0.2156 -0.1718  0.1039
11245W        W28769  16.043  14.924  15.378 -0.3685 -0.6318  0.1351
11246W        W28770   3.010   6.989  13.089 -0.2379 -0.0939 -0.2145
11247W        W28771  14.437   6.400   0.329  0.0603 -0.0394  0.1196
11248W        W28772   5.620  16.925   1.982  0.2010  0.3913 -0.0674
11249W        W28773  13.771   4.486  13.433  0.2012  0.2756  0.0763
11250W        W28774  15.143  14.040  13.358 -0.1055  0.0177  0.0585
11251W        W28775   2.301  16.410   4.232  0.2578 -0.1697  0.3671
11252W        W28776  18.126  10.149   2.796  0.1945  0.0193 -0.2912
11253W        W28777  10.815  16.126   2.676 -0.1272  0.1026  0.1447
11254W        W28778  15.170   1.393  11.261  0.0602  0.3197  0.1096
11255W        W28779  14.054  10.382   4.308 -0.2735 -0.0354  0.1270
11256W        W28780  14.350   8.154   0.006 -0.1249  0.0405  0.0798
11257W        W28781  16.164  10.336  15.652  0.1233  0.0880  0.1786
11258W        W28782   6.302  17.680  10.902 -0.1724 -0.0875  0.2287
11259W        W28783  14.232   6.053   4.796  0.0588 -0.0713  0.0070
11260W        W28784   7.972  15.050   0.748  0.0309 -0.5926  0.3148
11261W        W28785  15.974  12.038  14.548 -0.2482  0.2057 -0.0937
11262W        W28786   0.217   5.527   2.038  0.2402  0.1404 -0.3419
11263W        W28787  11.355   5.736   4.313 -0.1158 -0.3167  0.2308
11264W        W28788   9.201   8.736  12.717 -0.1363 -0.1180  0.2916
11265W        W28789  11.885   9.229   2.488 -0.0362  0.1654  0.2342
11266W        W28790   7.806  11.256  12.952  0.1545  0.3597  0.0365
11267W        W28791   5.307  12.747   2.838  0.1545 -0.0152  0.3908
11268W        W28792  12.738  11.805   2.038 -0.2518 -0.0038 -0.1152
11269W        W28793  11.823   1.074   3.936 -0.1728  0.2815 -0.0399
11270W        W28794   6.364  14.780   0.163  0.0427 -0.1848 -0.0218
11271W        W28795   4.270   9.115  12.726  0.2229 -0.0926 -0.0124
11272W        W28796  14.678  17.702  13.267  0.0220 -0.1067 -0.2506
11273W        W28797   0.165  13.827   1.077  0.1268 -0.1533 -0.0025
11274W        W28798   4.968  11.399   4.344 -0.1870 -0.3272  0.2810
11275W        W28799   6.244  18.032  11.698 -0.2809  0.0111 -0.1626
11276W        W28800  17.087   5.896  15.517 -0.1747  0.2854 -0.0053
11277W        W28801  14.789  13.004   3.051 -0.1465  0.0721  0.0910
11278W        W28802  10.562  10.761   4.620  0.3888 -0.2340 -0.0056
11279W        W28803  14.141   9.314  15.166  0.1704 -0.1034 -0.3978
11280W        W28804   9.382   3.526  13.245  0.1788  0.2900  0.3622
11281W        W28805  18.391   5.190  10.483  0.0370 -0.2589 -0.1727
11282W        W28806   5.773   6.141  12.747  0.1212  0.1905  0.4301
11283W        W28807   6.324   1.164   1.682  0.0625 -0.2814 -0.0293
11284W        W28808  16.959  16.110   4.541 -0.0664  0.0526  0.0968
11285W        W28809  15.211  10.693   1.671 -0.0036 -0.1433 -0.3046
11286W        W28810  15.600   0.001  13.880  0.1675 -0.2227  0.1658
11287W        W28811   8.175   3.590   5.497  0.1237  0.1651 -0.1637
11288W        W28812  12.438  12.292   1.111  0.4143 -0.2927 -0.1013
11289W        W28813   3.719  13.565  11.925  0.1886 -0.0468 -0.1058
11290W        W28814  10.182  18.333  15.494 -0.0358 -0.4766  0.0696
11291W        W28815   4.320  10.547  11.450 -0.1256  0.1145  0.1702
11292W        W28816   5.500  13.278   0.999  0.0158  0.0384 -0.2419
11293W        W28817   1.433   1.088   1.706  0.3913 -0.1938 -0.0793
11294W        W28818   6.223   9.897   2.955 -0.1024 -0.0159  0.1684
11295W        W28819  10.056  17.995  11.958  0.0869 -0.1903  0.3960
11296W        W28820   1.300   2.773  15.012 -0.0595 -0.1356 -0.0019
11297W        W28821  11.235  10.463  13.625 -0.0562 -0.3319  0.0820
11298W        W28822  16.276  15.595   1.808 -0.1237  0.0694 -0.0023
11299W        W28823  15.249   1.315   0.882  0.3863 -0.0276 -0.0520
11300W        W28824   7.628   9.637   1.950 -0.0983 -0.2302 -0.2004
11301W        W28825   1.419  13.401   4.461  0.2975 -0.0348 -0.0580
11302W        W28826   4.517  15.072  13.745 -0.4331  0.3652  0.0246
11303W        W28827   3.446   4.131   5.766 -0.1237 -0.1408 -0.2849
11304W        W28828   2.797  18.275  12.350  0.0580 -0.0611  0.0039
11305W        W28829  16.440   5.662  10.459 -0.0815 -0.0407 -0.1607
11306W        W28830  11.219  17.677  15.711 -0.2994  0.0251  0.2093
11307W        W28831  10.697   5.096   1.130 -0.3114 -0.0997  0.0116
11308W        W28832   1.172   7.312  11.188  0.0320  0.1825  0.2285
11309W        W28833  11.597   1.473  12.925 -0.1462  0.0586 -0.3591
11310W        W28834  12.657   3.283   1.344 -0.0297 -0.0684 -0.0379
11311W        W28835   4.660   7.145   3.552 -0.1068 -0.2331 -0.0543
11312W        W28836   1.719   7.509  13.413 -0.2313  0.1227  0.1080
11313W        W28837  16.773  13.686   1.180  0.1522 -0.0935  0.4018
11314W        W28838  17.765   4.751  12.582  0.0385 -0.2530 -0.2953
11315W        W28839  11.019  11.882   1.262 -0.0534 -0.4027 -0.4249
11316W        W28840  10.589   3.701  11.359  0.1625  0.2447 -0.4156
11317W        W28841   9.757   5.962  12.171  0.2599 -0.3113 -0.0237
11318W        W28842  16.817  17.375   1.036 -0.3073 -0.1075 -0.4985
11319W        W28843  16.727   7.492   1.748  0.1658  0.1881 -0.0771
11320W        W28844   3.546  10.623  13.223  0.3298  0.0202 -0.0453
11321W        W28845  10.296   8.475   4.263 -0.1207  0.3945 -0.0303
11322W        W28846   9.292  17.364  11.903  0.3300  0.1844  0.1374
11323W        W28847  16.886  17.168  13.512 -0.1718  0.0966  0.1889
11324W        W28848   5.511   9.075   4.707 -0.0090 -0.2675  0.2498
11325W        W28849   7.097   8.549  14.586 -0.0708  0.0015 -0.3094
11326W        W28850  11.187  17.969   4.605  0.1028 -0.0245 -0.2446
11327W        W28851  13.471  14.920   2.137  0.0257 -0.1383 -0.0201
11328W        W28852   1.642   4.685  11.848 -0.0915 -0.2479 -0.0431
11329W        W28853  14.197  16.446  14.023 -0.2087 -0.0635 -0.1802
11330W        W28854   5.996  17.672  13.648  0.0948 -0.2414 -0.1722
11331W        W28855  13.642   5.285   2.338  0.1093  0.4297  0.0806
11332W        W28856  15.178  11.017  13.324  0.2562  0.1160 -0.1054
11333W        W28857   9.835   3.466  10.951 -0.0237 -0.0273  0.5294
11334W        W28858   8.411   6.185   3.209  0.1732  0.1369  0.0429
11335W        W28859  12.232  10.247  12.701 -0.2968  0.0547  0.2303
11336W        W28860  11.270  12.090  14.300  0.1147  0.0015  0.1757
11337W        W28861  12.525   4.240  13.259 -0.2411 -0.3182  0.0117
11338W        W28862  13.930   2.116   1.104 -0.0853  0.0686 -0.0905
11339W        W28863   7.850   4.429   0.304 -0.1719 -0.1909  0.1914
11340W        W28864  15.963  11.380   0.797 -0.0409 -0.0077 -0.1465
11341W        W28865  15.433   1.265  13.384  0.2443  0.0823 -0.0418
11342W        W28866  14.280  15.960   2.698 -0.2475  0.1800  0.0834
11343W        W28867  10.700   9.684  13.425  0.0588 -0.0602  0.0983
11344W        W28868   8.364   2.912   2.634 -0.1915 -0.1862  0.0792
11345W        W28869  17.755  14.185  12.634 -0.0269  0.0348 -0.2025
11346W        W28870  10.713  10.376  13.743  0.1345  0.2234 -0.1649
11347W        W28871  13.578  10.385  11.298 -0.2456 -0.0859 -0.3843
11348W        W28872  16.291  17.376   1.111  0.3727  0.3091 -0.1199
11349W        W28873   2.181   6.742   3.987  0.1489 -0.0790 -0.1831
11350W        W28874  17.751  10.378  14.995  0.0534  0.0009 -0.1307
11351W        W28875   4.829  11.400   5.643 -0.3187 -0.4386  0.1718
11352W        W28876   1.796   5.051   4.272 -0.0866 -0.4184  0.0858
11353W        W28877  12.125  17.168   4.421  0.0705  0.3748  0.2731
11354W        W28878  12.829  16.565   4.918 -0.2998 -0.0115  0.1530
11355W        W28879  18.226  12.228   4.851 -0.3592  0.0850  0.0029
11356W        W28880   7.230   3.904  10.838 -0.2999 -0.1972 -0.0990
11357W        W28881   5.463  13.178  14.910 -0.0640 -0.2365 -0.0667
11358W        W28882   8.185  17.360   0.801  0.1155  0.1255  0.1448
11359W        W28883   9.095  13.115  14.916 -0.1157  0.1525  0.1739
11360W        W28884  18.152   4.544   0.276  0.2523 -0.0223  0.2500
11361W        W28885  10.106   0.170   1.567 -0.0823 -0.1661  0.0460
11362W        W28886   4.549   3.270  11.081  0.1551 -0.0844  0.3711
11363W        W28887   2.357  16.687   1.789  0.2355  0.0022 -0.0162
11364W        W28888   2.849   8.285  13.063 -0.2340  0.2798  0.3044
11365W        W28889   5.723  13.485   3.102 -0.0066  0.2077 -0.0535
11366W        W28890  16.885   5.232  13.808  0.1466  0.0678  0.0005
11367W        W28891   7.761  16.820   0.583  0.0682 -0.0029 -0.0140
11368W        W28892  11.140   7.840  10.911 -0.0331  0.2082  0.2471
11369W        W28893   8.627   0.370   0.470  0.1216  0.0444  0.0379
11370W        W28894   7.137   2.404  13.064 -0.0007  0.0685 -0.0109
11371W        W28895   3.809   6.396   4.846 -0.2456 -0.4729  0.1725
11372W        W28896  15.413  13.647   1.937 -0.0053 -0.0658 -0.5515
11373W        W28897  16.923   3.423  13.441  0.1444  0.0466 -0.1540
11374W        W28898   4.763  16.048   0.125  0.3092  0.2176  0.1024
11375W        W28899  10.675  16.643   2.575  0.1230 -0.0191 -0.0203
11376W        W28900   8.257   8.035  12.695 -0.0343  0.1290 -0.3814
11377W        W28901   8.169  11.147   2.426 -0.2327  0.1175 -0.0783
11378W        W28902   7.101   8.172  14.156  0.0211  0.2356 -0.3442
11379W        W28903  10.787   4.925   4.410 -0.0463  0.0335 -0.1530
11380W        W28904   4.934  16.877   0.648  0.1869 -0.1268  0.1401
11381W        W28905  11.306  12.820  10.675 -0.2696  0.0000 -0.1792
11382W        W28906  11.648   1.821  13.769  0.0390  0.2128  0.3182
11383W        W28907  12.653  10.579  15.352  0.2572 -0.2368 -0.3673
11384W        W28908   9.262  14.767   2.764  0.0412 -0.0193 -0.0060
11385W        W28909  12.171  14.224   6.238 -0.5837 -0.3678  0.2772
11386W        W28910   4.826   8.719  13.508 -0.0231 -0.1977  0.1122
11387W        W28911  13.287  17.082  14.952 -0.0703 -0.3071 -0.0492
11388W        W28912   5.214  10.692  13.705  0.2357 -0.0581 -0.2374
11389W        W28913   1.803  17.113  14.097  0.3705 -0.0994  0.0350
11390W        W28914   7.613   0.380  14.636 -0.0094  0.0320  0.0608
11391W        W28915   3.788  11.937   2.482 -0.2450 -0.4137  0.2075
11392W        W28916  10.562   9.538  14.397  0.0677 -0.0738 -0.0286
11393W        W28917  12.466   9.304  11.978  0.3099 -0.1304  0.1463
11394W        W28918   8.921  13.876   2.923  0.0960 -0.1866 -0.0539
11395W        W28919  14.408   4.513   3.952  0.1609  0.0367 -0.1350
11396W        W28920  14.788   3.164  14.244 -0.1463 -0.1123 -0.0713
11397W        W28921   6.173  11.893  15.747  0.0128  0.0970  0.2550
11398W        W28922  18.388   6.876   1.942  0.2313  0.0875 -0.3417
11399W        W28923   0.503   1.128   1.777  0.2947 -0.0302  0.1145
11400W        W28924  14.207   2.357   4.288 -0.1010 -0.0667  0.1814
11401W        W28925  16.780   2.299   0.250  0.1764 -0.0300 -0.0670
11402W        W28926  13.328  16.816   3.048  0.1331 -0.1811 -0.1594
11403W        W28927   6.408  18.233   3.834 -0.1821 -0.2390  0.0132
11404W        W28928   9.469  15.955   4.709 -0.1024  0.1930 -0.3671
11405W        W28929   6.307  10.322  11.483  0.0318  0.0266  0.1646
11406W        W28930   6.501  18.152  14.294 -0.1050  0.3286  0.2701
11407W        W28931   9.867   8.659   4.054 -0.0725  0.0267  0.0332
11408W        W28932  11.628  16.514   2.166  0.1888  0.1126  0.2145
11409W        W28933  13.101   4.506   1.731  0.1526  0.1307 -0.1650
11410W        W28934  14.400  11.459  11.607 -0.0779  0.0277  0.0917
11411W        W28935   5.076   1.209  11.182  0.2701 -0.0728  0.0601
11412W        W28936   2.966   5.239  11.537  0.0218  0.1890  0.0493
11413W        W28937  17.428   2.970  10.059 -0.2397 -0.2054  0.1556
11414W        W28938   0.741   7.745   3.713  0.0624 -0.0205  0.0031
11415W        W28939   6.577   2.791  10.300  0.1669  0.0416  0.1144
11416W        W28940  15.758  16.922   3.107  0.1244 -0.0529 -0.0209
11417W        W28941   9.002   3.918  12.483 -0.1196 -0.2506 -0.1007
11418W        W28942   0.736   5.885  14.456 -0.3977 -0.0443 -0.0896
11419W        W28943  10.623   8.451   1.246 -0.1499 -0.0895  0.3152
11420W        W28944   5.559   4.275  13.267  0.0959 -0.2320  0.2179
11421W        W28945  10.224  13.084   2.143 -0.0319  0.3481  0.1665
11422W        W28946   9.604  15.687   4.099  0.1295 -0.2085 -0.1868
11423W        W28947   1.491  16.322  11.798  0.0110  0.0766  0.0400
11424W        W28948  14.050  15.504   2.576  0.0770 -0.0212 -0.1782
11425W        W28949  14.728   4.738   0.076 -0.0292  0.0377 -0.2017
11426W        W28950   9.315  16.081   3.127  0.2219 -0.1168  0.0283
11427W        W28951   3.802   5.798   2.483 -0.1752 -0.1080 -0.0742
11428W        W28952   8.779  10.035  13.103  0.3212 -0.3129 -0.0248
11429W        W28953   7.123  16.915  13.037 -0.3283 -0.1003  0.1230
11430W        W28954  17.090   7.828  14.741  0.1887  0.0421  0.2350
11431W        W28955  10.994  12.614   2.579  0.1441 -0.1160 -0.1621
11432W        W28956   9.609   2.190  11.929  0.1074  0.5028 -0.5621
11433W        W28957   7.827  16.856   3.798  0.1550 -0.0048 -0.0997
11434W        W28958   7.920  15.900   3.327 -0.4449  0.1563  0.0277
11435W        W28959  14.369   2.438  10.829 -0.1230  0.1753  0.2918
11436W        W28960  13.620  10.628  12.342 -0.2799 -0.1218 -0.3304
11437W        W28961   3.116  15.849   0.273  0.0289 -0.2134 -0.1004
11438W        W28962  16.840  11.552  14.954  0.0563  0.1108 -0.0797
11439W        W28963   9.018  13.908   3.964  0.1021  0.2598 -0.0617
11440W        W28964  14.143  10.699   3.820 -0.1498  0.0757 -0.0369
11441W        W28965   6.451  14.991  13.049  0.0104  0.2627  0.1410
11442W        W28966  11.971  18.143   4.160 -0.0112 -0.3384 -0.0244
11443W        W28967  12.326   7.052   0.446  0.0525 -0.1686  0.0174
11444W        W28968  16.402  12.329   1.335  0.0404 -0.1434  0.3354
11445W        W28969   3.093   9.729  12.040  0.1924  0.1352  0.0286
11446W        W28970  14.556  13.970   0.635 -0.1200 -0.0071 -0.0710
11447W        W28971  10.891   6.001   0.640 -0.1325 -0.2428  0.0803
11448W        W28972   6.596  17.614   2.092 -0.1363  0.0365 -0.0279
11449W        W28973   9.322   9.181  14.017  0.3839 -0.1345 -0.0207
11450W        W28974  14.633   8.746  12.608  0.1997 -0.3183 -0.3138
11451W        W28975   9.118   8.287  15.169  0.1902  0.1166  0.0922
11452W        W28976  18.019  10.588   5.044 -0.1580 -0.0937  0.1610
11453W        W28977   7.567  14.306   4.704  0.1021 -0.3760 -0.0540
11454W        W28978  11.457  14.096  14.578  0.0201 -0.0375 -0.2694
11455W        W28979  16.125  12.163   2.411  0.1222  0.1384 -0.2938
11456W        W28980   1.469   2.583   3.511 -0.0864 -0.1121 -0.0083
11457W        W28981  13.951  10.967  12.510  0.1328 -0.0097 -0.3185
11458W        W28982   3.207   4.548   2.420 -0.1472  0.1253 -0.4118
11459W        W28983   0.029   4.139   2.205 -0.0546 -0.0279  0.1045
11460W        W28984   0.064   5.807   3.011  0.0078  0.2134 -0.0639
11461W        W28985   1.356  14.742  10.625 -0.0413 -0.1349 -0.0036
11462W        W28986  11.432   2.410  15.711  0.2180 -0.1436  0.0651
11463W        W28987  14.004   7.195   2.153 -0.2162  0.1672 -0.2390
11464W        W28988  15.422  12.156  13.334  0.4295  0.2079  0.0635
11465W        W28989  13.866   8.487   2.129 -0.1888  0.2106 -0.2562
11466W        W28990  14.777  17.217  13.162 -0.0168 -0.0981 -0.0558
11467W        W28991   4.846   6.582   2.970  0.6515  0.0057  0.0598
11468W        W28992   2.740  12.338   4.649  0.3527  0.2991 -0.1901
11469W        W28993   9.266  17.734   4.917  0.0625 -0.0225 -0.0126
11470W        W28994  15.043  17.239   1.098 -0.2323 -0.1378  0.3465
11471W        W28995   1.457   6.885   4.742 -0.0625 -0.0690  0.2862
11472W        W28996   8.347   7.520   0.935  0.0690 -0.3038 -0.0435
11473W        W28997   8.081  16.634   2.931  0.0522  0.1642 -0.1729
11474W        W28998  16.861  16.662  13.767 -0.0361  0.1893 -0.0044
11475W        W28999   7.995  15.038  12.217 -0.0559 -0.1532 -0.0849
11476W        W29000   1.170  12.565  12.222 -0.0543 -0.2782  0.2543
11477W        W29001  17.096   5.003  14.639  0.1708 -0.0204  0.2090
11478W        W29002   5.186  15.994  11.051  0.0946  0.0909  0.0425
11479W        W29003   3.068  10.130  12.448 -0.0115 -0.0860  0.1488
11480W        W29004  17.212   2.721  13.932  0.3168 -0.0550 -0.1285
11481W        W29005   2.663  12.247  11.539 -0.4755 -0.0923 -0.1024
11482W        W29006  11.636  18.063   0.140 -0.0963  0.1603  0.1472
11483W        W29007   4.098  12.122   2.063  0.3550 -0.1106  0.1338
11484W        W29008   5.075  13.507  13.986  0.1781 -0.1855 -0.1721
11485W        W29009   7.898  13.291   1.314  0.1558  0.4423 -0.0079
11486W        W29010  15.764  10.980  13.255  0.0949  0.0096 -0.0721
11487W        W29011   9.342   5.500   1.131 -0.0739  0.0505  0.1419
11488W        W29012  14.009   7.318   0.096  0.0835  0.0741  0.1810
11489W        W29013  16.085   0.660  11.124  0.3758 -0.3145  0.2569
11490W        W29014   1.778   7.351  12.364 -0.1017 -0.2603  0.0561
11491W        W29015  10.057   5.634  12.439  0.0772 -0.0728  0.0765
11492W        W29016   3.907  10.356  12.979  0.2067  0.1905 -0.1028
11493W        W29017   1.724   9.081  11.550  0.3461 -0.3503  0.2974
11494W        W29018  16.833   5.790  10.789  0.0419 -0.1685  0.1374
11495W        W29019  14.146   6.183   0.820  0.1968  0.1489 -0.3662
11496W        W29020  12.117  17.670   4.442 -0.0013 -0.0144  0.4071
11497W        W29021  17.999   5.985   2.989  0.2194 -0.1244 -0.0774
11498W        W29022   8.495   2.745   1.598 -0.0761 -0.0103  0.0905
11499W        W29023   9.126  10.867  12.599 -0.0992  0.3276 -0.1603
11500W        W29024  14.640   0.598   1.626  0.2856  0.0655 -0.0243
11501W        W29025  15.004   8.395   4.279 -0.4705  0.3346 -0.1745
11502W        W29026   8.599   6.780  15.502  0.0408 -0.2074  0.0134
11503W        W29027   3.797   5.878  14.479  0.1380 -0.2055 -0.0314
11504W        W29028  12.416   2.799  11.993  0.1588  0.1803 -0.1146
11505W        W29029  17.612   0.956   2.869  0.1935  0.0460  0.0455
11506W        W29030   4.148  12.342  15.238  0.0222 -0.0569 -0.0131
11507W        W29031  15.500   4.423   3.980 -0.2779  0.0089  0.0295
11508W        W29032  11.578  15.841   1.108  0.0741  0.1852  0.0742
11509W        W29033   7.480  10.160   4.821  0.4262  0.3045  0.0430
11510W        W29034   5.776   0.085  14.673  0.3664 -0.3362 -0.1375
11511W        W29035   9.009   8.379   0.991  0.0940 -0.1220  0.0768
11512W        W29036  15.973  14.488   3.639 -0.0842 -0.0041 -0.0151
11513W        W29037   4.798  10.028  15.420 -0.0100 -0.0967  0.2977
11514W        W29038  15.343   5.348   0.981  0.2400 -0.4788  0.0977
11515W        W29039  15.653   4.414   2.618  0.0084 -0.1741 -0.1615
11516W        W29040  15.160  16.309   1.651  0.1271 -0.1548 -0.0747
11517W        W29041  14.569   6.157   1.123 -0.0077  0.0249 -0.0994
11518W        W29042   4.253   8.386   4.245  0.0032 -0.1635 -0.1442
11519W        W29043   4.839   6.844  14.513  0.2091  0.0426 -0.2575
11520W        W29044  11.093  16.862  15.508  0.2347  0.0526  0.1649
11521W        W29045   9.330  12.096   2.516  0.0632  0.0423 -0.2072
11522W        W29046   7.477  12.222   4.519 -0.2251  0.2941 -0.3316
11523W        W29047   2.874   1.193  12.749 -0.0199 -0.3947 -0.2644
11524W        W29048  17.345   1.778  12.196 -0.2835  0.0046  0.2581
11525W        W29049  12.553   7.084   3.115  0.0680 -0.1532  0.0916
11526W        W29050  17.894   5.938  12.548  0.4077 -0.1525  0.1501
11527W        W29051  17.455   1.193   4.476 -0.4002  0.3607 -0.1254
11528W        W29052   5.209   6.960   1.834  0.0215 -0.0821 -0.2149
11529W        W29053   3.958  11.550   1.403  0.0128 -0.2177  0.2279
11530W        W29054   7.598  10.597   1.916 -0.1096  0.2900  0.2516
11531W        W29055   2.799   1.346   1.662 -0.3347 -0.4021 -0.0522
11532W        W29056  13.931  15.618   1.717  0.4519 -0.0577 -0.1375
11533W        W29057  15.272   7.121   1.415  0.1700  0.1478 -0.1757
11534W        W29058   5.863  17.216   0.744  0.5309  0.2454 -0.3680
11535W        W29059  13.758  11.139  10.706 -0.2158 -0.1879 -0.0844
11536W        W29060  13.691  10.676   3.071  0.0755  0.0259  0.0910
11537W        W29061   1.059   1.475   0.977 -0.1212 -0.2165 -0.0248
11538W        W29062   3.816  10.096   4.315 -0.1764 -0.1062 -0.2046
11539W        W29063   6.828   6.452   2.594 -0.0198  0.0436  0.1852
11540W        W29064  16.261  11.288   3.662  0.3013 -0.2640 -0.1531
11541W        W29065   4.538  18.181   4.779  0.1724  0.0529  0.0337
11542W        W29066   2.751   6.334   3.606  0.0753 -0.0079  0.0089
11543W        W29067   6.559   5.725  15.828 -0.2462  0.0736  0.1177
11544W        W29068   2.321  12.218   1.211  0.1779 -0.0507  0.4464
11545W        W29069   6.863   2.903  11.686  0.1100  0.0769  0.1834
11546W        W29070   2.181   7.237  15.546  0.0137  0.0018 -0.0477
11547W        W29071   1.904  12.995   0.293 -0.2969  0.2001  0.0766
11548W        W29072  14.552   8.147   2.321 -0.2571 -0.3036  0.0052
11549W        W29073  16.853  16.979  12.593  0.0874  0.0532 -0.2673
11550W        W29074   4.847   2.145   1.318  0.0825  0.2082 -0.0241
11551W        W29075   9.115   5.830  13.506  0.2319  0.2830 -0.1633
11552W        W29076  10.208  14.822  14.620 -0.3672 -0.0474 -0.2048
11553W        W29077   8.469   9.207   2.585  0.0815  0.1463  0.1377
11554W        W29078  14.777  17.690   4.395  0.3199 -0.0317  0.3687
11555W        W29079   5.946   9.683  13.538  0.1952  0.1691 -0.0487
11556W        W29080   4.828   0.466  14.885  0.0492  0.3052 -0.0763
11557W        W29081   7.196  11.982   3.104 -0.0483  0.0692 -0.1516
11558W        W29082   7.542   1.593  11.168 -0.1843 -0.1257 -0.0994
11559W        W29083   8.279   5.146  15.354  0.3248 -0.1744 -0.0032
11560W        W29084   9.413   1.791   6.094  0.1403  0.4078 -0.1143
11561W        W29085  15.590   0.619  11.939  0.2398  0.2453  0.2487
11562W        W29086   7.048   0.371   1.066 -0.4173 -0.2600 -0.1367
11563W        W29087   1.094  11.652   1.172 -0.0287 -0.3869 -0.1986
11564W        W29088   8.478   2.406  14.740 -0.0441  0.0477  0.1235
11565W        W29089   8.044   6.777  13.436 -0.2162 -0.1099 -0.1223
11566W        W29090  16.893  17.254   0.111  0.0767  0.1472 -0.2730
11567W        W29091   1.571  10.859   2.180 -0.0280 -0.1600 -0.1756
11568W        W29092   5.153  16.832   1.071 -0.1364 -0.0113 -0.0724
11569W        W29093   4.513  17.918   1.065 -0.1072 -0.0362 -0.0033
11570W        W29094  11.348  17.589   4.881  0.0437 -0.1944 -0.3616
11571W        W29095   6.325   3.672   2.830 -0.0133 -0.0484  0.0785
11572W        W29096   8.270   1.711  12.795 -0.0227  0.0584  0.0122
11573W        W29097  15.283  10.372  13.922  0.0246  0.2867  0.4153
11574W        W29098  10.950   6.473   4.270 -0.0700 -0.2135 -0.0401
11575W        W29099  18.114  15.642  15.201  0.2387  0.2292  0.0160
11576W        W29100   6.457  15.504   1.613 -0.2467  0.1514  0.4594
11577W        W29101  16.634   8.005  11.463 -0.0818  0.2521 -0.2956
11578W        W29102  15.773  11.015  14.794  0.1394 -0.1619 -0.0754
11579W        W29103  16.999   1.569  11.388  0.0725  0.1062  0.0942
11580W        W29104   1.298   6.133   2.516  0.1894  0.1529 -0.0610
11581W        W29105   0.898  11.205   1.314 -0.0340 -0.0648  0.2615
11582W        W29106   3.234   2.277   3.040  0.1703 -0.2132 -0.1634
11583W        W29107  17.979   0.253  15.321  0.1444  0.0137  0.2721
11584W        W29108  16.726  12.394   4.081  0.1571 -0.0301  0.1920
11585W        W29109  18.152   9.787  12.051 -0.2069 -0.1277  0.2288
11586W        W29110  13.867   2.375  15.151 -0.0223 -0.0655  0.1479
11587W        W29111   9.711   3.578   5.112 -0.1146 -0.2358 -0.0925
11588W        W29112   4.822   7.379  14.531  0.0156 -0.3841  0.1910
11589W        W29113   5.459  11.654   0.114  0.0675  0.0481 -0.2948
11590W        W29114   1.702   6.032  13.085 -0.0079  0.1985  0.2911
11591W        W29115   3.591  17.989  12.156  0.0554  0.3284  0.3694
11592W        W29116   6.665  12.621   1.846  0.2315  0.0492  0.4163
11593W        W29117  16.905  18.225   5.360  0.1499  0.0444  0.2427
11594W        W29118  10.549  12.086   4.548 -0.2331  0.2030  0.1346
11595W        W29119  16.036  14.768   1.299 -0.2250  0.1777 -0.0291
11596W        W29120   6.137  15.308  11.072 -0.2246  0.2456  0.1338
11597W        W29121  10.979   3.862  12.106 -0.0164 -0.0610 -0.0911
11598W        W29122   3.570   0.148   4.496 -0.1913  0.2426 -0.1815
11599W        W29123   4.875  12.548  12.127  0.0045 -0.0934 -0.2850
11600W        W29124   1.137   2.854  12.140 -0.0268 -0.2733 -0.3059
11601W        W29125   5.665  10.813  12.473 -0.1057 -0.2367  0.0173
11602W        W29126   8.178   2.156  14.422  0.0812  0.0713  0.1091
11603W        W29127  12.673   5.528   0.830 -0.2862 -0.0455 -0.1053
11604W        W29128  10.257  11.051   3.434 -0.0884 -0.1578  0.1290
11605W        W29129   4.129  15.334  14.628  0.2337 -0.4023  0.0456
11606W        W29130   8.286  11.119   4.902  0.0097  0.0262  0.1239
11607W        W29131   2.032  10.517  15.052 -0.4187  0.1307  0.2061
11608W        W29132   7.541  10.613   2.442 -0.0435 -0.2042 -0.0263
11609W        W29133   7.045  10.154   5.814 -0.1116 -0.1070  0.1456
11610W        W29134   2.757  12.289  10.999  0.3046  0.2688 -0.0555
11611W        W29135   8.732  10.562  14.128 -0.1477  0.0786 -0.3580
11612W        W29136   9.006  13.718   1.062 -0.0839  0.0070 -0.0930
11613W        W29137  18.290  11.384  14.882 -0.1432  0.2107  0.1484
11614W        W29138  15.583  14.149   0.596 -0.0888  0.0699  0.0631
11615W        W29139  14.116  18.201   2.612 -0.1091 -0.2838  0.0334
11616W        W29140  14.320   0.209  12.003 -0.1584 -0.1711  0.0988
11617W        W29141   5.011   7.115  13.684  0.2638  0.2575 -0.3007
11618W        W29142   7.157  13.730  10.851  0.2011  0.0692  0.0390
11619W        W29143   6.822  11.411   3.916 -0.2365 -0.0393  0.0326
11620W        W29144  12.194  14.923   5.066 -0.0992  0.0400 -0.0587
11621W        W29145  15.336  17.659   4.087 -0.3887 -0.0339 -0.0998
11622W        W29146   8.463  10.953  15.158 -0.4924  0.0670  0.0214
11623W        W29147  14.793   5.934  11.901  0.0918  0.1666 -0.1063
11624W        W29148  11.538   6.366   0.394 -0.3348 -0.0849 -0.0454
11625W        W29149   6.585   5.480   2.696  0.0336 -0.2141 -0.0255
11626W        W29150   1.639   3.716  14.894  0.0327 -0.2572 -0.2120
11627W        W29151  16.907  11.564  15.540 -0.0499 -0.1120  0.0777
11628W        W29152   5.347  14.089   3.562  0.1957 -0.0394  0.1216
11629W        W29153   3.526   0.870  14.878  0.1613 -0.1070  0.3971
11630W        W29154  18.231   5.440  11.814  0.1012  0.2862  0.4440
11631W        W29155   2.449   4.593   1.909 -0.1125 -0.0981  0.0848
11632W        W29156   8.344  17.625   2.025  0.1894  0.2107 -0.1674
11633W        W29157  14.651  11.862  15.596  0.0752 -0.0684 -0.1938
11634W        W29158   9.398   9.300   4.396  0.0070  0.0543  0.2228
11635W        W29159   0.460   0.257  14.393  0.0519  0.1341 -0.0876
11636W        W29160  16.003   6.432   2.977 -0.3058  0.2248  0.0642
11637W        W29161   4.050  10.811  10.239  0.2518 -0.1595 -0.0813
11638W        W29162  14.601  14.965  13.739 -0.0511 -0.1058 -0.2505
11639W        W29163   4.881  17.690   1.427  0.0175 -0.1911  0.1429
11640W        W29164  13.836  10.372   3.430  0.4440  0.0676 -0.1639
11641W        W29165  18.042  12.861  11.320 -0.0952 -0.0297  0.0322
11642W        W29166  16.165  14.072  15.517  0.0966 -0.2937 -0.0042
11643W        W29167  16.677   0.290  11.868  0.3516  0.0972 -0.1041
11644W        W29168  11.397  16.251   4.602  0.0375 -0.1742  0.1343
11645W        W29169  12.561  10.661   0.027  0.0843 -0.0709 -0.2033
11646W        W29170  17.308  14.369   4.113 -0.0117  0.1617  0.1462
11647W        W29171   2.920   4.377  11.519 -0.3675  0.3031 -0.0861
11648W        W29172  14.527   9.011   3.279 -0.0070  0.1505  0.3800
11649W        W29173   0.735   2.749   4.700 -0.2559  0.2705  0.0626
11650W        W29174   6.003  16.184   1.056 -0.0007 -0.3843 -0.1151
11651W        W29175  16.567  18.304   1.453 -0.1032  0.2090  0.1646
11652W        W29176   4.251   8.362  11.572 -0.3320  0.0174  0.2417
11653W        W29177   4.118   2.845  15.250  0.0592  0.1487 -0.0795
11654W        W29178   6.468  11.654  14.749  0.0380  0.2439 -0.0053
11655W        W29179  13.487   3.301  13.116 -0.0771  0.1758 -0.3542
11656W        W29180   8.959   8.924   2.801  0.0096 -0.1525  0.1031
11657W        W29181  15.588   6.394   3.874 -0.1197 -0.0199  0.2163
11658W        W29182   1.818   2.177   3.297 -0.1681  0.0190 -0.5008
11659W        W29183  10.707  10.310   1.784  0.0226  0.2763 -0.0219
11660W        W29184   9.646   9.911  15.721  0.2066  0.0056  0.0320
11661W        W29185   8.854   2.397   0.746  0.0205  0.1878 -0.1862
11662W        W29186   1.704  10.439   2.788 -0.1987  0.0036  0.2175
11663W        W29187  16.498   1.426  11.411  0.2805 -0.1237  0.0491
11664W        W29188  13.743  14.962  15.039 -0.3918 -0.1827 -0.3211
11665W        W29189   2.510  14.146   1.033  0.0335 -0.5467 -0.1431
11666W        W29190   3.889   0.212  11.347 -0.2828  0.0310 -0.0131
11667W        W29191   7.456   1.331   4.001  0.1874 -0.0844  0.0970
11668W        W29192   5.383   0.515  12.766 -0.2358 -0.2134  0.1160
11669W        W29193   0.877  17.416   0.103 -0.5917 -0.0285 -0.0850
11670W        W29194  16.254  10.001  13.323  0.0573  0.2833  0.0219
11671W        W29195  13.114   6.089   4.792  0.1750 -0.0449 -0.1214
11672W        W29196   3.520   2.204  12.228 -0.4660  0.1900 -0.2306
11673W        W29197   5.834   0.614  13.414  0.0204 -0.2581 -0.1515
11674W        W29198   8.708   4.653   2.029 -0.2465 -0.2640 -0.1782
11675W        W29199   6.515   1.096   0.750  0.3940 -0.0951 -0.0882
11676W        W29200   8.176   5.681   3.249  0.0689  0.0831 -0.0446
11677W        W29201  17.689   2.278   3.546  0.2784 -0.2228  0.1211
11678W        W29202   6.746  17.938  12.933 -0.0183 -0.3931 -0.2440
11679W        W29203   6.750   1.415   1.083 -0.1464  0.3029 -0.0203
11680W        W29204   5.693   0.095  13.264  0.1202 -0.0434 -0.0059
11681W        W29205  13.186  16.661   1.345 -0.0539  0.1165 -0.0655
11682W        W29206  10.858   1.084   3.615  0.0247 -0.3689 -0.0872
11683W        W29207   8.430  13.296   4.181  0.0497  0.2081  0.1653
11684W        W29208   6.842  16.367  13.167 -0.0041  0.1009  0.1509
11685W        W29209  11.946  11.795  14.828 -0.1212 -0.0157  0.2593
11686W        W29210   0.463   4.110  14.070  0.0719 -0.2362  0.1734
11687W        W29211   3.456  11.466  12.304  0.0853  0.4467 -0.0049
11688W        W29212  16.488   9.262  13.249 -0.0243  0.0367  0.0187
11689W        W29213   8.332   6.985  12.122 -0.0828 -0.1106  0.2183
11690W        W29214  13.828  15.173   0.688  0.0402  0.0324  0.0043
11691W        W29215   6.638  15.258  14.414  0.0080  0.1116 -0.0158
11692W        W29216  17.727   5.067  15.781 -0.0599 -0.0283  0.1677
11693W        W29217   2.228   2.500  11.768  0.1519 -0.2977 -0.2470
11694W        W29218   4.540   4.183  11.598  0.1141  0.0980 -0.0979
11695W        W29219  10.390   9.197  13.035 -0.1915  0.2958  0.0445
11696W        W29220   8.804  17.915   1.730  0.1424 -0.0613 -0.0300
11697W        W29221   6.054   6.423   0.143  0.1644 -0.0092  0.3918
11698W        W29222  15.765  13.523   0.408 -0.0949  0.2423  0.0192
11699W        W29223  17.285  10.383   4.277 -0.0725  0.1504 -0.3480
11700W        W29224   6.105  10.333  12.159  0.0752  0.0201  0.1411
11701W        W29225  17.809  13.602   2.618  0.0318  0.0284  0.3015
11702W        W29226   0.871  10.642  11.088  0.1534 -0.0357 -0.0350
11703W        W29227   0.942  13.574  13.402  0.0049 -0.0165  0.1000
11704W        W29228  12.063  16.936  13.268  0.0614 -0.0421  0.0995
11705W        W29229  13.802  16.787  13.149  0.6040  0.3061 -0.0015
11706W        W29230   0.247   9.965   4.306  0.1841  0.1141  0.2307
11707W        W29231   6.608  17.922   1.618 -0.0229 -0.0695 -0.1919
11708W        W29232   2.396   6.623   0.234 -0.1129  0.2429  0.0501
11709W        W29233   5.916   0.612   1.785  0.1146 -0.3363  0.2318
11710W        W29234   8.671  14.289  12.394  0.0834 -0.1342 -0.2530
11711W        W29235   1.116  18.300  13.057 -0.2002  0.0165  0.3106
11712W        W29236  16.993   7.666  11.867  0.2981 -0.1295 -0.1886
11713W        W29237  10.523  11.186   0.978  0.1164  0.0160 -0.0810
11714W        W29238   7.092   9.146  15.244  0.2140  0.1831  0.0826
11715W        W29239  11.458   2.923   4.936  0.3220  0.2061  0.0665
11716W        W29240  10.304  14.664  15.658  0.0187 -0.0833 -0.0834
11717W        W29241  13.539   3.443   0.996 -0.1284 -0.1708 -0.0994
11718W        W29242  11.499   0.514  14.965  0.1229  0.0852 -0.1887
11719W        W29243  16.034  10.068  14.552 -0.3260  0.1277 -0.0510
11720W        W29244   7.075   2.325   2.101  0.0598 -0.3476 -0.2698
11721W        W29245   2.931  13.715   0.427  0.0359  0.1045 -0.0916
11722W        W29246   7.671  16.414   0.338  0.2344 -0.5022  0.0286
11723W        W29247   4.093  10.477  10.648  0.3508 -0.0040  0.0390
11724W        W29248   2.865   8.458  14.757 -0.1180 -0.0419 -0.1168
11725W        W29249  13.356  17.573  12.246  0.1090 -0.1573 -0.1324
11726W        W29250   6.033  16.282  15.574  0.0902  0.1223  0.2347
11727W        W29251  11.227   1.892   2.590  0.3067 -0.0704 -0.2461
11728W        W29252  12.688   2.630   4.977  0.0016  0.1327  0.1718
11729W        W29253   7.485  12.378  14.502  0.1674  0.0394 -0.1160
11730W        W29254   4.231  12.981   3.258  0.1864 -0.0240  0.0524
11731W        W29255   3.293   1.972   2.308  0.0516 -0.0744  0.1944
11732W        W29256  17.297  18.371   4.901 -0.0441 -0.2095 -0.0528
11733W        W29257  12.074   1.128  15.014  0.1187  0.5098  0.0194
11734W        W29258  16.714   2.793  13.384  0.5844  0.0197  0.1644
11735W        W29259   0.002   6.757   3.238  0.1359  0.0310 -0.2467
11736W        W29260  14.958  12.534   1.228 -0.1558  0.2339  0.0289
11737W        W29261   6.215   0.512   4.388 -0.1373 -0.0284  0.0295
11738W        W29262   4.545   9.068   3.466 -0.0855 -0.1024 -0.1468
11739W        W29263  13.153   5.460   2.652  0.1110  0.0202 -0.1117
11740W        W29264  13.630  15.369   0.192 -0.1010 -0.0574 -0.1290
11741W        W29265  18.131   9.302   1.056  0.3700  0.0245  0.0645
11742W        W29266   4.904  14.013  10.960 -0.1596 -0.0290 -0.0052
11743W        W29267   0.845  10.195  13.557  0.1048 -0.0194  0.0151
11744W        W29268   6.110   8.095  15.511  0.0434 -0.2909  0.0947
11745W        W29269  13.359   7.575  12.038  0.0215  0.2075  0.0430
11746W        W29270   3.272   4.832   2.864 -0.1894  0.2192  0.1973
11747W        W29271   4.861  11.337  12.493  0.0066  0.1577  0.0516
11748W        W29272   6.366  15.205   0.641 -0.2320  0.0211  0.3264
11749W        W29273   7.642   6.317  11.098 -0.0706 -0.0942 -0.3861
11750W        W29274  18.055   1.446   2.902 -0.0754  0.2971  0.0898
11751W        W29275   8.571  14.643  13.857 -0.0678  0.0645 -0.1849
11752W        W29276  12.705   2.609  13.942 -0.3662 -0.3919 -0.1292
11753W        W29277  13.117   8.572  14.706  0.2510 -0.0052  0.0349
11754W        W29278  10.724   0.893   1.549  0.0392  0.2017  0.1311
11755W        W29279  17.962  17.111  12.267  0.2151 -0.0413 -0.0762
11756W        W29280  18.278   2.434   0.154 -0.0367  0.0760 -0.0815
11757W        W29281   9.968  17.954  15.019  0.0254  0.3863 -0.0670
11758W        W29282  10.216   4.047  12.650  0.2528  0.0724  0.2670
11759W        W29283  13.988  17.804   2.311  0.4967 -0.2426 -0.2161
11760W        W29284   3.250  10.752   4.740 -0.1245 -0.3230 -0.3884
11761W        W29285   7.509   8.711   0.154 -0.2217 -0.1222  0.1053
11762W        W29286  14.356  16.995  13.333 -0.0620 -0.0282  0.0804
11763W        W29287   2.136   1.906  12.277 -0.2816 -0.0671 -0.0313
11764W        W29288  13.452   6.535  14.045  0.0877  0.1713 -0.1351
11765W        W29289   2.475  11.200  14.503  0.1852 -0.2293 -0.3280
11766W        W29290  17.196  17.325  11.629 -0.0641 -0.3367  0.2043
11767W        W29291  15.165   9.507  14.545 -0.0148 -0.2897  0.3090
11768W        W29292  15.863  18.048  15.237 -0.0126  0.2635 -0.0561
11769W        W29293   6.843  10.449  15.415 -0.1840  0.2811  0.0826
11770W        W29294   3.942   1.459  15.350 -0.2300  0.2344 -0.1427
11771W        W29295  15.203   1.961   3.560 -0.0158  0.0154  0.1784
11772W        W29296  15.643   5.910  14.756  0.2050 -0.1671 -0.2929
11773W        W29297  16.966  14.854  14.440 -0.0718  0.0868  0.0444
11774W        W29298   2.047   9.009  10.825 -0.0515 -0.0553  0.0406
11775W        W29299  15.539  16.527   2.804  0.3368 -0.3196 -0.0703
11776W        W29300   6.668  17.436   3.966 -0.0541 -0.3272 -0.0630
11777W        W29301   1.368   2.412  12.250  0.0662 -0.1479  0.2548
11778W        W29302   3.156   2.440   1.289  0.2604  0.1355  0.0218
11779W        W29303  16.918  16.065  12.116 -0.0190  0.2407 -0.3439
11780W        W29304  17.886   5.238  10.571 -0.1628 -0.1828  0.2735
11781W        W29305   1.426   4.196   1.713  0.0363 -0.1549  0.1015
11782W        W29306   6.880   7.028   2.609  0.1294  0.1633  0.1838
11783W        W29307  17.904   8.876   4.445  0.1549 -0.1145  0.0202
11784W        W29308   4.037  17.146  14.651 -0.3717  0.0952  0.0125
11785W        W29309  14.907  10.955  12.926 -0.1124  0.0886 -0.0066
11786W        W29310   0.763  16.425   4.118  0.0444 -0.3381 -0.5201
11787W        W29311  12.835  15.933  12.480  0.1042 -0.0885  0.0308
11788W        W29312  10.269  16.734   2.933 -0.1504  0.2367 -0.0803
11789W        W29313  14.043   0.963  12.661  0.2793  0.0299 -0.2569
11790W        W29314   0.866   0.546  14.701  0.1208  0.2172 -0.0158
11791W        W29315  18.190   9.159  14.941  0.0451  0.3203 -0.0586
11792W        W29316   8.606   4.616   4.095  0.2136 -0.0425 -0.3053
11793W        W29317  17.046   3.117  13.078  0.2679  0.0131  0.1462
11794W        W29318  13.000   5.592  12.613 -0.0417 -0.1326  0.2733
11795W        W29319  11.065  12.964  11.184  0.1594  0.3389  0.2154
11796W        W29320   8.027  12.536  13.903  0.4247 -0.1203 -0.1603
11797W        W29321   1.172   4.676   3.621  0.2612  0.1528 -0.0636
11798W        W29322   2.191   5.329   4.047  0.0248  0.1083  0.3165
11799W        W29323  10.678  14.974  15.671 -0.3353  0.4780  0.0527
11800W        W29324   7.165   3.108   1.954 -0.1839 -0.0774  0.0729
11801W        W29325   3.585  17.249  11.193  0.1629  0.0710  0.1880
11802W        W29326  15.482   1.832   4.446  0.0785  0.0824  0.0689
11803W        W29327   2.025   2.876  12.534 -0.2552 -0.3571  0.0291
11804W        W29328   9.570   9.113  15.047  0.0990  0.0190  0.0832
11805W        W29329  12.039   6.168   0.650  0.1650 -0.2015 -0.2027
11806W        W29330  16.109   2.514  10.430 -0.1914 -0.0685 -0.2185
11807W        W29331   7.588   9.610  11.113 -0.1432  0.0046 -0.0683
11808W        W29332   4.211   5.998  14.104 -0.1604 -0.0619 -0.3283
11809W        W29333  10.609   7.648  13.669 -0.6187 -0.3089  0.0187
11810W        W29334  11.849  18.099   1.835 -0.0182 -0.1023 -0.1419
11811W        W29335   0.653  17.057   3.763  0.0306 -0.1171 -0.0640
11812W        W29336   7.002  15.954  12.959 -0.1477 -0.0097 -0.1416
11813W        W29337  15.347  14.943   2.233 -0.4950 -0.0095 -0.0636
11814W        W29338   0.101   4.092  11.575  0.4779 -0.3036  0.0072
11815W        W29339  10.558  17.239   5.113 -0.0804 -0.2245  0.1219
11816W        W29340  17.230  10.523   1.572  0.0640 -0.3196  0.0513
11817W        W29341  11.153   2.277  13.982 -0.1089  0.1102  0.0338
11818W        W29342  16.138  12.985   2.850 -0.4144  0.2040  0.1863
11819W        W29343   4.874   7.726  11.741  0.0579 -0.1453  0.1398
11820W        W29344  11.604   1.213  15.164 -0.1447  0.2309 -0.0312
11821W        W29345   3.945  17.601   0.293 -0.2405  0.1157  0.2279
11822W        W29346   3.447  13.614  10.695 -0.1043 -0.0947  0.0073
11823W        W29347   3.646   0.513   1.107 -0.2811 -0.0574  0.2154
11824W        W29348  14.793   7.627  15.441  0.2596  0.0182 -0.1749
11825W        W29349   2.367  11.797  13.082 -0.1126  0.2744  0.0631
11826W        W29350   5.944   4.964  13.233  0.3903  0.0103 -0.3490
11827W        W29351   9.533  14.171  13.103  0.1318 -0.0284  0.0529
11828W        W29352   9.529  17.795  14.427 -0.0649  0.0507  0.0355
11829W        W29353   5.810   8.212   3.408 -0.0901  0.1207  0.0159
11830W        W29354  13.014   1.137  15.202  0.3598  0.1435  0.2634
11831W        W29355   5.646  14.934   4.508  0.1297 -0.2054  0.2121
11832W        W29356  13.700  12.551  12.393  0.0207  0.0836  0.3758
11833W        W29357   0.635   8.086  14.942  0.1215 -0.2177  0.1248
11834W        W29358   7.022   5.022  15.541 -0.0083  0.1851 -0.0585
11835W        W29359  14.778   0.502   3.504  0.3478 -0.0736  0.0379
11836W        W29360   8.638   9.413   1.856 -0.2624  0.3340 -0.0336
11837W        W29361  17.134  17.644   3.543  0.3427 -0.0737  0.2520
11838W        W29362   9.557   5.934   3.144 -0.0618  0.0016 -0.3442
11839W        W29363  13.626  12.653  15.142 -0.2897  0.2369 -0.0772
11840W        W29364  12.172   0.556   4.857  0.0956 -0.3075 -0.3732
11841W        W29365   8.296   1.486  15.004 -0.1405  0.0032 -0.1896
11842W        W29366  15.229   4.227  12.575 -0.1371 -0.4323  0.0732
11843W        W29367   9.678  16.254  12.737  0.0162  0.0845 -0.2663
11844W        W29368   2.834  11.209  15.847  0.2711 -0.2087  0.1024
11845W        W29369  12.796   9.538  13.701  0.2024 -0.0791  0.1071
11846W        W29370  15.395   8.040   3.402 -0.0850  0.4887 -0.0088
11847W        W29371  12.379   1.454   1.889 -0.1262  0.2288 -0.2300
11848W        W29372  17.660   1.030   1.024  0.2197 -0.1220 -0.1608
11849W        W29373  18.065   6.579   3.640 -0.0318 -0.3831 -0.3637
11850W        W29374  15.312   8.517   3.457 -0.1570 -0.2789 -0.1191
11851W        W29375   0.301   1.586   4.355  0.0334 -0.1642 -0.0979
11852W        W29376  18.173   9.727   0.668  0.2043 -0.2115  0.1844
11853W        W29377   4.969   1.662   1.520 -0.0513  0.1586  0.2865
11854W        W29378  13.926  10.992   1.864  0.0141 -0.2350  0.4668
11855W        W29379   9.109   6.720   4.400 -0.0897  0.2038  0.1897
11856W        W29380   3.042   2.227  13.192 -0.2749 -0.1595  0.3184
11857W        W29381  17.485  16.332  13.048  0.0981 -0.1418  0.0685
11858W        W29382  13.223   2.728  14.101 -0.1581  0.2618 -0.0495
11859W        W29383  12.317  18.270   1.978  0.0293  0.3350  0.1805
11860W        W29384  17.046  15.952  11.061 -0.1250  0.0168 -0.1248
11861W        W29385   6.901   9.701   3.676 -0.0371 -0.0399  0.3251
11862W        W29386   9.632   1.025  13.358 -0.0204  0.1491  0.0227
11863W        W29387  17.429   5.805   3.840 -0.1227  0.0992  0.1404
11864W        W29388   7.502   6.839  11.729  0.1639  0.1286 -0.0313
11865W        W29389   9.400  17.466  14.015 -0.0364  0.1838 -0.2526
11866W        W29390  16.090   4.010  12.457 -0.0151 -0.0763  0.0665
11867W        W29391   8.366  17.049  12.788  0.1802  0.2478  0.0146
11868W        W29392   1.654  12.646  12.442 -0.4084  0.1756 -0.0612
11869W        W29393   1.771   2.339  15.708 -0.1902  0.2218 -0.0097
11870W        W29394  13.999   7.191  14.695  0.1624  0.4216 -0.1914
11871W        W29395   7.481   1.077  11.102 -0.2094  0.2041 -0.0830
11872W        W29396  17.934   0.255   3.590  0.3538 -0.2305  0.2640
11873W        W29397   8.982   5.175  14.304 -0.2771  0.1019 -0.0167
11874W        W29398  16.373  13.485  11.682  0.0850 -0.0388  0.2701
11875W        W29399   9.516   7.931   3.974 -0.0225  0.1664 -0.0478
11876W        W29400   0.090  11.090  13.842  0.1621  0.0607 -0.0163
11877W        W29401  14.424   9.682   0.654  0.2883 -0.3716 -0.0484
11878W        W29402   4.719   4.457  13.448  0.1203  0.0716  0.0897
11879W        W29403   7.270  13.422  12.029 -0.1147 -0.0981 -0.0264
11880W        W29404  10.383   1.377   3.770  0.2149  0.0953  0.2199
11881W        W29405  17.106  16.070  14.369 -0.3168  0.1062 -0.0890
11882W        W29406   8.691  13.372   3.676  0.1967  0.0482  0.1628
11883W        W29407   5.867  13.679   4.870  0.3915  0.3102 -0.0545
11884W        W29408  10.210  11.412  13.621 -0.1343 -0.1404  0.3436
11885W        W29409   0.663   4.862   1.607  0.1437 -0.1511 -0.1763
11886W        W29410   3.121  12.400   3.850 -0.1577 -0.0207 -0.0031
11887W        W29411   3.990   0.197   1.581  0.0578  0.2806 -0.0082
11888W        W29412  16.050  11.824   1.638  0.1777  0.2423  0.2043
11889W        W29413   3.273   0.784   3.609 -0.2370  0.0762 -0.0251
11890W        W29414   3.362  10.508  12.233 -0.2351 -0.1895 -0.0742
11891W        W29415  14.622  17.135   4.113  0.1459 -0.1981 -0.4608
11892W        W29416   0.140   3.008  14.211  0.1083 -0.0770 -0.0632
11893W        W29417   5.836   6.071  13.894  0.1109 -0.0425  0.1268
11894W        W29418   5.506  13.566  13.507  0.1450  0.1826  0.1729
11895W        W29419  16.190  17.009   1.650 -0.0810 -0.2231  0.1358
11896W        W29420  14.198   4.560  15.453  0.4378 -0.1546 -0.1743
11897W        W29421   9.307   1.481  14.878  0.0479  0.4664  0.1732
11898W        W29422   1.211  16.118   0.977 -0.1459  0.1854 -0.1202
11899W        W29423   1.886  17.323   1.658 -0.1008 -0.1187  0.4595
11900W        W29424   3.034  13.313   2.894 -0.2480  0.1965 -0.0569
11901W        W29425   6.076   2.764   1.128  0.0805  0.1126  0.1400
11902W        W29426  13.171   4.470   3.847  0.1209 -0.0870 -0.4015
11903W        W29427  14.930   6.152  12.354  0.3205  0.0651 -0.0756
11904W        W29428   6.064   4.289   0.866 -0.2145  0.0222  0.3374
11905W        W29429   8.897   5.551   0.723  0.0313 -0.1876  0.0686
11906W        W29430  14.507  10.871  15.536 -0.0408 -0.1338  0.1028
11907W        W29431   6.804  13.973  13.562 -0.3249 -0.0732 -0.2196
11908W        W29432  14.961   7.455  12.702 -0.2110 -0.2673  0.0977
11909W        W29433  14.477   9.473   3.554 -0.0004  0.2562 -0.1039
11910W        W29434  15.945   6.443   2.147 -0.1732 -0.1761  0.1233
11911W        W29435   9.807  11.573  15.040  0.0486  0.0454 -0.3370
11912W        W29436   5.981   7.979   2.292  0.1723  0.0742  0.0024
11913W        W29437  12.292   8.321  11.476  0.2229 -0.0647 -0.3016
11914W        W29438   0.042  16.222   3.764 -0.0866 -0.0051  0.0654
11915W        W29439  10.686  17.539  10.950 -0.5938 -0.1366 -0.2413
11916W        W29440  10.671  16.642  15.656  0.1125  0.2536 -0.5180
11917W        W29441   5.331   1.238  14.544 -0.0586  0.0087 -0.0437
11918W        W29442   8.980   6.730  13.820 -0.1374  0.1833 -0.0139
11919W        W29443   4.948  11.098  11.534  0.0296  0.0090  0.1659
11920W        W29444  17.690   7.701   4.565  0.1034 -0.0054  0.1280
11921W        W29445  15.682   4.807  11.090 -0.0419  0.1549  0.1884
11922W        W29446   2.957   1.559   4.516 -0.2450  0.1111 -0.0290
11923W        W29447  11.251  13.119   2.066  0.5330 -0.0652  0.1340
11924W        W29448  17.983  11.332  15.359  0.2600 -0.1018  0.1438
11925W        W29449   5.212   6.757   4.220 -0.2134  0.1623  0.0680
11926W        W29450   7.640  10.038   4.315 -0.2177 -0.0339 -0.1486
11927W        W29451   9.936  10.919  14.481 -0.0056  0.0648  0.1542
11928W        W29452  16.672  16.777  13.103  0.0438 -0.0609  0.0533
11929W        W29453  14.474   9.648  15.252 -0.0991 -0.0577 -0.0066
11930W        W29454   4.759   1.880   2.843 -0.2588  0.0180 -0.2793
11931W        W29455  18.207   2.590  11.200  0.1139 -0.3086  0.1507
11932W        W29456  18.157   1.670   0.472  0.1019 -0.3859 -0.0680
11933W        W29457  17.089   6.195   4.751 -0.0774 -0.1747 -0.0827
11934W        W29458  17.073   1.501  14.373  0.1397 -0.0817 -0.5456
11935W        W29459   2.719   3.879  15.039 -0.2913  0.1196 -0.1319
11936W        W29460   2.418  18.136   2.743  0.0992  0.3929 -0.4324
11937W        W29461  18.274   5.671   0.321  0.1997  0.0933 -0.3931
11938W        W29462   0.854  15.718   2.970  0.0606 -0.0281  0.1365
11939W        W29463   0.722  11.559  14.863  0.0357  0.0144 -0.1160
11940W        W29464  13.085   7.027  11.246  0.1057 -0.4014 -0.0104
11941W        W29465   0.950  10.182  15.296 -0.2378  0.0091 -0.0790
11942W        W29466   0.303   6.214  12.229  0.2926 -0.3297 -0.1912
11943W        W29467  15.054   9.519   3.772  0.0351  0.0994  0.0789
11944W        W29468   7.505   4.269  15.844  0.0827 -0.1461 -0.0824
11945W        W29469   7.310   9.422  14.261  0.2540 -0.1530 -0.1463
11946W        W29470   9.832   7.307  13.089 -0.2406 -0.1843  0.0012
11947W        W29471  16.757   5.351  14.291  0.0721  0.0737 -0.0550
11948W        W29472   2.865  17.053  15.341  0.0162  0.2333 -0.2130
11949W        W29473   0.568   7.591   4.652 -0.0877  0.0617  0.0249
11950W        W29474   5.889   3.865  11.598  0.1349  0.3180 -0.3236
11951W        W29475   7.420   0.584  15.020  0.1580  0.0986  0.3337
11952W        W29476   2.776   7.988  15.687  0.3699 -0.3382  0.1446
11953W        W29477  12.555   1.427   1.434 -0.1194 -0.2133 -0.1104
11954W        W29478   9.595   3.104  13.601  0.2038 -0.1372 -0.1815
11955W        W29479  16.432  12.136   4.383 -0.1015  0.2777  0.0365
11956W        W29480  13.933   8.398  15.796  0.0633 -0.1250  0.2218
11957W        W29481  17.236  18.224  11.636  0.1634 -0.0501  0.3083
11958W        W29482   2.437  14.285   2.350 -0.0363 -0.0356  0.0225
11959W        W29483   2.879  13.976  13.014 -0.2089 -0.1058 -0.2601
11960W        W29484   8.200   6.879   2.680  0.1205  0.1600 -0.1958
11961W        W29485  12.977  18.222   0.896  0.2082  0.2648 -0.2291
11962W        W29486  16.113   8.374  13.260  0.1514 -0.0816  0.3106
11963W        W29487  18.217  14.413  11.701  0.1153  0.1469 -0.0566
11964W        W29488   8.997   7.158  15.546 -0.1856 -0.2026 -0.0896
11965W        W29489  17.894  17.015  13.733  0.1922 -0.1933 -0.1447
11966W        W29490   4.148   3.418  15.824  0.0005  0.3854  0.0490
11967W        W29491   5.106   3.525   2.349  0.0322 -0.3192 -0.1771
11968W        W29492  17.215   0.841  15.560 -0.3356  0.0358  0.1092
11969W        W29493   2.424  12.958  12.152 -0.2898 -0.2068 -0.1756
11970W        W29494   7.153  13.229   4.289  0.1025  0.2649  0.2318
11971W        W29495   1.698   0.179  10.539  0.1251  0.0177  0.2762
11972W        W29496  10.383  16.649  15.070 -0.0848  0.3616  0.3038
11973W        W29497  18.114   2.524   3.043  0.0439 -0.2483 -0.0628
11974W        W29498   9.565   5.230  11.289 -0.1988  0.0832  0.0773
11975W        W29499  13.229   4.062   2.754 -0.1948  0.0207 -0.5738
11976W        W29500  14.139   9.042  14.245 -0.2459 -0.0613  0.0927
11977W        W29501   5.859   8.037  14.084 -0.0117  0.4686 -0.1953
11978W        W29502   6.541   7.685   0.600 -0.1483 -0.2716 -0.1057
11979W        W29503  10.395   5.328  15.365  0.2299  0.0337 -0.1604
11980W        W29504  10.346   1.051   0.643 -0.2661 -0.1761 -0.0808
11981W        W29505   0.689   5.129  15.813  0.1299 -0.1308 -0.3057
11982W        W29506  16.091   4.463   0.559 -0.1045  0.3766 -0.0755
11983W        W29507  12.698   5.836  12.887 -0.0531  0.0095 -0.0836
11984W        W29508   3.850  11.815  14.494 -0.1126 -0.4799  0.3293
11985W        W29509  10.068   9.207   1.016 -0.0147 -0.1596  0.2182
11986W        W29510  16.801  14.013   4.210 -0.1167 -0.4796  0.0994
11987W        W29511   0.231  15.611   1.641  0.0713  0.2026  0.2206
11988W        W29512   8.081   0.132  14.455  0.1673 -0.1181  0.1293
11989W        W29513   6.572  16.315   5.243 -0.0572  0.0008 -0.0449
11990W        W29514  14.086   0.218   0.384  0.3333 -0.2952  0.1052
11991W        W29515   5.099   3.640  13.579 -0.2875  0.2212  0.4745
11992W        W29516   7.027  18.336   4.302 -0.1942 -0.1014 -0.0903
11993W        W29517   3.312  17.291  14.448 -0.2902 -0.1970  0.1821
11994W        W29518  13.667   0.970  12.018  0.0483 -0.0390 -0.0608
11995W        W29519   5.010  16.113  12.051 -0.1198  0.0934 -0.0192
11996W        W29520   8.513  11.166   2.033 -0.0089  0.2771  0.0477
11997W        W29521  17.042   6.749  14.983 -0.1199 -0.0270  0.3789
11998W        W29522  13.834   4.709   3.224  0.3295 -0.3020  0.1661
11999W        W29523   0.620   9.922   4.622 -0.3487  0.4016 -0.0582
12000W        W29524  17.111   7.195  14.032  0.0640  0.1075 -0.1893
12001W        W29525   8.390  15.143  11.880 -0.2606  0.3255 -0.1233
12002W        W29526   9.480  15.367  15.844 -0.0675 -0.1216 -0.3389
12003W        W29527   1.380  11.070   3.030 -0.1301  0.0384 -0.1716
12004W        W29528   3.630  13.972   4.641 -0.2126 -0.0724  0.1470
12005W        W29529  16.341  15.086   0.326 -0.0816  0.0120  0.1633
12006W        W29530  14.449   5.399   0.784 -0.1609  0.0067  0.1309
12007W        W29531  13.683  11.096   4.844 -0.0919 -0.3189 -0.0683
12008W        W29532   6.155   7.850  11.238 -0.3298 -0.0193  0.1071
12009W        W29533  18.331  15.563   0.323  0.1141  0.0043  0.2252
12010W        W29534  12.590  17.888   4.209  0.1292 -0.1601 -0.0542
12011W        W29535   9.797  12.627   2.959 -0.2564 -0.0176  0.3216
12012W        W29536   4.778   9.285   1.230 -0.1992 -0.3874 -0.2821
12013W        W29537   3.973   4.945   0.056  0.1578  0.2196 -0.0365
12014W        W29538   3.994  14.976   1.194 -0.0281 -0.1274  0.1382
12015W        W29539  15.316  16.379  14.829 -0.1034 -0.2025  0.4102
12016W        W29540   9.181   2.849  14.689  0.0443  0.1630  0.1428
12017W        W29541   7.604  11.672   0.993 -0.0398  0.1003  0.1294
12018W        W29542   6.610   2.297   4.071 -0.1926  0.4968 -0.1017
12019W        W29543   5.513  11.529   4.474 -0.0981  0.1825  0.0973
12020W        W29544   4.240   4.507  13.419 -0.4039 -0.3471  0.1157
12021W        W29545  11.277  10.379   0.200  0.2937 -0.1601 -0.0658
12022W        W29546  12.562  16.990  11.976 -0.2341  0.1341  0.3176
12023W        W29547   5.509   1.586   1.586 -0.0033 -0.1424  0.4028
12024W        W29548  11.165   5.218   1.197  0.0495 -0.1686  0.3546
12025W        W29549  15.903   2.326   3.848  0.0189  0.1544  0.3888
12026W        W29550   1.182  13.686   0.007 -0.0413 -0.1461  0.0219
12027W        W29551  10.561  18.387   1.927 -0.0647 -0.2978 -0.0412
12028W        W29552  15.357   0.591  15.431  0.1433 -0.1770  0.3641
12029W        W29553  16.188   7.582  12.211  0.1821 -0.0497 -0.2539
12030W        W29554  13.743   1.303   2.402 -0.1147 -0.0280  0.4884
12031W        W29555  15.458  12.158   2.282 -0.2344  0.1088 -0.1347
12032W        W29556  14.073  15.459   5.472 -0.0405  0.0957 -0.1838
12033W        W29557   6.173  18.340   4.317  0.1341 -0.0846  0.0606
12034W        W29558   8.677  15.641   2.443  0.2417  0.0465  0.2211
12035W        W29559   4.620  11.011  14.490  0.1037  0.1622  0.1702
12036W        W29560  13.003   3.674   0.745 -0.1180 -0.2866  0.2102
12037W        W29561  14.975  16.703   2.693  0.1738 -0.3923 -0.2040
12038W        W29562   1.451   1.325  15.851 -0.1086  0.0260  0.2646
12039W        W29563  18.094   3.307  11.264 -0.0416 -0.0251 -0.4839
12040W        W29564  16.379  14.193  14.970 -0.0281 -0.0004 -0.0165
12041W        W29565   2.475   7.620  14.140  0.0048 -0.0466  0.0174
12042W        W29566  13.477  17.981  13.675  0.1531  0.2129  0.5563
12043W        W29567   3.937  11.907   0.600 -0.1351  0.1903 -0.1032
12044W        W29568   4.223   7.130  15.357  0.1049 -0.1542  0.3672
12045W        W29569  17.057   3.304  15.118 -0.3069 -0.4484  0.0152
12046W        W29570  17.267  14.104  12.469 -0.2085 -0.0773  0.0530
12047W        W29571  14.205  11.200   4.477  0.1727  0.1818  0.1918
12048W        W29572  15.669   5.113   3.504  0.1287 -0.0154  0.3684
12049W        W29573  12.119  17.258   0.439 -0.3922 -0.1061  0.1950
12050W        W29574   8.603  11.734  14.774  0.4749 -0.1684 -0.3237
12051W        W29575  11.138   0.657   1.286  0.3143  0.0332 -0.0497
12052W        W29576  16.486   5.361  12.757  0.2002 -0.0530  0.1088
12053W        W29577   4.935   4.388  11.850  0.1235  0.2761  0.0447
12054W        W29578  10.294   2.367  15.188  0.1964 -0.0499 -0.2382
12055W        W29579  13.099  12.960   1.093 -0.0221 -0.5394 -0.0253
12056W        W29580   7.536  13.999   3.839  0.1951 -0.1380 -0.1323
12057W        W29581   7.452  13.572  14.614  0.0558  0.0444 -0.2135
12058W        W29582  11.510  12.126   2.997 -0.0433 -0.0083  0.0661
12059W        W29583   6.933  16.997   1.480 -0.0579 -0.0998  0.0273
12060W        W29584   4.245   2.771   4.681  0.0352 -0.0954 -0.1072
12061W        W29585  10.857   4.334  12.188  0.1895 -0.4108  0.1384
12062W        W29586  18.409  10.590   4.676 -0.0623  0.4285  0.0873
12063W        W29587   7.855  14.908  14.378 -0.0792  0.0079  0.5412
12064W        W29588   7.760   0.991  11.523  0.1013  0.0628 -0.2141
12065W        W29589  15.616   1.192   3.250 -0.0266  0.2365 -0.2365
12066W        W29590   8.627  16.189  10.504 -0.3626  0.1374  0.1406
12067W        W29591  12.674   0.834  12.970  0.0415  0.1770  0.1057
12068W        W29592   0.048   2.805   5.679 -0.1509 -0.1888  0.3481
12069W        W29593  10.729   3.030  12.744  0.2113  0.0347 -0.0938
12070W        W29594  12.386   9.147  13.644  0.2999 -0.1495 -0.0455
12071W        W29595   6.855  14.348   2.979  0.3078  0.1490  0.0741
12072W        W29596  14.636  18.021  11.355  0.0723  0.2749  0.1528
12073W        W29597   9.974   8.922   0.122  0.0271  0.0988 -0.1203
12074W        W29598   6.332   4.022  14.847 -0.2708 -0.2491  0.2808
12075W        W29599   6.312   8.669   3.940  0.3003  0.1970 -0.2365
12076W        W29600  11.341   2.612   4.455  0.2199  0.3300 -0.5933
12077W        W29601   1.901   7.594   0.036 -0.0075 -0.1752  0.0337
12078W        W29602  11.105   8.692  14.272 -0.1234  0.2352  0.1481
12079W        W29603   4.731  16.693  14.256 -0.0798  0.1273  0.3602
12080W        W29604   4.516   8.451  12.377  0.0814 -0.0495  0.1778
12081W        W29605   6.500  11.457  13.494  0.2430 -0.0118  0.3621
12082W        W29606  13.834   4.782   0.102 -0.2658  0.1589  0.0064
12083W        W29607   9.996  11.531   0.985 -0.1873 -0.0724 -0.1448
12084W        W29608   1.824   2.236  11.968 -0.2163 -0.2066  0.1440
12085W        W29609   2.841   2.232   2.056  0.0793  0.3774  0.2249
12086W        W29610  12.420  16.624   1.107  0.0590 -0.3272  0.0976
12087W        W29611   3.813  16.790   1.388 -0.1158 -0.0952  0.2724
12088W        W29612   6.915  15.419   3.970 -0.0164  0.0556  0.2711
12089W        W29613   2.244   3.843  10.969 -0.0506  0.0420  0.2909
12090W        W29614  12.309  15.103  12.395  0.2461 -0.0664 -0.1475
12091W        W29615   1.521   4.698   1.926  0.2413  0.2194 -0.1067
12092W        W29616   5.765  14.362  12.068 -0.0104 -0.1904  0.1913
12093W        W29617  13.017   6.615  14.236  0.0246  0.2356 -0.4702
12094W        W29618   0.274  15.785   3.881  0.0658  0.0294 -0.0816
12095W        W29619   9.970   6.814  14.053  0.0791 -0.1109  0.2544
12096W        W29620  17.743  15.177   4.040 -0.0346 -0.0856 -0.4764
12097W        W29621  11.618   1.281  13.810 -0.1159  0.2008 -0.0984
12098W        W29622   2.169   7.398  12.090  0.3147 -0.1797  0.2779
12099W        W29623  11.025   5.269  15.285 -0.1578 -0.1652  0.1508
12100W        W29624   6.089   7.894   0.385 -0.2556  0.0714  0.1661
12101W        W29625  11.726  16.082   0.621 -0.1553 -0.0198 -0.1236
12102W        W29626   9.795   4.811   2.298  0.2491 -0.2283 -0.2338
12103W        W29627   5.106  17.713   2.888  0.3054 -0.0824 -0.1474
12104W        W29628  16.215  15.732  13.175  0.1837 -0.2338  0.0533
12105W        W29629  18.209   8.848   0.871 -0.0816 -0.1920 -0.0945
12106W        W29630  12.786   0.655  14.288  0.0903 -0.1249  0.3134
12107W        W29631   7.635  17.106   4.383  0.0298 -0.0064  0.1572
12108W        W29632  11.356  14.691   3.536 -0.2303  0.0708 -0.0149
12109W        W29633  10.297   1.815   1.284  0.1988  0.0984  0.1820
12110W        W29634  17.946  13.032   0.064  0.0584 -0.1046  0.1542
12111W        W29635   4.040   4.775  13.015  0.0372  0.1490 -0.0760
12112W        W29636   7.875  10.029   1.657  0.0022  0.2504 -0.4001
12113W        W29637  16.837   8.451   0.234  0.4612 -0.1348  0.4005
12114W        W29638   3.485   6.538   2.173  0.2539 -0.0016 -0.2192
12115W        W29639  13.077   2.516  12.318 -0.1549  0.1762 -0.2069
12116W        W29640  17.488   8.466   3.843 -0.0808  0.3728  0.1233
12117W        W29641   3.403  15.561  15.808 -0.2555  0.1888 -0.0737
12118W        W29642   7.087   3.759   3.570  0.2612  0.2539  0.1679
12119W        W29643   9.553   0.509   3.267  0.0220  0.4289 -0.1137
12120W        W29644   0.013   4.078   4.623  0.0182  0.2804 -0.0783
12121W        W29645   0.062   7.081  11.632  0.2672 -0.0106  0.2017
12122W        W29646  13.970   9.962   1.946 -0.1661  0.1093 -0.0554
12123W        W29647  11.304   3.917  13.368  0.2191 -0.0251  0.1953
12124W        W29648  18.323   6.131  12.582  0.0861 -0.0852 -0.1045
12125W        W29649  11.266   2.065   0.993  0.0046 -0.0005  0.0379
12126W        W29650  10.787   4.145  14.702 -0.2300 -0.2148 -0.1537
12127W        W29651  10.545  12.737   0.188 -0.1975  0.0685  0.1671
12128W        W29652   8.109  14.562  14.099 -0.0252 -0.0886  0.3477
12129W        W29653   7.530   3.576  13.824 -0.0810  0.2169  0.2152
12130W        W29654   6.119   8.443  13.116  0.2224  0.1469  0.1638
12131W        W29655  15.875   5.413  14.204  0.0161  0.3800 -0.1457
12132W        W29656  16.976   2.712   2.238 -0.0178 -0.1375  0.0387
12133W        W29657  14.424   9.502  13.492 -0.0704  0.1232 -0.1081
12134W        W29658  16.658  15.147  11.002 -0.1966 -0.1381 -0.1263
12135W        W29659   7.532  10.464   3.936  0.2755  0.1337  0.0732
12136W        W29660   1.973  12.969  12.171  0.1467 -0.0413 -0.1002
12137W        W29661  12.159   4.598  11.466 -0.3679 -0.0319 -0.3388
12138W        W29662   7.845   6.907  14.713  0.2022 -0.1277  0.2479
12139W        W29663  13.550  14.730   5.025  0.1570  0.1460  0.0025
12140W        W29664  17.852  18.375   3.104  0.0251 -0.4978 -0.0320
12141W        W29665  18.295   7.888  12.004  0.1363 -0.3197 -0.0985
12142W        W29666   0.917   1.994   3.553 -0.1351 -0.1488 -0.3376
12143W        W29667   5.121  15.880  15.537 -0.0247  0.2409  0.0350
12144W        W29668   2.363   1.109  15.778 -0.3117 -0.1554 -0.0448
12145W        W29669  17.825  17.091   2.454 -0.4343 -0.1112 -0.2255
12146W        W29670  13.425   0.995  13.580  0.0664 -0.1720  0.0275
12147W        W29671   2.803   4.948  13.722 -0.2600 -0.0430  0.0935
12148W        W29672   3.168   4.956  15.591  0.0622 -0.0198 -0.0464
12149W        W29673   3.981   1.450   0.207 -0.1130  0.1420  0.1629
12150W        W29674   6.018  16.617   1.319  0.2044 -0.1725 -0.0514
12151W        W29675   9.104   9.150  15.381 -0.4643 -0.2451 -0.0064
12152W        W29676   4.691  13.185   4.359  0.0241 -0.0277  0.0938
12153W        W29677  11.198  11.553   4.513  0.0052 -0.0264 -0.3848
12154W        W29678   2.415   1.459  10.934 -0.1035 -0.4201 -0.0276
12155W        W29679   0.638   2.768  12.879 -0.1118  0.0804  0.1593
12156W        W29680   4.646   9.625  11.613 -0.2862  0.0713 -0.0627
12157W        W29681   0.860  14.116   1.664  0.1036 -0.0540  0.0633
12158W        W29682   3.998  15.386  15.701 -0.1887  0.2134  0.0763
12159W        W29683  17.587  15.594  13.411 -0.0542 -0.1063  0.3622
12160W        W29684  16.816   6.847   0.078 -0.2332  0.1156 -0.0089
12161W        W29685   1.385   7.249   4.407  0.0806 -0.0100 -0.0878
12162W        W29686  11.860   7.759   4.719  0.0697  0.1775 -0.1438
12163W        W29687  11.381  10.203  12.728  0.0354 -0.3503 -0.1626
12164W        W29688   3.869  14.204  11.997  0.2909  0.3126  0.1012
12165W        W29689  16.987   5.588   1.489  0.2672 -0.0129  0.0456
12166W        W29690   8.716   5.182  12.837 -0.2596 -0.1024 -0.0400
12167W        W29691  15.627   6.973  15.244  0.1098 -0.0702  0.0157
12168W        W29692   1.115   2.551   2.782 -0.3914  0.0235  0.3028
12169W        W29693   0.874  13.713  15.461 -0.2285 -0.0682 -0.0273
12170W        W29694  12.652  15.664  15.238  0.3084 -0.1289  0.1156
12171W        W29695   7.156   4.860   3.045 -0.2326 -0.1695  0.0570
12172W        W29696   2.201   2.449  12.865  0.0398 -0.2587  0.1137
12173W        W29697   0.262  15.585   9.915  0.1973  0.2505 -0.0174
12174W        W29698  13.542   0.368   1.113 -0.0218  0.3056  0.1195
12175W        W29699   1.651   8.731   0.784  0.0524 -0.1306  0.0072
12176W        W29700  11.252   2.972   1.279 -0.2509  0.6486  0.3747
12177W        W29701  16.583  17.032   4.622  0.1527  0.0069  0.4521
12178W        W29702  10.052  17.825   0.185  0.2122 -0.2036  0.2502
12179W        W29703   6.251   2.410   3.628 -0.1221  0.0139 -0.3612
12180W        W29704   6.496   8.116  13.865 -0.1131 -0.1068  0.0728
12181W        W29705   1.204   9.440   4.130 -0.0552  0.1416  0.2168
12182W        W29706  12.739   2.674  10.661 -0.0790  0.0637  0.1197
12183W        W29707  15.693  16.232  12.425  0.0566  0.3868  0.0059
12184W        W29708   3.646   7.471  12.110  0.1913  0.0511  0.3494
12185W        W29709   2.682  13.229  13.498  0.2079 -0.3720 -0.1220
12186W        W29710   3.084   3.471   2.373  0.0483  0.2278  0.0332
12187W        W29711  15.207   2.094   1.936  0.0359  0.3185 -0.0651
12188W        W29712  11.551  11.165   1.011  0.1187 -0.0347 -0.1381
12189W        W29713  14.965  17.137   0.489  0.1679  0.0850 -0.0766
12190W        W29714  10.002   3.915  12.042  0.2607  0.0997  0.1566
12191W        W29715   7.987  11.040  14.958  0.4418 -0.3903 -0.1402
12192W        W29716   5.717  12.392   4.353 -0.0083 -0.1833 -0.0304
12193W        W29717   4.336   3.903   0.784  0.2329  0.1822 -0.0483
12194W        W29718   5.548   5.992   2.672 -0.3294  0.3955 -0.0729
12195W        W29719   2.526   6.330   4.067  0.0430 -0.5458  0.0671
12196W        W29720   7.519  10.273  14.588 -0.1653  0.2433 -0.0012
12197W        W29721   1.820   0.473   2.891 -0.2436 -0.2306  0.1627
12198W        W29722   5.021   2.718  14.372  0.0470  0.2064  0.0848
12199W        W29723   5.509  13.909  12.533  0.0395  0.2425 -0.0231
12200W        W29724  11.140   0.670  12.693 -0.0302 -0.4132 -0.2226
12201W        W29725   3.091  17.517  11.160  0.0176 -0.1185  0.1474
12202W        W29726   3.307  11.611   1.037 -0.1000  0.0711  0.1429
12203W        W29727  14.917   9.455   3.251 -0.0088  0.0362 -0.0419
12204W        W29728  11.394   7.492  12.394  0.1188 -0.1815 -0.2567
12205W        W29729   4.555  13.004   1.036  0.1321  0.2225 -0.1432
12206W        W29730  11.516   2.470   1.311 -0.0424 -0.1436  0.1265
12207W        W29731  10.826  18.332   2.768 -0.3242  0.2198 -0.1428
12208W        W29732   0.846  18.314   4.358 -0.2855  0.1545 -0.1132
12209W        W29733   1.962  11.033   2.421 -0.1875  0.1717  0.2199
12210W        W29734   1.474   1.862  15.497  0.1210  0.2246 -0.0170
12211W        W29735  13.181   6.761   4.078  0.1264  0.1217  0.1245
12212W        W29736   9.504  15.479   3.210  0.2078 -0.0982  0.3700
12213W        W29737   8.886  13.979   2.022  0.0228  0.0436 -0.1714
12214W        W29738   1.327  13.943   1.722 -0.3723  0.0973 -0.1511
12215W        W29739   4.450  14.191   3.431  0.1647 -0.0006 -0.1667
12216W        W29740   8.943   2.246   3.870  0.0353 -0.2915  0.2030
12217W        W29741   8.117  11.827  14.965 -0.0890 -0.1667  0.3419
12218W        W29742   2.652  17.510  13.039  0.0911 -0.0120 -0.0023
12219W        W29743   2.774  14.633   2.306  0.0194  0.0268 -0.0321
12220W        W29744  17.335   5.492  14.420  0.0314 -0.1859  0.1964
12221W        W29745   3.350  15.704   3.445 -0.3635  0.0953 -0.4758
12222W        W29746   8.665   2.376   1.270  0.1276 -0.3477 -0.0753
12223W        W29747   9.638  10.135   2.363 -0.1445  0.2692 -0.0984
12224W        W29748   4.837   0.442  15.361 -0.0553 -0.1332  0.1693
12225W        W29749  15.571  13.982  12.841  0.1067  0.0992  0.2359
12226W        W29750  10.635   7.699   3.084  0.0964  0.1595  0.1990
12227W        W29751   7.026   4.053  15.113 -0.1802 -0.3528 -0.2763
12228W        W29752   8.335  18.194   1.195  0.2129 -0.1345  0.0645
12229W        W29753   9.502   6.252   2.323  0.3680  0.0548 -0.0729
12230W        W29754   4.247   3.239  13.268 -0.0258  0.0769  0.1969
12231W        W29755   0.315   6.444  15.407  0.0521  0.1653 -0.1948
12232W        W29756  10.087   4.353  12.280 -0.1386  0.1764 -0.3617
12233W        W29757  15.533   7.477  11.050  0.3213  0.2553 -0.1234
12234W        W29758   2.776   9.706  14.879 -0.1099  0.1024 -0.2269
12235W        W29759   3.054   3.321  14.423 -0.0758 -0.0746  0.2202
12236W        W29760   9.714  11.721   1.417  0.0087  0.1613  0.2463
12237W        W29761   5.316   1.509  11.705  0.0028 -0.1250  0.0473
12238W        W29762   1.520   6.017   5.413  0.0540  0.2617 -0.1171
12239W        W29763   4.977   6.001  11.916  0.0520  0.0204 -0.1620
12240W        W29764  13.965  12.233  12.057 -0.2653 -0.0205  0.1398
12241W        W29765  11.529  17.413   5.598  0.1524 -0.2800  0.0794
12242W        W29766   4.584   7.792   3.230 -0.0209 -0.0437  0.2754
12243W        W29767   5.330   4.646   2.299 -0.1330 -0.2617 -0.0549
12244W        W29768  14.033  15.910  10.970 -0.2216 -0.3745  0.1129
12245W        W29769   2.486  16.183   3.692 -0.1827 -0.0027 -0.0598
12246W        W29770  13.815   6.282  14.308  0.1468 -0.4341 -0.0391
12247W        W29771  12.530   0.072  15.785 -0.1370  0.0556  0.0093
12248W        W29772   2.351   5.333   2.164 -0.2006  0.0641  0.0372
12249W        W29773   3.081  10.289   4.653 -0.1224 -0.0197 -0.1394
12250W        W29774   8.367   3.143   3.807  0.0843 -0.1620  0.1115
12251W        W29775  15.688  13.158  14.763 -0.1483  0.2054 -0.0572
12252W        W29776   3.438  16.290  14.571  0.3034  0.2257  0.0910
12253W        W29777   6.394  10.642  13.081 -0.4008  0.1639  0.1202
12254W        W29778   8.114   0.889  15.720  0.0816 -0.1916 -0.2118
12255W        W29779  11.189  15.097  14.459  0.0948  0.2554  0.2897
12256W        W29780  12.324  13.491  13.518  0.1988  0.0812  0.3817
12257W        W29781  10.872   8.251  12.209  0.2327  0.1618  0.2239
12258W        W29782   3.911  15.448  15.134  0.0604  0.0899  0.0214
12259W        W29783   6.241  17.860  12.155  0.0678  0.1279 -0.2079
12260W        W29784   7.303  18.063  11.468 -0.1630 -0.0822  0.0445
12261W        W29785   5.682   9.584  11.683  0.0819  0.1718  0.1661
12262W        W29786  12.473  11.396   3.906  0.2062  0.3385  0.1316
12263W        W29787   9.419   1.732   4.038 -0.2793 -0.0439 -0.0099
12264W        W29788  10.400   0.385  12.008 -0.2517  0.0623  0.0632
12265W        W29789  14.905  16.744   1.907 -0.2122 -0.2170  0.0453
12266W        W29790  12.081  11.933   4.969 -0.1110  0.3240  0.2512
12267W        W29791   8.036  13.679   2.379  0.2032  0.0061  0.0648
12268W        W29792   0.016  13.834  13.474  0.0234  0.1141  0.1055
12269W        W29793  14.361   4.135  15.705 -0.0714  0.2761 -0.3302
12270W        W29794   6.398   7.224   0.070 -0.0236  0.0095  0.1275
12271W        W29795  13.063   5.323   1.059 -0.0222 -0.1171  0.0804
12272W        W29796  12.195   8.843   1.533  0.2307 -0.0592 -0.2366
12273W        W29797   8.004   4.325   1.322  0.2033  0.2844  0.0390
12274W        W29798  18.131  13.137  12.712  0.1439  0.1801 -0.1679
12275W        W29799  15.870   4.524  14.734  0.2184  0.1657 -0.1216
12276W        W29800   9.396   7.222  12.776  0.0061  0.0252 -0.2376
12277W        W29801   6.775   2.592   0.471 -0.0921 -0.3194 -0.4853
12278W        W29802   7.770  11.394  12.326  0.1937 -0.2094 -0.2302
12279W        W29803   2.418  10.615  13.145  0.1283  0.2991  0.3065
12280W        W29804   7.374   3.875  13.424  0.0412 -0.1335 -0.0271
12281W        W29805  15.869   2.335   1.538  0.0988  0.2013  0.0793
12282W        W29806  15.536   7.115   5.187 -0.1217 -0.0712  0.3041
12283W        W29807   0.534   9.026  11.720 -0.2846 -0.4195 -0.2353
12284W        W29808   4.108  13.439   4.666 -0.1768 -0.1908 -0.1553
12285W        W29809   8.407   9.715  12.227  0.0299 -0.0281 -0.3192
12286W        W29810  16.909   8.398  15.562 -0.0461  0.1441 -0.3506
12287W        W29811   7.601   1.944   5.791  0.1712  0.4705 -0.1607
12288W        W29812  17.483   5.037   2.562  0.2162 -0.0829  0.1081
12289W        W29813   3.197  15.294   4.388  0.1532  0.0719 -0.1842
12290W        W29814  15.347   4.428   5.043  0.2310  0.1926  0.0549
12291W        W29815  16.502  15.031  14.618  0.0427  0.1048 -0.3627
12292W        W29816   0.456  12.751   1.771  0.0912  0.1071  0.3202
12293W        W29817   4.406  14.657   0.708  0.0810  0.3275  0.1657
12294W        W29818  15.621   5.931   1.619  0.1670 -0.0344 -0.1685
12295W        W29819  14.567  14.581   3.540 -0.0119 -0.4697  0.1765
12296W        W29820  13.730   3.880  14.366  0.0696 -0.1353  0.0694
12297W        W29821  15.655  16.094   1.381 -0.2726 -0.3707 -0.0889
12298W        W29822  12.667   5.163   0.371 -0.1069  0.0198 -0.0540
12299W        W29823  14.706   7.793   0.419  0.2671 -0.1568  0.0296
12300W        W29824   5.770   3.533  14.443  0.0723  0.0531  0.1565
12301W        W29825   4.201  11.614  12.640  0.1384 -0.0521 -0.1149
12302W        W29826  16.247   4.904  12.945 -0.0790  0.5380 -0.0621
12303W        W29827   3.479  16.798  12.744 -0.1837  0.0826  0.2668
12304W        W29828   7.506  16.827   3.042  0.1541  0.0019  0.1634
12305W        W29829   4.867  10.364   0.838 -0.0002  0.3002  0.1308
12306W        W29830  12.544  17.712   2.731 -0.2552 -0.0171  0.1836
12307W        W29831  14.083   7.347   3.619  0.3386 -0.3983  0.3669
12308W        W29832  16.846   9.280   0.511 -0.1361  0.1455 -0.1591
12309W        W29833  14.179   7.115   3.211  0.0811  0.0260  0.1755
12310W        W29834   3.090   2.210   5.447  0.0792  0.3455 -0.3227
12311W        W29835  17.375  16.826  12.335  0.0882  0.1942 -0.2378
12312W        W29836  16.159   7.054   4.803 -0.2124 -0.1215  0.0956
12313W        W29837   5.340  11.323   1.320  0.0092  0.3576 -0.1057
12314W        W29838  13.654   8.737  12.568 -0.1206  0.0184  0.2705
12315W        W29839  10.795  14.723   1.412  0.0047 -0.1011  0.0544
12316W        W29840  17.802  15.558  12.234  0.2196  0.3618  0.0331
12317W        W29841  12.259   8.404   2.756 -0.1872 -0.1296  0.3691
12318W        W29842   7.680  12.025   2.394 -0.0916 -0.3699  0.1332
12319W        W29843   4.585   7.153  12.926 -0.2588  0.0939 -0.2251
12320W        W29844   6.580   4.341   0.086 -0.1949 -0.0380 -0.3688
12321W        W29845  14.583   2.580   3.469 -0.2245  0.0234  0.1965
12322W        W29846  11.704   8.199   1.124  0.0887  0.1727  0.0096
12323W        W29847   3.931   7.889  11.888  0.1301 -0.0592 -0.1252
12324W        W29848   5.433   1.058   1.304  0.1486 -0.0758 -0.0041
12325W        W29849   1.183  13.057   2.816  0.0827  0.0109 -0.0362
12326W        W29850   5.498   9.095  12.827 -0.1266  0.0213  0.1132
12327W        W29851   3.566   9.230   3.236 -0.4456 -0.1695  0.2056
12328W        W29852   9.287   6.040  13.925 -0.1527 -0.0458  0.0527
12329W        W29853   3.218  14.177   0.430  0.1284  0.1616 -0.1400
12330W        W29854   6.213  15.619  13.077 -0.2250  0.2883  0.2482
12331W        W29855  13.724  10.404   2.171  0.3842 -0.1663 -0.0235
12332W        W29856  10.427  14.692  10.796  0.0082  0.0950 -0.2468
12333W        W29857  13.781   3.589   3.292 -0.0368 -0.0365 -0.0979
12334W        W29858   2.111   7.072  12.481 -0.0638  0.2091 -0.1065
12335W        W29859  14.516  11.795   1.734  0.3370 -0.1700  0.1057
12336W        W29860   2.673  12.646   3.984  0.1498 -0.0677 -0.0132
12337W        W29861   3.598  15.496  10.390  0.3586  0.0785  0.0839
12338W        W29862  15.272   0.534   4.504  0.1707 -0.0018 -0.0880
12339W        W29863   7.252   7.180   0.184 -0.0585  0.1988  0.2796
12340W        W29864   6.054   8.636  10.568 -0.0941 -0.0468  0.0324
12341W        W29865   9.992   5.212   9.968  0.1484  0.0217  0.0612
12342W        W29866   7.439   0.107  11.326 -0.1432  0.0356  0.1959
12343W        W29867   2.463  12.794  13.062 -0.1404  0.2205 -0.0411
12344W        W29868   2.589   1.854   4.807 -0.1651 -0.0520  0.1520
12345W        W29869   2.746   6.771   4.304  0.1051 -0.1098  0.1864
12346W        W29870   8.786   2.745   3.851  0.3751 -0.1420 -0.1247
12347W        W29871  18.090   2.563  13.867 -0.2464  0.0732 -0.1491
12348W        W29872   3.967   4.393  12.526 -0.3022 -0.0848  0.0716
12349W        W29873   9.192   1.500   4.422 -0.1883  0.5279  0.0704
12350W        W29874  11.118  17.454   5.367  0.2806  0.2134 -0.0253
12351W        W29875   1.624   0.088  11.078 -0.1592  0.0490 -0.1033
12352W        W29876   4.173  18.343   2.855  0.0296 -0.0910  0.1008
12353W        W29877   6.239  13.797   1.750  0.0696  0.1966  0.0460
12354W        W29878  14.946  15.118  13.337  0.3397 -0.0182 -0.2579
12355W        W29879   2.806  14.042  15.830 -0.0662 -0.1861 -0.0200
12356W        W29880   2.455   9.177  15.781 -0.1233  0.0939 -0.0971
12357W        W29881   5.871  16.106  12.607  0.3528 -0.0780  0.0873
12358W        W29882   3.195  11.606  13.542 -0.1582  0.1183 -0.3173
12359W        W29883  12.496   2.539  14.461  0.1763  0.0523  0.1243
12360W        W29884   8.361   2.724  15.208 -0.0424 -0.1381 -0.1481
12361W        W29885   0.208  13.329  12.481 -0.1746 -0.1732 -0.1295
12362W        W29886   7.571   0.701   0.299  0.0560  0.1637  0.4383
12363W        W29887  15.531   7.709  14.690  0.0634  0.1452  0.3520
12364W        W29888   0.225  14.151  11.906  0.2161  0.0803 -0.0695
12365W        W29889   1.221   0.554   1.598 -0.2106 -0.1099  0.0360
12366W        W29890  16.010   8.999   0.148  0.1241  0.0858  0.0133
12367W        W29891  10.282   1.558  14.615 -0.1752  0.0613  0.0042
12368W        W29892  12.687  17.556  14.505  0.2706 -0.0046 -0.0556
12369W        W29893   5.370   8.529   3.379  0.1489  0.1270 -0.2102
12370W        W29894   5.883  12.060   2.510  0.0734 -0.1181 -0.1337
12371W        W29895  14.414  14.283  15.335 -0.0753 -0.1328 -0.1227
12372W        W29896   5.536  17.945  15.404  0.0083 -0.0344 -0.1167
12373W        W29897  11.110  18.298   0.558  0.0819 -0.3316 -0.0801
12374W        W29898  14.342   3.095  14.048 -0.0881 -0.2162  0.3238
12375W        W29899  11.100   0.613   3.455  0.2105  0.0802 -0.3320
12376W        W29900  17.750   0.195  14.280  0.0488 -0.1797  0.2907
12377W        W29901  11.131  16.686   4.419  0.0891 -0.0438  0.0975
12378W        W29902   7.594   7.056  12.219  0.1813  0.0732  0.1961
12379W        W29903  11.095  16.346  15.215 -0.4172 -0.1940  0.1776
12380W        W29904   6.527  15.080  11.388 -0.0871 -0.1302  0.3541
12381W        W29905  14.319  15.609   4.642 -0.0472 -0.2365 -0.0121
12382W        W29906   7.421  13.216  11.224  0.2330 -0.0581  0.1072
12383W        W29907  11.047   7.028  13.954 -0.2145  0.3593  0.0228
12384W        W29908  18.029  11.059   2.228  0.0309 -0.1341 -0.0964
12385W        W29909   2.389  16.042   3.169 -0.0241  0.0281  0.0458
12386W        W29910  17.844   4.379   1.839 -0.0083  0.0032  0.5131
12387W        W29911   7.772  11.074   4.614 -0.0327 -0.0033  0.0114
12388W        W29912   6.985   5.255  14.879  0.0940 -0.4511  0.1284
12389W        W29913   7.677  15.791  13.809  0.0819 -0.1698 -0.0534
12390W        W29914   5.262   4.733  11.992 -0.0777  0.0387  0.4412
12391W        W29915  11.528   9.529  15.712 -0.1778  0.0579 -0.0421
12392W        W29916  10.130   9.498   3.696 -0.1499 -0.0446 -0.1980
12393W        W29917   7.809  14.253   3.076  0.2888 -0.0363 -0.1079
12394W        W29918  11.588  18.277  14.935  0.0582 -0.0235 -0.2268
12395W        W29919   1.810  17.501   4.777  0.1625 -0.1732  0.1855
12396W        W29920   2.860  17.980   4.527 -0.2020  0.2000  0.0086
12397W        W29921  12.495  11.754  12.518  0.0620 -0.0792  0.0452
12398W        W29922  18.074   1.166  14.277  0.0821  0.2148 -0.0176
12399W        W29923  16.597   1.545   0.044 -0.4484  0.2680 -0.4556
12400W        W29924   1.503   3.242   2.597 -0.0432 -0.1703  0.1737
12401W        W29925   4.825  11.490  11.275 -0.2227  0.1661  0.2469
12402W        W29926   7.137   1.712   3.818 -0.1885  0.2220  0.1846
12403W        W29927   1.746   7.705   4.181 -0.1673  0.3088 -0.0184
12404W        W29928   7.875  13.213  14.649 -0.2843  0.0571  0.0585
12405W        W29929  11.388   7.759   3.353 -0.0350 -0.1109 -0.3161
12406W        W29930  16.644   1.084  12.740 -0.1345 -0.1371  0.0301
12407W        W29931   8.116  17.888  11.065 -0.2089 -0.0230  0.0297
12408W        W29932   0.648   8.468  13.203  0.1960  0.1425  0.1254
12409W        W29933  18.178  16.475  11.128 -0.0428  0.1543  0.1113
12410W        W29934   3.805  11.860   4.192 -0.1280  0.0085  0.0327
12411W        W29935  13.127   8.682   1.834 -0.2173  0.0930  0.2819
12412W        W29936  13.738  10.217   1.164  0.1783  0.2415 -0.2177
12413W        W29937   3.831   5.340   0.285  0.3825 -0.2899 -0.0524
12414W        W29938   9.253  10.847   3.570  0.3068  0.0020 -0.0141
12415W        W29939   4.843   0.608   2.709  0.0093 -0.1873  0.0134
12416W        W29940   6.407   9.926   3.473 -0.0496 -0.0086 -0.0154
12417W        W29941   5.746   5.097  14.934 -0.3862  0.1264 -0.0374
12418W        W29942   2.644   6.403  12.367  0.3412 -0.1739 -0.2118
12419W        W29943  12.812  10.761   1.929 -0.0047  0.1162 -0.0242
12420W        W29944  13.648   7.925  11.748  0.1201  0.2902 -0.1129
12421W        W29945  10.497  16.873   5.712 -0.2090 -0.1066  0.0270
12422W        W29946  10.467  17.783  14.323  0.2962  0.4181  0.1505
12423W        W29947   2.358   5.091   4.450  0.1075  0.0330 -0.1197
12424W        W29948   0.785   5.636  11.288 -0.0357 -0.1407  0.0427
12425W        W29949   3.894  16.905   4.197 -0.1778 -0.1009 -0.2250
12426W        W29950   7.516   2.887  14.755  0.1085 -0.2919  0.2235
12427W        W29951   1.000  17.544   1.149 -0.1090  0.0687 -0.0442
12428W        W29952  13.110  11.801   5.060 -0.1342 -0.1017  0.0753
12429W        W29953  10.583   1.096   4.542  0.1199  0.1230 -0.2600
12430W        W29954   8.409   1.744  11.757 -0.0159  0.0635  0.2398
12431W        W29955   2.512   5.698  13.296 -0.4125  0.1051  0.0470
12432W        W29956   5.435  14.110  10.921 -0.2615  0.2480 -0.3313
12433W        W29957   3.294   4.678   0.077  0.4031  0.1944 -0.0305
12434W        W29958   6.799   4.234  10.940 -0.0500  0.0471 -0.0279
12435W        W29959   3.913  14.695  14.460  0.1808 -0.1696 -0.2397
12436W        W29960   0.253   0.937   3.500 -0.1145 -0.0800 -0.0886
12437W        W29961  13.415   6.485  11.270  0.0224  0.1745  0.1505
12438W        W29962  12.660   9.551   1.403  0.2356 -0.0231  0.0530
12439W        W29963   0.303   1.880  14.393  0.2885  0.1575 -0.4084
12440W        W29964   4.549   6.223   3.191 -0.4172  0.0712  0.0126
12441W        W29965   5.221   5.280   4.842 -0.2016 -0.1463  0.1454
12442W        W29966   1.513   7.839  10.507 -0.1027 -0.0306 -0.1604
12443W        W29967  15.221  11.716   5.353 -0.1631  0.2303 -0.1442
12444W        W29968  16.925   7.709  13.277 -0.2224 -0.0319 -0.2069
12445W        W29969  13.750  12.210  11.552 -0.0509 -0.2300 -0.3402
12446W        W29970   1.937  12.754   4.383 -0.0378 -0.0768 -0.1365
12447W        W29971   3.722   2.467  15.235 -0.0488  0.1233  0.2364
12448W        W29972  11.641  12.263  15.327  0.1276  0.0202  0.0617
12449W        W29973  15.999  13.343  12.553  0.1451 -0.1125 -0.3135
12450W        W29974   4.486   8.207   0.194 -0.3573 -0.2877 -0.0654
12451W        W29975   5.193  16.175   1.684  0.1027 -0.0435 -0.1663
12452W        W29976  11.634   3.768  15.791  0.2989  0.1814 -0.0820
12453W        W29977  15.579   6.269  14.497 -0.0662 -0.1862  0.0992
12454W        W29978  15.580   3.295  14.773 -0.0239  0.1040 -0.0593
12455W        W29979   9.211   7.180   2.772 -0.0089  0.1549 -0.1835
12456W        W29980   1.691   8.132  11.374  0.0789  0.0086 -0.0114
12457W        W29981   0.155  11.491  12.000 -0.0901  0.0401  0.0631
12458W        W29982  12.267  12.312  14.509 -0.0064 -0.1227 -0.0862
12459W        W29983  17.914  17.904   4.067  0.1329 -0.4613 -0.1084
12460W        W29984   4.945  14.935   3.630  0.2279  0.0189 -0.2445
12461W        W29985  12.391  14.681   3.234 -0.2307  0.0300 -0.1780
12462W        W29986  10.901   0.469  12.078  0.3228  0.1326  0.0642
12463W        W29987   2.077  15.647  13.284  0.0953  0.0272 -0.2392
12464W        W29988   9.453   0.688   1.040  0.0447  0.1610 -0.1206
12465W        W29989   2.318   6.599  12.785  0.2149 -0.0010 -0.0029
12466W        W29990   1.160  12.189   1.073  0.0004 -0.1451 -0.0152
12467W        W29991   9.686  12.095  12.159  0.1422  0.0035  0.1700
12468W        W29992   9.382   5.986   4.902  0.1837 -0.0043  0.0272
12469W        W29993  12.862   2.217   4.703 -0.2436 -0.0067  0.0943
12470W        W29994  12.811  15.543  10.795  0.0825  0.2062 -0.1706
12471W        W29995   1.825  15.262   0.800 -0.0822 -0.1315 -0.2311
12472W        W29996  16.775  10.235   4.336 -0.2437 -0.1801  0.0979
12473W        W29997   0.534  15.666  15.524  0.1010  0.2984  0.1287
12474W        W29998   3.516   5.617  15.812  0.0165 -0.4376 -0.0122
12475W        W29999   5.791  10.233  11.670  0.0398  0.1843  0.0162
12476W        W30000   8.725  14.648  12.756  0.1123  0.3616  0.0705
12477W        W30001  16.971   7.389  15.065  0.0395 -0.3209 -0.0677
12478W        W30002  11.965   0.907  13.951  0.1440 -0.0831  0.1959
12479W        W30003  14.302  15.365  12.696 -0.1313 -0.1153 -0.0394
12480W        W30004  16.801  11.440  11.332 -0.2082 -0.1695 -0.1577
12481W        W30005  18.167   6.129   4.335 -0.1548  0.3289  0.1359
12482W        W30006   6.202   0.230  10.867 -0.1031 -0.0754 -0.1439
12483W        W30007   1.525   8.342   3.333  0.1200 -0.0434  0.0450
12484W        W30008  15.978   4.071   2.868  0.1075 -0.1021 -0.1700
12485W        W30009   1.932   6.310   0.738  0.1755 -0.1498 -0.0428
12486W        W30010   3.957  15.967  13.793 -0.0659 -0.3266  0.0020
12487W        W30011  17.507  13.507  15.743  0.1616 -0.3020  0.1590
12488W        W30012   9.895  11.268  13.229  0.2354  0.2502 -0.2939
12489W        W30013  14.599   2.094   4.294  0.0297 -0.1259  0.3787
12490W        W30014  12.481  16.410   5.765  0.1413  0.2481 -0.1089
12491W        W30015   6.620   3.237   4.647 -0.0738 -0.1062 -0.2171
12492W        W30016   2.076   7.606   2.081  0.2124 -0.2131  0.2017
12493W        W30017  16.488   5.473  10.958 -0.1098  0.0867  0.2612
12494W        W30018   5.376  10.339  14.647  0.0276  0.0363 -0.1771
12495W        W30019  11.713  15.885  13.141  0.0451 -0.1296  0.0282
12496W        W30020   3.359   0.067   2.120 -0.2301 -0.4779  0.1092
12497W        W30021  14.766  13.702  13.162  0.3219 -0.3013 -0.1313
12498W        W30022  10.545  10.317  13.157 -0.1735  0.0576  0.2820
12499W        W30023   4.224   2.341  15.059  0.2542 -0.1397  0.3159
12500W        W30024  17.098   8.711  13.546 -0.0877  0.0087 -0.2943
12501W        W30025  13.575   5.646  14.539  0.1807  0.0696 -0.3428
12502W        W30026   1.687  11.029  10.246 -0.0011  0.0572  0.0273
12503W        W30027   8.364   9.836  14.377 -0.0342  0.0926 -0.0406
12504W        W30028   0.060  14.591  11.331 -0.1393 -0.1209  0.0328
12505W        W30029  15.400   0.209  11.718 -0.0273  0.1842  0.1398
12506W        W30030   7.371  14.867  14.305  0.3311  0.0643 -0.2005
12507W        W30031   6.310  14.241  14.261 -0.1909 -0.0853  0.1499
12508W        W30032   3.514   5.262   4.129  0.1137  0.2326  0.1026
12509W        W30033  10.574  11.790  15.406 -0.0016 -0.1060  0.2224
12510W        W30034   2.025   0.147   2.059 -0.2244  0.2380 -0.2538
12511W        W30035   2.772  17.932   0.785 -0.0296  0.0266  0.0580
12512W        W30036   7.598  18.003  12.373  0.0746 -0.0087  0.1204
12513W        W30037  15.688  15.358   4.944  0.0461  0.0559 -0.0375
12514W        W30038   1.648   5.014  14.270 -0.2467 -0.2102  0.2101
12515W        W30039  13.168   1.735  11.917 -0.0472 -0.0538 -0.2252
12516W        W30040   4.944  11.879   4.102 -0.1173 -0.0695 -0.0427
12517W        W30041  14.895   4.778   2.071  0.0764  0.0947  0.0851
12518W        W30042   3.740  12.704  13.019  0.3282 -0.1350  0.0423
12519W        W30043   7.640   6.804  15.833  0.2034 -0.0797  0.1813
12520W        W30044   7.388  17.222   0.492 -0.3122  0.2911 -0.2631
12521W        W30045  15.319  10.275   3.980  0.3678  0.1934 -0.1851
12522W        W30046   0.991   0.934   3.837  0.0077 -0.4618 -0.0511
12523W        W30047   5.773   0.514   9.927 -0.1597 -0.0451  0.2604
12524W        W30048   3.047   5.775  14.790  0.0286 -0.2219  0.3097
12525W        W30049   8.798  10.125  11.589  0.0513 -0.1817  0.2914
12526W        W30050  13.599  10.686   0.999 -0.0531 -0.1641  0.3162
12527W        W30051  14.172  17.440  14.721  0.1952  0.3122 -0.2027
12528W        W30052  12.811  12.936   6.053  0.0848 -0.2304  0.1040
12529W        W30053   0.131  13.287  15.148  0.3128 -0.2595  0.0120
12530W        W30054   0.828   3.570   2.642 -0.2944  0.1441 -0.0389
12531W        W30055  14.849  14.224  13.038  0.1756  0.2666 -0.1061
12532W        W30056   3.490   7.546  14.625 -0.1635 -0.0870  0.2087
12533W        W30057   8.192  17.805  15.172 -0.0404 -0.0895  0.1495
12534W        W30058   9.909   3.471  14.657  0.1799 -0.2893  0.5543
12535W        W30059   5.002  14.497   3.475  0.0029  0.3582 -0.1409
12536W        W30060   7.120  11.508   3.373  0.2348  0.1837 -0.1988
12537W        W30061  17.567   4.116  11.922 -0.1185  0.0503 -0.0628
12538W        W30062  17.884  11.934   4.631 -0.0510  0.1035  0.0916
12539W        W30063  10.847   7.949   1.398 -0.1785 -0.0131 -0.4113
12540W        W30064   4.894   2.474   3.689  0.0219  0.2365 -0.1069
12541W        W30065  10.597  15.424   2.581 -0.1663  0.1297 -0.1562
12542W        W30066   9.366   2.018  14.641 -0.2299  0.0506 -0.1632
12543W        W30067   7.804   6.086   2.642 -0.2614  0.0512  0.1942
12544W        W30068   4.613  11.883  15.834  0.1492 -0.3455  0.0489
12545W        W30069  15.222  10.698  11.854  0.0599 -0.0123 -0.0441
12546W        W30070   2.592  14.246  15.291  0.0967 -0.4401  0.1354
12547W        W30071  10.371  15.395  15.679 -0.1307  0.2208 -0.4732
12548W        W30072   2.570  14.157  11.306  0.1498  0.0204 -0.0608
12549W        W30073   6.606   9.003  12.680 -0.0600  0.0639 -0.1207
12550W        W30074  12.252  14.467   2.427  0.2844 -0.0942 -0.0194
12551W        W30075  10.090  16.250   1.092 -0.1606 -0.0064  0.0026
12552W        W30076  12.749   8.194  13.387  0.3211 -0.5050  0.2071
12553W        W30077  10.504  10.769   2.919 -0.2028 -0.0537  0.2221
12554W        W30078  17.463  11.452  15.028  0.3293  0.1854  0.0048
12555W        W30079  12.842  10.526   1.492  0.0835  0.4161 -0.0644
12556W        W30080   4.697   5.523  12.141 -0.3035  0.0203  0.3337
12557W        W30081   0.080   2.893  12.367 -0.2681 -0.1198 -0.1321
12558W        W30082   7.575   6.391   1.706 -0.0477 -0.3268  0.3316
12559W        W30083   8.996   7.892   0.899 -0.0433 -0.0011  0.1352
12560W        W30084  11.181   7.197  12.808 -0.1230  0.0977 -0.1311
12561W        W30085   6.805  15.423   2.971  0.2475  0.0077 -0.1450
12562W        W30086  18.232   0.951  12.842 -0.3407  0.0794  0.0720
12563W        W30087  17.457   6.870  11.616  0.0911 -0.0878  0.1335
12564W        W30088   1.652   8.977   5.506 -0.1243  0.1432  0.1698
12565W        W30089   1.258  15.532  11.004 -0.0281  0.1979  0.3835
12566W        W30090  17.642  17.385  11.340 -0.0374 -0.2730 -0.4588
12567W        W30091   4.694   1.985   4.762  0.5323 -0.0167 -0.0304
12568W        W30092  15.556  16.856   3.597 -0.2763 -0.1302  0.0881
12569W        W30093   0.980  17.341   3.529  0.3129  0.3000  0.2307
12570W        W30094   4.642   4.775   2.135 -0.0371 -0.2288 -0.2415
12571W        W30095   7.278  14.557  13.082 -0.1212 -0.0098  0.2165
12572W        W30096   3.196  16.976   3.444 -0.0728 -0.2008  0.1072
12573W        W30097  11.255  17.678  15.228  0.5209  0.2877 -0.0112
12574W        W30098   5.389  15.979  12.451 -0.0314  0.3530  0.1018
12575W        W30099   2.572   3.643   0.178 -0.3512 -0.0027  0.1427
12576W        W30100  10.226   5.768  15.432  0.2188 -0.4945  0.0200
12577W        W30101   3.806   8.157   2.365 -0.1005 -0.3952  0.2433
12578W        W30102  15.242  12.993   2.696  0.2584 -0.0033 -0.4048
12579W        W30103   1.243  18.407   1.721 -0.0138  0.1581 -0.0732
12580W        W30104  15.756  15.763  15.331 -0.1442 -0.2908  0.0471
12581W        W30105   2.683   6.820   3.183 -0.1683 -0.4615 -0.0235
12582W        W30106   0.706  16.401   1.402  0.1599  0.2917 -0.1096
12583W        W30107  17.620  13.912   0.155  0.2058 -0.0658  0.1667
12584W        W30108  16.328  16.096   3.157 -0.0499 -0.0911  0.1302
12585W        W30109   7.559  13.929   3.293 -0.0043 -0.1149 -0.0569
12586W        W30110  12.137   9.141  15.182  0.1810  0.0109  0.0140
12587W        W30111  18.337  16.998  15.426  0.3442 -0.2124 -0.2166
12588W        W30112  16.530   8.382  12.949  0.3133  0.0590 -0.0903
12589W        W30113  18.119   8.650   3.214  0.2886  0.0019 -0.0058
12590W        W30114   2.295  14.893  13.627  0.1573 -0.1133  0.1408
12591W        W30115  17.753   9.483  15.062  0.2024  0.1132  0.0474
12592W        W30116   3.892  12.545  12.386  0.0937 -0.1590  0.3524
12593W        W30117   1.141   3.986  10.635 -0.1355  0.0162 -0.0902
12594W        W30118  16.097   4.468   0.029 -0.0604  0.1100  0.0969
12595W        W30119  11.810  14.730  14.003 -0.0249  0.0664 -0.2702
12596W        W30120  16.931  13.704  11.514  0.3242 -0.1501 -0.0734
12597W        W30121  18.057   5.418   2.946  0.0599  0.0359  0.0674
12598W        W30122  17.077   4.064   2.177 -0.1612 -0.2315 -0.0279
12599W        W30123   7.353   6.425  14.784  0.0994 -0.0341  0.0593
12600W        W30124  17.372   8.261  12.227  0.1949 -0.1137 -0.2137
12601W        W30125   6.440  17.972   0.596  0.0899  0.1500 -0.0553
12602W        W30126  10.273   4.278  15.196 -0.0564  0.0919  0.1220
12603W        W30127  17.124   3.815   2.637 -0.2039 -0.1187  0.1497
12604W        W30128  16.606   0.805   4.266  0.0629  0.0017  0.1419
12605W        W30129  11.466   9.061   4.359  0.2206 -0.2042 -0.1042
12606W        W30130   5.824  15.537  14.792  0.2741 -0.2103 -0.1081
12607W        W30131   8.887   6.903   0.496  0.2445 -0.0541 -0.1555
12608W        W30132   4.113   5.056  13.458 -0.0791  0.0921 -0.0135
12609W        W30133  17.703   5.350   3.371  0.2284 -0.1004 -0.0085
12610W        W30134   5.480  17.584   0.719 -0.1602  0.1169  0.0931
12611W        W30135   8.848   7.595   1.308 -0.0759  0.1406 -0.0048
12612W        W30136  11.932  17.601  13.876  0.0845 -0.1022  0.0989
12613W        W30137   5.123   3.317   0.227 -0.1902 -0.1491  0.0707
12614W        W30138  16.832   4.004   1.736 -0.2064 -0.5175  0.5083
12615W        W30139  14.639   6.685   4.097 -0.1207  0.0737  0.2321
12616W        W30140   0.806  17.946  12.215 -0.0042  0.3078  0.1196
12617W        W30141   1.536  16.797  14.896 -0.2891 -0.3361 -0.0435
12618W        W30142  15.814   8.015   3.002 -0.3345 -0.2404 -0.0145
12619W        W30143   2.961   9.892  13.162 -0.0562  0.0463 -0.0070
12620W        W30144  10.378   6.338   0.865 -0.3299  0.3788 -0.0844
12621W        W30145   5.477   0.648  11.347  0.0533  0.3198 -0.1095
12622W        W30146   7.458   5.565   0.647  0.1755 -0.1485 -0.0457
12623W        W30147   1.926  12.451   3.465  0.0317  0.4126 -0.0321
12624W        W30148  13.535  13.295   1.292 -0.0421 -0.2240 -0.0193
12625W        W30149   5.852   5.391  14.601 -0.3501 -0.1096 -0.1217
12626W        W30150  13.964   2.379  13.146  0.0297 -0.0270 -0.2849
12627W        W30151  10.007   0.600   6.195 -0.0666  0.0720  0.2776
12628W        W30152  10.078   8.655  12.266 -0.0770  0.0732  0.0478
12629W        W30153  16.284   0.723  15.743 -0.3326  0.0910  0.3985
12630W        W30154  10.593  15.010  13.832 -0.6062  0.2917 -0.3835
12631W        W30155   4.190  14.671  10.618  0.0480 -0.2066 -0.0353
12632W        W30156  11.725   7.663   1.097  0.0921 -0.0818 -0.0673
12633W        W30157   0.027  15.949  12.867 -0.0673 -0.1893 -0.1055
12634W        W30158  10.610  12.643   1.552  0.2059  0.2448 -0.0102
12635W        W30159   6.245   7.329   1.551  0.0121  0.3408  0.0328
12636W        W30160  17.544   8.514   2.112  0.0089  0.0726 -0.0984
12637W        W30161   7.881  15.402  11.927  0.1211 -0.2978 -0.1068
12638W        W30162  12.278   5.778   4.600 -0.2458  0.3796 -0.4677
12639W        W30163   9.869   1.391  11.913  0.0124  0.1964 -0.3838
12640W        W30164   3.015   8.681  13.268  0.1300  0.0767 -0.0149
12641W        W30165   5.699  16.853  15.051  0.1478  0.3531 -0.0176
12642W        W30166   0.248   8.107  11.480 -0.3727 -0.0196  0.3208
12643W        W30167  15.292   8.284  15.832  0.4160 -0.0381  0.0607
12644W        W30168   6.054   9.826  12.701 -0.0617 -0.2727  0.1197
12645W        W30169   6.958   9.553  13.470 -0.0444 -0.1481 -0.0184
12646W        W30170   8.212  11.983   4.582  0.0813  0.0833 -0.2506
12647W        W30171  15.831  18.059  13.652 -0.0573 -0.1015  0.0295
12648W        W30172  14.737   8.560   1.039  0.1225  0.1805  0.0916
12649W        W30173   2.438  18.284  11.593 -0.1122 -0.2523  0.5224
12650W        W30174  10.077  15.998  10.907 -0.0489 -0.4107  0.0032
12651W        W30175   3.265  17.426   3.956 -0.5544  0.0464  0.1487
12652W        W30176  16.951   3.935   0.248  0.0672  0.0216 -0.2377
12653W        W30177   4.385   8.110  11.948 -0.3449  0.1218  0.0025
12654W        W30178   6.064  17.074   1.780 -0.2051 -0.1577 -0.0990
12655W        W30179   7.309   1.815   2.289 -0.0351  0.1839 -0.2402
12656W        W30180  14.173   2.948   4.424 -0.3867  0.1513  0.1801
12657W        W30181  18.212  11.505   1.991 -0.0908 -0.1309 -0.0039
12658W        W30182   9.013   6.366   2.311 -0.2692  0.1021  0.0529
12659W        W30183  15.605   9.894   0.113 -0.1275  0.0328 -0.1151
12660W        W30184   6.166   8.790  14.469 -0.4537  0.2318  0.0722
12661W        W30185  17.527  14.175   1.204  0.0609  0.2616  0.0733
12662W        W30186   5.682   1.894  13.587 -0.3918 -0.1335 -0.2257
12663W        W30187   1.362   3.703   1.044 -0.0806 -0.2212  0.3516
12664W        W30188   8.038   8.762   0.633 -0.2530 -0.1174 -0.2744
12665W        W30189   9.800  17.332   0.397 -0.4224  0.1361 -0.1012
12666W        W30190   9.257   8.137  15.697 -0.2261  0.0180 -0.0523
12667W        W30191  13.589  10.763  15.312 -0.2068  0.0567  0.2124
12668W        W30192  16.256  17.994   3.899  0.4038 -0.3549 -0.3033
12669W        W30193  16.658  16.883  11.422 -0.0961  0.0541 -0.3711
12670W        W30194  13.240   0.599  12.757  0.0727 -0.1770  0.0651
12671W        W30195  17.133  13.268  15.215 -0.0765 -0.4117  0.0761
12672W        W30196   1.047   4.783   3.102 -0.5201  0.2264 -0.2465
12673W        W30197   6.939   5.034   0.689 -0.2473  0.0317 -0.0142
12674W        W30198  12.383   1.154   4.560 -0.0271 -0.2947 -0.2252
12675W        W30199  11.360   3.697   2.350 -0.2851 -0.0034  0.3164
12676W        W30200   1.961  10.747  13.878  0.1042  0.2008 -0.1271
12677W        W30201   1.168   8.776  12.933  0.0081 -0.1088  0.0362
12678W        W30202  12.075   9.281  15.700  0.0843  0.0557 -0.3062
12679W        W30203   5.907  15.003  14.816  0.2010 -0.2244 -0.0989
12680W        W30204   9.570   1.581  14.031  0.0547  0.0661 -0.3843
12681W        W30205  10.944   0.033   4.059 -0.0171 -0.0560  0.0033
12682W        W30206  12.150   8.860  11.475  0.1617 -0.2230 -0.1340
12683W        W30207  16.592  11.120   2.162 -0.1497  0.2004 -0.0423
12684W        W30208   0.514  11.439   0.054  0.0113  0.4468  0.0668
12685W        W30209  16.173  15.155  11.750  0.0246  0.4390 -0.0992
12686W        W30210   5.241   4.537  15.581  0.1422 -0.0338 -0.2096
12687W        W30211   3.123   7.860  11.371  0.1201  0.1598  0.2802
12688W        W30212   5.530   6.359   4.130  0.0298  0.0843  0.1291
12689W        W30213  17.452   8.344  11.566  0.3960  0.0146  0.0488
12690W        W30214   4.128  10.306   1.546 -0.0693  0.1227  0.0812
12691W        W30215   2.868   3.038   0.062 -0.2402  0.0350 -0.0302
12692W        W30216  11.856   5.150  12.831  0.0555 -0.0919 -0.2014
12693W        W30217   2.370   3.540   2.664 -0.4304  0.3445 -0.0260
12694W        W30218  11.653   4.210  13.051  0.0842  0.3164  0.0312
12695W        W30219   7.706   3.055   1.818 -0.3961  0.0058 -0.1850
12696W        W30220   0.383   0.434  15.272  0.1002  0.2084  0.0281
12697W        W30221  12.000  12.756   4.426 -0.2243 -0.1147  0.1544
12698W        W30222   1.615  17.902  13.952  0.0802 -0.0194 -0.0423
12699W        W30223   1.984   7.215   1.376  0.2211  0.2122  0.1599
12700W        W30224   6.344  16.766  13.814 -0.0671  0.5992 -0.2048
12701W        W30225   7.404   4.967  15.071 -0.1634 -0.0216 -0.1989
12702W        W30226  10.613   0.697   3.554 -0.1674 -0.0079  0.1620
12703W        W30227  18.381   8.630   4.358  0.0731  0.1502  0.0946
12704W        W30228  17.018  13.252  13.720  0.0197 -0.1408  0.0272
12705W        W30229   4.773  15.685  13.251 -0.0480 -0.0661  0.0097
12706W        W30230   0.722   2.616   1.554  0.4751 -0.1285  0.1680
12707W        W30231  18.345  13.979  15.178  0.1177  0.0656  0.2439
12708W        W30232   3.712   4.732   3.553 -0.4024 -0.1053 -0.3042
12709W        W30233  15.436  12.852  10.189 -0.1134 -0.1573  0.0132
12710W        W30234   9.523   6.328   0.114 -0.1423 -0.0330  0.0997
12711W        W30235   6.588   4.996   3.491 -0.1297  0.0477 -0.0748
12712W        W30236  16.804   3.141   4.382  0.0865 -0.0316  0.0049
12713W        W30237   3.411  16.979   4.079 -0.0838 -0.2052 -0.2029
12714W        W30238   5.309  11.375  11.691  0.1230 -0.2017  0.1711
12715W        W30239  13.804  15.124   5.261 -0.1916 -0.1083 -0.0245
12716W        W30240   4.067   8.088  15.795  0.2079 -0.1359 -0.2823
12717W        W30241  11.127   7.036   4.703 -0.0979 -0.3780 -0.2594
12718W        W30242  14.577   7.121   4.559 -0.0082  0.3449  0.3922
12719W        W30243  14.399  13.062   4.222  0.1707 -0.3395 -0.3552
12720W        W30244   2.078  15.380   5.815 -0.1129 -0.1787  0.1528
12721W        W30245   8.441   1.220   3.905 -0.1397  0.3431  0.2153
12722W        W30246  15.096  17.150   2.796  0.4421 -0.2775 -0.2236
12723W        W30247   9.050   4.046   4.241  0.0613 -0.0218 -0.2541
12724W        W30248   2.601  16.827  13.714  0.0005 -0.3321 -0.1209
12725W        W30249   2.517   8.577   1.313 -0.0178 -0.1176  0.1625
12726W        W30250  14.837  17.678   1.237 -0.0227 -0.1350  0.0231
12727W        W30251   6.482   2.415   4.861  0.1386  0.0484  0.0606
12728W        W30252   0.631   5.797  12.103 -0.0543 -0.0802  0.0188
12729W        W30253   1.398   6.457   2.084 -0.0916  0.1369  0.2022
12730W        W30254   2.705  12.568   0.576  0.1102  0.2050  0.0014
12731W        W30255  11.745   9.038  11.087 -0.0741 -0.1534  0.3256
12732W        W30256   1.519  12.694   3.674 -0.1407  0.1996  0.0308
12733W        W30257   4.146  17.339   3.226  0.2816 -0.1147 -0.1341
12734W        W30258  15.436  15.127   0.161  0.2896  0.0879 -0.2373
12735W        W30259   8.227  14.208   3.396  0.0836 -0.1557 -0.2456
12736W        W30260   0.905   3.759   3.606 -0.0812  0.0208 -0.1175
12737W        W30261  14.560   9.184   0.839 -0.0329  0.2997  0.2203
12738W        W30262   2.439  14.761   0.433 -0.4208  0.1235  0.1638
12739W        W30263  17.464  10.079   3.087  0.0714  0.0128  0.2121
12740W        W30264  10.568   5.014  11.137  0.0863 -0.0609 -0.1310
12741W        W30265   3.898   8.356  14.980 -0.0912 -0.0293  0.1143
12742W        W30266   0.855   2.480   2.370  0.0955 -0.2604  0.1579
12743W        W30267   4.862  11.978   3.246  0.1571  0.3268  0.1870
12744W        W30268  10.827  12.106   3.503  0.0018  0.1538  0.0871
12745W        W30269   5.447   8.998   0.071  0.3446  0.0103 -0.2269
12746W        W30270  14.608   0.676  13.512  0.2891  0.3352 -0.0313
12747W        W30271   9.863   3.102   2.670 -0.0898  0.0459  0.2730
12748W        W30272   1.875   4.366  12.146 -0.1122 -0.4774  0.1717
12749W        W30273   9.760  12.719   1.160 -0.0307  0.0909 -0.1393
12750W        W30274  12.206  15.060  14.124 -0.1708  0.3563  0.0513
12751W        W30275   8.763  12.242  14.885  0.0851  0.1148 -0.1485
12752W        W30276   0.595   1.222  14.073  0.2438 -0.0162  0.4194
12753W        W30277  13.160  16.328   1.695 -0.0576  0.0710 -0.0879
12754W        W30278  12.823  17.032   2.973 -0.2961 -0.0579  0.0336
12755W        W30279  11.670   3.163  11.930 -0.3210 -0.0430  0.0631
12756W        W30280   4.517   4.558   3.519 -0.1260 -0.1138  0.2801
12757W        W30281  15.558  15.687  15.818  0.0861 -0.1540  0.0146
12758W        W30282   9.765  10.007  13.451 -0.2817  0.0169  0.0102
12759W        W30283  17.214   3.531  13.867  0.0761 -0.2532  0.1985
12760W        W30284   8.155   0.749   0.353 -0.1417 -0.0426  0.0341
12761W        W30285  18.216  16.567   1.014 -0.1588 -0.2872 -0.1335
12762W        W30286   2.002  12.852  12.731 -0.1916  0.0391  0.2299
12763W        W30287   0.646   1.144   5.701 -0.1557  0.3547  0.0976
12764W        W30288   4.598  15.795  12.199  0.1402 -0.2153  0.4109
12765W        W30289   7.835   6.780  14.241  0.0113  0.0610  0.2519
12766W        W30290  10.596  11.673   3.803  0.1495 -0.3391  0.0258
12767W        W30291  14.165  13.601  12.476 -0.0559 -0.0494 -0.1416
12768W        W30292   2.520  10.443  11.759 -0.1498  0.0260 -0.0586
12769W        W30293   9.959  15.493   2.914 -0.0144  0.2251 -0.2040
12770W        W30294   9.222   7.163  13.872 -0.1495 -0.3008 -0.2294
12771W        W30295  17.787  16.232   1.114  0.1137  0.2997 -0.1237
12772W        W30296  15.223   0.528   2.737 -0.1699 -0.0294  0.1411
12773W        W30297   0.385   0.078  13.053 -0.0120 -0.0802 -0.1464
12774W        W30298   1.361   3.542  12.554  0.0916  0.1486 -0.0680
12775W        W30299  10.328   3.565  11.941 -0.0462  0.0891 -0.0860
12776W        W30300  14.739   2.387  12.512  0.1292 -0.0752  0.0366
12777W        W30301  10.592   2.092   1.577 -0.1359 -0.1655 -0.0629
12778W        W30302   0.244  10.123   2.180  0.2583 -0.1966  0.1149
12779W        W30303   5.608  16.437  14.767  0.1991  0.1382 -0.1545
12780W        W30304  14.665  13.308  14.651  0.0358  0.3577  0.2719
12781W        W30305  17.366   0.537  14.578 -0.0603 -0.0630  0.0600
12782W        W30306  17.390  15.062  14.209 -0.0399 -0.1356 -0.2256
12783W        W30307  11.492  11.620  15.562  0.2574  0.2175 -0.1380
12784W        W30308  12.494   2.883  15.603  0.0757 -0.0577  0.0597
12785W        W30309  14.877   3.724   2.720 -0.0548  0.2799 -0.0586
12786W        W30310  14.608   8.137  15.354 -0.2450  0.2158 -0.0293
12787W        W30311  13.977   8.297  14.530  0.3742  0.0486  0.0108
12788W        W30312   3.466   4.752   1.656 -0.0347 -0.1396 -0.0579
12789W        W30313   5.973  16.308   0.209 -0.3821  0.3240 -0.1500
12790W        W30314  14.980  17.106   2.317 -0.0854 -0.0570  0.1486
12791W        W30315   7.344  12.367   5.790 -0.2930 -0.3305 -0.2582
12792W        W30316   7.956  18.177  15.316  0.1304 -0.1200  0.0100
12793W        W30317  14.096   6.222   2.414  0.1344 -0.1191 -0.0660
12794W        W30318  14.095   2.567   1.339 -0.0523  0.1581 -0.1714
12795W        W30319  11.446   9.866   2.192  0.1365 -0.0066  0.1603
12796W        W30320   5.852   6.093  13.301 -0.0218  0.0291 -0.0011
12797W        W30321  11.616   2.873  13.675  0.1561  0.1087 -0.0563
12798W        W30322   1.972  15.222   4.344 -0.0507 -0.0448 -0.1028
12799W        W30323  16.923   0.242   4.089  0.2979  0.0454  0.2859
12800W        W30324   6.055   8.052   2.772 -0.2509  0.0376  0.0542
12801W        W30325   5.779   7.727   3.556 -0.1230 -0.0635  0.1280
12802W        W30326  11.658  17.061   0.274 -0.0063  0.0640  0.1027
12803W        W30327   7.237  16.001  15.634 -0.1657 -0.1480  0.0207
12804W        W30328   3.635   0.697  15.854  0.0470 -0.0253  0.1365
12805W        W30329   8.090  11.436   2.860  0.1952 -0.1441 -0.2063
12806W        W30330  12.647   6.092   0.936  0.2325 -0.3184 -0.0109
12807W        W30331  10.108  10.056   0.872  0.2411 -0.2465 -0.1123
12808W        W30332  17.229  17.199   3.289  0.0615  0.5086  0.0399
12809W        W30333   1.076  11.480   2.996  0.1056 -0.0669  0.1222
12810W        W30334   9.439  14.387  14.301 -0.0683 -0.0147  0.2019
12811W        W30335   8.344   5.011   3.893 -0.1393  0.1575  0.4040
12812W        W30336   2.619   3.911   1.439  0.2765 -0.2930  0.2056
12813W        W30337   2.533  13.981   3.068 -0.2475 -0.2651  0.1991
12814W        W30338   7.896  14.291   1.444 -0.2015 -0.2498 -0.1252
12815W        W30339  17.618   2.467  14.066  0.0698 -0.1403  0.1682
12816W        W30340   2.643   5.563   9.946  0.2389  0.1762 -0.1074
12817W        W30341   7.058   8.603  15.582 -0.0468 -0.0799 -0.1354
12818W        W30342   4.220   3.768   2.024  0.2919 -0.1726 -0.3330
12819W        W30343   3.474   7.567  15.612 -0.0802 -0.1774 -0.0992
12820W        W30344   8.127  10.174   4.458 -0.0454 -0.1255 -0.2346
12821W        W30345  18.375   3.562  12.933 -0.4883  0.0236  0.0899
12822W        W30346   2.624  16.348   0.435  0.1696  0.0171 -0.0283
12823W        W30347   8.953  16.130   0.904 -0.3232 -0.0363  0.1536
12824W        W30348   0.407  11.345  13.304 -0.0131 -0.1437  0.0802
12825W        W30349  13.396   0.537   1.702 -0.0382 -0.0524  0.0204
12826W        W30350  12.607  17.644  13.304  0.0304  0.2588 -0.0482
12827W        W30351   7.262   2.960  13.471 -0.1867 -0.4241 -0.1012
12828W        W30352  17.998  17.803   5.035  0.2402 -0.0110 -0.1052
12829W        W30353   8.489   4.405  15.641 -0.0098  0.0937 -0.1379
12830W        W30354  11.866  10.156  14.177 -0.0479 -0.0897  0.3990
12831W        W30355  10.189   9.019  12.547  0.0077 -0.1479 -0.1773
12832W        W30356  11.331   1.957  14.956  0.0936  0.1943 -0.5382
12833W        W30357   0.838  12.668   4.111  0.3206  0.1053  0.2009
12834W        W30358   7.616  16.741  14.709  0.2106 -0.1661 -0.1764
12835W        W30359   8.835  11.526   1.635 -0.0807  0.2023 -0.0284
12836W        W30360   6.858   7.166  12.730  0.2846  0.2112 -0.0871
12837W        W30361  15.765   2.214  13.855 -0.1144  0.1745  0.0285
12838W        W30362   7.078  14.814  14.722 -0.0813 -0.2258  0.0109
12839W        W30363  16.413   9.802   2.164 -0.1502 -0.0878  0.1617
12840W        W30364   2.712   8.093  12.626 -0.0794  0.0910  0.0115
12841W        W30365  17.121  10.167  15.483  0.1564 -0.1838  0.1203
12842W        W30366  14.751  17.555  12.669  0.0011  0.1786 -0.0081
12843W        W30367   1.400   4.069   4.288 -0.5514  0.0111  0.0208
12844W        W30368  11.822  13.010  12.247  0.0377 -0.2211 -0.1579
12845W        W30369   1.476  16.939   4.344 -0.3012 -0.0861 -0.1935
12846W        W30370  13.432   9.860   0.958  0.3907 -0.2185 -0.0069
12847W        W30371   6.939   5.105   2.492 -0.1450  0.1717 -0.0833
12848W        W30372  16.827  12.323   2.541 -0.1027  0.0271  0.0590
12849W        W30373   0.410  10.998  11.636 -0.0605 -0.0396 -0.0566
12850W        W30374  13.561   1.398   2.854  0.1216 -0.1500  0.1961
12851W        W30375   0.225   5.995   0.303 -0.0344 -0.0043 -0.2233
12852W        W30376  10.654   4.846   2.431 -0.2345  0.0911 -0.1219
12853W        W30377  11.760   4.032   4.272  0.2012  0.1345 -0.0461
12854W        W30378  15.852   6.820   2.540  0.2965 -0.1172 -0.1059
12855W        W30379  16.710   2.430   3.598 -0.2873 -0.2575 -0.3110
12856W        W30380  10.136   6.428   1.871  0.0228 -0.3104 -0.0389
12857W        W30381   5.253   3.332   4.143  0.0985  0.0950  0.1768
12858W        W30382  13.791   9.014  15.279 -0.2619  0.0911 -0.0086
12859W        W30383  11.793  14.148   2.321  0.2929  0.0444  0.3348
12860W        W30384   2.858   0.935  11.504 -0.0688  0.1625  0.3807
12861W        W30385   7.890  10.490  12.241 -0.0809  0.2063 -0.0332
12862W        W30386   4.409   0.403   3.887 -0.0177  0.1550  0.0155
12863W        W30387  12.240   2.261   2.543  0.1198 -0.0495 -0.1651
12864W        W30388   7.082   8.835  12.931 -0.0280  0.0335 -0.0054
12865W        W30389   9.887  15.506   4.479 -0.2796 -0.1489  0.1856
12866W        W30390  10.774   0.393  12.965 -0.1552  0.0547 -0.0772
12867W        W30391  11.584  14.803  13.566  0.1478  0.0922  0.0823
12868W        W30392   6.157  17.399   3.837 -0.2000 -0.1566 -0.0774
12869W        W30393  18.142  17.464   0.492  0.0224  0.0526 -0.1528
12870W        W30394  12.210   9.443   3.673  0.0888  0.2382 -0.0855
12871W        W30395  15.060   5.681   4.178  0.0631 -0.0769 -0.1780
12872W        W30396   9.746  16.012   1.944 -0.0055 -0.0381 -0.0376
12873W        W30397  18.101  14.863  11.457  0.3299 -0.1721  0.2253
12874W        W30398   2.113   8.626  13.766 -0.2061  0.0696  0.1334
12875W        W30399   9.825  12.857   0.588  0.1078 -0.1516 -0.0023
12876W        W30400  16.189   1.665   3.660  0.1742 -0.0960 -0.0571
12877W        W30401   7.681  13.385   3.372 -0.0881  0.0880 -0.2273
12878W        W30402  13.413  15.687  12.274  0.0971  0.2888  0.1214
12879W        W30403   8.708  10.868  14.628 -0.0147 -0.3090  0.1210
12880W        W30404   1.407  17.502  14.168  0.5390 -0.3597  0.0122
12881W        W30405   1.885   4.252   0.072 -0.0640  0.2943  0.2514
12882W        W30406   9.421   2.875   1.377  0.1705  0.3629 -0.3188
12883W        W30407   3.234  18.136   0.873  0.0588  0.1948  0.1210
12884W        W30408   3.230   6.261  14.273  0.0559 -0.0605 -0.3859
12885W        W30409  13.562   8.341  12.024 -0.1015  0.0207  0.1175
12886W        W30410  14.318   8.967   4.679  0.0447  0.0447 -0.1431
12887W        W30411  18.408  15.298  13.618 -0.1977 -0.1796 -0.0373
12888W        W30412   7.338   9.048  15.649  0.1556  0.2441  0.4461
12889W        W30413   8.920  17.655  10.916  0.0701 -0.0861  0.0113
12890W        W30414   7.370   8.765  11.225  0.0203 -0.1663 -0.0811
12891W        W30415   9.219  10.062  13.383 -0.0426  0.1025  0.2659
12892W        W30416  13.674   8.831   0.012  0.1805 -0.0818  0.5429
12893W        W30417   3.391   2.381  10.918  0.2451  0.3188  0.1616
12894W        W30418   7.102  10.422   0.968 -0.2044  0.0739 -0.3322
12895W        W30419  11.034   5.023  10.801 -0.1448 -0.0972  0.2396
12896W        W30420  12.443   4.855  11.065  0.0050 -0.0388 -0.1276
12897W        W30421   0.550   8.005   1.149 -0.0370 -0.0149 -0.0575
12898W        W30422  14.277   3.656   3.373 -0.1175  0.0089  0.1043
12899W        W30423   4.542   4.805   3.078  0.3028  0.1580 -0.1436
12900W        W30424  14.216  16.805   5.069 -0.0085  0.2735 -0.0925
12901W        W30425   5.065   1.356  15.457 -0.0446 -0.2192  0.1491
12902W        W30426   1.615  17.436   4.331  0.1061  0.4132  0.2143
12903W        W30427   4.157  15.628   2.524  0.0013 -0.2082  0.0555
12904W        W30428   9.239   8.151   2.986 -0.2025 -0.3831 -0.2640
12905W        W30429  17.425   6.793   3.015  0.2043  0.0696 -0.0246
12906W        W30430  11.404   3.013   0.381  0.1588 -0.0273  0.0140
12907W        W30431  17.468   4.172  14.315 -0.0930 -0.0445 -0.1868
12908W        W30432   3.938  16.338  15.738 -0.1696  0.0621 -0.1405
12909W        W30433  14.104  16.248   4.384 -0.0149  0.0852 -0.0403
12910W        W30434   2.787   8.223   2.274 -0.0039  0.2877  0.1242
12911W        W30435  11.313  11.612  13.972 -0.2186  0.1172 -0.3278
12912W        W30436   3.139  14.706   3.624  0.1988 -0.1979 -0.1012
12913W        W30437  12.516   1.558  13.400  0.1601  0.0914  0.3144
12914W        W30438  16.436  14.626   0.441 -0.1498 -0.0503  0.0658
12915W        W30439  10.295   2.379   3.059 -0.0387 -0.2202 -0.0188
12916W        W30440   6.287  17.518   0.885  0.2349 -0.0205  0.2068
12917W        W30441  18.127   8.817   5.526 -0.2791 -0.0008 -0.0272
12918W        W30442   9.819  13.408  13.613 -0.4199  0.2590 -0.0918
12919W        W30443   2.775   6.700   4.805  0.1565 -0.2341  0.2014
12920W        W30444  18.136  11.730  11.974 -0.3135  0.0988 -0.2051
12921W        W30445  17.680   2.055  14.391  0.1301  0.0695  0.1188
12922W        W30446  11.087   4.365   1.248  0.1473  0.2247 -0.1166
12923W        W30447  10.713   4.644   1.357  0.3532  0.2286 -0.3999
12924W        W30448  11.828   7.893  12.307 -0.1353 -0.0920 -0.0836
12925W        W30449   7.428   0.961  12.783  0.2050  0.0354 -0.1179
12926W        W30450  15.239   7.712  15.630 -0.0637 -0.0053 -0.1282
12927W        W30451  10.514   9.436   1.973 -0.2654 -0.0214 -0.1531
12928W        W30452  12.628  12.331   0.162  0.1104 -0.1504 -0.1404
12929W        W30453   1.622   6.267   3.042 -0.1995 -0.0916 -0.0698
12930W        W30454   7.435  13.498   1.157 -0.0613 -0.1683  0.0817
12931W        W30455   7.757  14.204   2.479  0.3151 -0.4658 -0.0725
12932W        W30456  13.780   6.203   3.346 -0.1004  0.0399 -0.0741
12933W        W30457  15.116  15.629  12.501 -0.0064 -0.3230 -0.0682
12934W        W30458   0.351  14.221  14.877  0.0769 -0.1399 -0.1119
12935W        W30459   1.675  12.529  11.957  0.0177  0.0974 -0.0228
12936W        W30460  10.854   6.903   2.276  0.1253 -0.1064 -0.0377
12937W        W30461  16.580   8.039  15.605 -0.2177 -0.2221  0.0924
12938W        W30462  14.597   5.547   2.540  0.2065 -0.1595  0.1765
12939W        W30463   3.724   8.262   1.360 -0.2635  0.0200 -0.0190
12940W        W30464   9.858  15.664  13.865 -0.0246  0.0945 -0.0184
12941W        W30465  15.980  17.323  14.756 -0.2222  0.2308  0.3245
12942W        W30466  16.915  11.203  15.852  0.3391  0.1278  0.0323
12943W        W30467   7.677  14.166  15.183  0.2699  0.0789 -0.1625
12944W        W30468   4.145   4.063  10.910 -0.1112 -0.0763 -0.1019
12945W        W30469  18.351  10.195   0.772  0.0328 -0.0094  0.1231
12946W        W30470   0.711   3.250  11.968 -0.2322 -0.3778 -0.2469
12947W        W30471  15.332   3.532   4.207 -0.1007  0.0059  0.2881
12948W        W30472   5.631   2.382  15.725  0.1025 -0.1531  0.1950
12949W        W30473   7.430  12.873  11.979  0.1021  0.0707 -0.1772
12950W        W30474   4.916   0.215  14.501  0.1984  0.1739 -0.2086
12951W        W30475  11.262   9.582   1.709  0.1778 -0.2348  0.2174
12952W        W30476   7.414   7.491   2.818  0.1335 -0.0209 -0.1975
12953W        W30477   2.009  11.637   2.938  0.1020 -0.0808  0.3367
12954W        W30478  16.811   9.654   0.224  0.2020  0.0668  0.0069
12955W        W30479  17.642  17.627   1.827 -0.0750 -0.1166  0.0638
12956W        W30480  13.497   0.088  13.833 -0.1560  0.0074  0.1798
12957W        W30481   9.306   4.766   0.289  0.0651 -0.1018  0.3052
12958W        W30482   1.030   8.071  10.626 -0.3458 -0.1021  0.0781
12959W        W30483  16.756   1.763   0.524  0.0733 -0.2056 -0.1588
12960W        W30484  12.260   2.368   1.733  0.3356  0.3035 -0.0131
12961W        W30485   6.746   1.977  12.092 -0.0731 -0.2492 -0.2187
12962W        W30486  10.418   5.695   4.113 -0.3506  0.2004  0.1165
12963W        W30487  13.490   2.012  15.213  0.1969 -0.0495  0.4102
12964W        W30488   2.557   7.052  12.941 -0.0402 -0.0989  0.0729
12965W        W30489   7.540   0.362   3.680  0.1895 -0.1209  0.5252
12966W        W30490  15.949   5.425   2.486  0.0149  0.0697  0.2390
12967W        W30491  13.889   7.576   4.632  0.1836 -0.0647  0.3650
12968W        W30492  14.648  15.504  13.679  0.2056  0.0509 -0.2341
12969W        W30493   1.085  10.162   1.741  0.1022 -0.0578 -0.0828
12970W        W30494  15.198   0.842   0.962  0.0584  0.0028  0.3455
12971W        W30495   2.182   7.760   0.500 -0.3532 -0.1180  0.0451
12972W        W30496   3.243   2.530   2.364 -0.1430 -0.1085  0.0824
12973W        W30497   4.157   2.927  10.805  0.5618  0.1581  0.1082
12974W        W30498  12.102   9.955   2.754  0.1236 -0.2002  0.1845
12975W        W30499  17.421  13.818   0.707 -0.4046  0.0941 -0.0219
12976W        W30500   9.300  15.465  13.112 -0.1076  0.0860 -0.0659
12977W        W30501   8.697  16.111   2.280 -0.0638 -0.1728 -0.0930
12978W        W30502  15.278  14.370   3.228  0.0980  0.1312 -0.0082
12979W        W30503   3.278  14.244   1.275  0.2956  0.1381  0.2394
12980W        W30504   5.264   1.637   4.013 -0.4786 -0.2742 -0.3593
12981W        W30505   9.023   6.871   2.338 -0.1866  0.4090  0.2264
12982W        W30506   0.537   2.612  13.324  0.1060  0.0301 -0.0082
12983W        W30507   6.291  11.372   2.368  0.3711 -0.0316 -0.0172
12984W        W30508   7.892   7.785   0.567 -0.2962  0.0826  0.0921
12985W        W30509   7.722  12.224  12.498  0.1149 -0.0965  0.1029
12986W        W30510  14.905  15.920   1.469  0.2275  0.1002 -0.0417
12987W        W30511   8.091  14.910   2.201 -0.1452  0.1762  0.2174
12988W        W30512  14.391  17.769   2.767  0.1670  0.2741  0.1555
12989W        W30513  13.561  11.505  13.456 -0.0267  0.2317 -0.2247
12990W        W30514   9.177   0.796  14.178  0.2863  0.0535  0.1231
12991W        W30515  16.966  18.327   1.818  0.0285  0.2301  0.2812
12992W        W30516   5.460   3.709  13.227 -0.1530  0.0624  0.1389
12993W        W30517  12.790  10.272  14.346  0.0121  0.1073 -0.0387
12994W        W30518   7.325  11.439   3.859 -0.1289  0.1930 -0.1748
12995W        W30519  10.323  12.640   2.004  0.0727  0.1459  0.0398
12996W        W30520  13.621   6.509  15.014  0.0924 -0.1849 -0.3928
12997W        W30521   7.502  18.312   3.535 -0.1844  0.3144 -0.1360
12998W        W30522  15.366  12.903  15.037 -0.0915 -0.0010  0.0536
12999W        W30523  13.252   6.763   0.663  0.0367 -0.1731  0.5683
13000W        W30524   6.097   5.754  13.547  0.3767 -0.0569 -0.0398
13001W        W30525   3.821  17.327   1.438 -0.1083 -0.3015 -0.4090
13002W        W30526  12.340   6.566   0.567  0.2606 -0.0897  0.1508
13003W        W30527   8.490  12.591   1.538  0.0449 -0.1620 -0.2419
13004W        W30528   1.146  14.187   0.331  0.0246 -0.0178 -0.1402
13005W        W30529   2.866   1.581  13.882  0.1483 -0.0250 -0.1593
13006W        W30530   1.181  16.534  14.575  0.2109  0.3550 -0.3206
13007W        W30531   4.734   3.649  13.170  0.0878  0.0761  0.0778
13008W        W30532  13.043  14.885  12.351  0.2526 -0.1225 -0.0242
13009W        W30533   6.977  16.811   2.107 -0.1644 -0.0402 -0.2829
13010W        W30534  14.105  10.239  14.717  0.2354 -0.0005  0.0482
13011W        W30535  18.231   4.914   3.099 -0.0044  0.0675  0.0591
13012W        W30536  17.567   8.022   2.260  0.1139  0.1092 -0.0697
13013W        W30537   9.710   4.106  12.563 -0.0661  0.2090  0.0723
13014W        W30538   4.891   4.012   1.369  0.2689  0.1638 -0.1610
13015W        W30539  11.056   1.122   2.762  0.0354 -0.1325 -0.1266
13016W        W30540  11.415  16.769   5.372 -0.3947  0.3659  0.0281
13017W        W30541  18.301   3.899   2.733  0.2197 -0.1514  0.0665
13018W        W30542   0.904   7.701  15.243  0.1174 -0.0813  0.0768
13019W        W30543  12.276   4.337  11.968 -0.0400  0.1064  0.0221
13020W        W30544   4.220  16.987  14.121 -0.2098 -0.2350 -0.1212
13021W        W30545   3.627   4.231  11.036  0.1760 -0.0286  0.0227
13022W        W30546  11.834   6.791   3.272  0.2449 -0.0726  0.1161
13023W        W30547  12.422  16.768   1.995  0.1202  0.1290 -0.0910
13024W        W30548   2.455   5.167  10.849  0.1981 -0.0140  0.0817
13025W        W30549  13.331  18.244  11.852 -0.0609  0.0451  0.0554
13026W        W30550   7.968   7.830   1.121  0.1576 -0.2270 -0.0983
13027W        W30551   8.544  10.149  12.627  0.1444  0.1871  0.0544
13028W        W30552   1.349  15.859  13.955 -0.1336 -0.4701  0.1326
13029W        W30553   7.526  13.922  14.271  0.1416 -0.0071 -0.0603
13030W        W30554  15.272  11.062  15.242  0.0252  0.1389  0.0229
13031W        W30555  13.303   5.196  14.513 -0.0235  0.1452 -0.4050
13032W        W30556   8.035  14.044  14.205 -0.2549 -0.5506  0.0787
13033W        W30557   3.511  13.295   2.597  0.0252  0.0160 -0.2354
13034W        W30558   4.425   4.615  12.342 -0.1069  0.2500 -0.1264
13035W        W30559  17.289   7.564  12.879 -0.0524  0.0018  0.1541
13036W        W30560  10.717   3.493  14.317  0.1256 -0.1987  0.2070
13037W        W30561  10.932   2.903   0.504  0.0938  0.1567 -0.0252
13038W        W30562   5.721   1.523  11.464 -0.1209  0.0623  0.0568
13039W        W30563   8.479  15.765   3.290 -0.1768 -0.0326  0.1456
13040W        W30564   5.749   2.999   1.397  0.3200 -0.2347  0.0472
13041W        W30565  15.512  16.173   2.479 -0.0364  0.0472 -0.1508
13042W        W30566   7.638  11.562   3.331 -0.2116  0.1316  0.1285
13043W        W30567  18.196  10.210   4.296 -0.0740 -0.0669 -0.0771
13044W        W30568   9.050   6.637   3.153  0.0090 -0.0572  0.1316
13045W        W30569  17.577  12.617   4.166  0.4651 -0.0041  0.0425
13046W        W30570  17.632   0.591   1.392 -0.0349 -0.0083 -0.0570
13047W        W30571   2.810  16.219  14.526 -0.3070 -0.1771 -0.0272
13048W        W30572  13.701   9.430  12.767 -0.2018  0.3271 -0.1527
13049W        W30573  10.350  12.468  14.429  0.0691 -0.3224  0.2271
13050W        W30574  18.139   3.413   2.806  0.0747  0.0166 -0.2791
13051W        W30575  17.466   6.025   2.186  0.1413  0.0599 -0.0748
13052W        W30576  10.363   7.691   2.663  0.1276 -0.1340 -0.1644
13053W        W30577   1.996  13.864   4.900  0.0775  0.2546  0.1082
13054W        W30578  12.212  17.149   0.975 -0.0365  0.1198  0.2953
13055W        W30579  10.621  16.870  12.806  0.1351 -0.2968  0.3467
13056W        W30580  17.927   2.872   4.171 -0.0391  0.1907 -0.0171
13057W        W30581   8.035   9.475  15.085 -0.1099  0.0342  0.0844
13058W        W30582   4.358   3.738  11.311  0.0177  0.3348  0.0287
13059W        W30583  16.218  15.527  14.595  0.1397 -0.2579  0.0621
13060W        W30584   8.856   1.310  14.326 -0.0630 -0.0468 -0.0844
13061W        W30585  17.594  17.060   5.367 -0.3146  0.0374 -0.2849
13062W        W30586  10.381   7.673   0.774  0.0084 -0.4170 -0.3847
13063W        W30587  12.314   8.722  12.072  0.0686 -0.0148  0.3558
13064W        W30588  13.557   7.445   1.956  0.1426  0.0160 -0.0111
13065W        W30589   5.388   9.602  11.200  0.2839  0.0653  0.1391
13066W        W30590   0.914   4.446  11.316 -0.0822  0.0353 -0.1920
13067W        W30591  18.257   1.146  15.070  0.1082 -0.0345  0.1101
13068W        W30592   3.751   9.419  13.369 -0.1887 -0.1208  0.0991
13069W        W30593   7.809  17.869  13.189 -0.2213  0.0078 -0.1319
13070W        W30594   5.949  14.540   4.556  0.2521 -0.2811  0.0808
13071W        W30595  11.090   3.610   2.785 -0.0847  0.2422 -0.0906
13072W        W30596   6.665   4.929   4.049  0.1992  0.1052 -0.1216
13073W        W30597   8.726   6.090  13.205 -0.0540  0.3226  0.2224
13074W        W30598  10.184   3.055   3.782  0.0891  0.0460  0.3095
13075W        W30599   0.430   1.124   4.470 -0.0779 -0.2674  0.0917
13076W        W30600   0.733  13.870  11.341  0.1538 -0.2583  0.3932
13077W        W30601   7.252   9.959   5.407  0.0517 -0.0835 -0.1955
13078W        W30602   6.830  10.309   2.699 -0.2941 -0.0543 -0.3627
13079W        W30603   7.382   8.849   1.425 -0.2309 -0.0676  0.1557
13080W        W30604  16.725  17.197   1.523  0.3136  0.1195  0.0403
13081W        W30605  18.203   9.783   4.520  0.0155  0.1350 -0.1661
13082W        W30606   2.741   6.609  13.277  0.0057 -0.1190  0.0064
13083W        W30607  15.355  10.414  14.426 -0.1320 -0.2277  0.1878
13084W        W30608  18.188   7.241   9.744  0.0265  0.1404 -0.0757
13085W        W30609  10.232   1.499   4.612  0.1192  0.1411  0.0374
13086W        W30610  10.935  13.772  13.985  0.4114  0.1654 -0.0777
13087W        W30611  16.574  17.396   2.833 -0.3866  0.0456 -0.3244
13088W        W30612  16.829  12.253   4.684  0.1325  0.3216 -0.1573
13089W        W30613   9.664   9.629  12.318  0.2042  0.3258  0.0288
13090W        W30614   8.244  13.812  11.642 -0.1000  0.1853 -0.0630
13091W        W30615  10.250  13.791   0.064 -0.2923  0.0493 -0.2121
13092W        W30616  12.075  15.198   4.295 -0.0904 -0.1636  0.0291
13093W        W30617   1.956   6.110  10.928 -0.0853  0.1739  0.3295
13094W        W30618   4.729   6.896  15.645 -0.0691  0.0918  0.4466
13095W        W30619   5.470  16.731   1.535  0.2450  0.1672 -0.0583
13096W        W30620  13.618  14.641   3.161 -0.2434  0.2582  0.2255
13097W        W30621   4.476   7.984  12.425 -0.0521 -0.0967  0.1911
13098W        W30622  10.087   8.263  14.976 -0.4216 -0.1369 -0.1080
13099W        W30623   2.315   6.853   4.772 -0.0935  0.2072 -0.1819
13100W        W30624   8.462  11.949  13.361  0.0245  0.2148  0.1496
13101W        W30625   9.929  12.638   4.640  0.1293 -0.1163  0.0181
13102W        W30626   1.882   8.920  13.363  0.1239 -0.2657 -0.0229
13103W        W30627   6.846  12.329   2.824 -0.0076 -0.0831 -0.2261
13104W        W30628   8.556   0.425   4.475 -0.0947 -0.1811 -0.0026
13105W        W30629   7.669  15.385   0.200 -0.2062 -0.2305  0.2117
13106W        W30630   5.982  11.311   2.755  0.2314  0.1315  0.2797
13107W        W30631   2.003   6.895   3.558 -0.0319 -0.0115 -0.0695
13108W        W30632  11.627  11.841   4.632  0.0413 -0.2622  0.3282
13109W        W30633   7.513  14.211   5.312  0.0358 -0.1515  0.1071
13110W        W30634   9.567   7.007   2.383 -0.0869  0.1954  0.0831
13111W        W30635   2.953  12.515   3.030  0.1561 -0.1693 -0.0905
13112W        W30636  18.359  14.959   2.312  0.0975 -0.0668  0.1021
13113W        W30637  18.135   9.525  13.870  0.1147 -0.1693 -0.3005
13114W        W30638   6.365  12.717  14.966 -0.0160 -0.1060  0.2722
13115W        W30639   8.501   6.317   5.423  0.2475  0.0450  0.2599
13116W        W30640   1.203   8.641   1.273 -0.0339  0.1190  0.1104
13117W        W30641   1.897  10.918   1.116  0.1488  0.2469 -0.1939
13118W        W30642   4.223   6.564   0.681 -0.1470  0.0925  0.1508
13119W        W30643   8.192  11.483  15.614 -0.0268  0.1959 -0.2474
13120W        W30644   3.304   2.851   3.444  0.0679 -0.0675 -0.0285
13121W        W30645   3.854  18.247   4.198  0.1282  0.0752  0.0338
13122W        W30646   8.283   4.839   1.347  0.0057 -0.3589  0.0365
13123W        W30647   9.325   7.941   3.513 -0.4230  0.0611  0.2203
13124W        W30648   6.621   8.783  10.816 -0.2016  0.3473 -0.1944
13125W        W30649   0.871  13.889   4.118 -0.2977 -0.1075 -0.1764
13126W        W30650  13.211   6.545   3.024  0.3187  0.0420 -0.0986
13127W        W30651   5.926  17.431  14.225 -0.0058 -0.3665  0.0077
13128W        W30652   5.654  11.406  14.263 -0.0891  0.2625 -0.0864
13129W        W30653   4.755  10.993   5.191  0.0328 -0.0525 -0.2848
13130W        W30654  10.956  17.756  12.992 -0.0420 -0.1426 -0.1085
13131W        W30655  12.998  14.870  15.620  0.0516  0.0648 -0.0649
13132W        W30656  11.540  11.416   1.973  0.3892 -0.0560  0.0375
13133W        W30657  15.292  18.105  14.316  0.3901  0.0414  0.2952
13134W        W30658  16.758   8.858  15.701 -0.2490  0.1980  0.3044
13135W        W30659   1.144   2.486  13.789 -0.0505  0.0792  0.1214
13136W        W30660  15.686   3.685  13.246 -0.1985  0.1199  0.1235
13137W        W30661  14.106  13.363  11.254  0.4128  0.2021 -0.0702
13138W        W30662   4.617  15.057   1.085  0.3831 -0.0114 -0.1316
13139W        W30663  11.442   2.360   3.634  0.1938 -0.1633 -0.0264
13140W        W30664   6.329  12.940   2.490  0.0735  0.2707 -0.4064
13141W        W30665   1.742   8.802  12.913  0.0663  0.1422 -0.0307
13142W        W30666   0.708  18.116   1.225  0.0143  0.2348 -0.2078
13143W        W30667  10.293  15.803   2.715  0.1532  0.1353 -0.1988
13144W        W30668   1.168  10.188  11.194 -0.0794  0.0550  0.0919
13145W        W30669  11.480  11.645   3.734  0.1161  0.1479  0.0350
13146W        W30670   6.155  12.508  11.916  0.0267 -0.2320  0.0742
13147W        W30671  17.755  15.668   3.275  0.0140 -0.1965  0.0141
13148W        W30672   7.513  16.951   1.980 -0.0973  0.0899 -0.0781
13149W        W30673   8.325  10.392   3.483 -0.1809 -0.1086  0.1541
13150W        W30674   9.415  15.935   1.569  0.0574  0.0590 -0.1841
13151W        W30675   0.543   2.843  14.468 -0.4281  0.1267 -0.2117
13152W        W30676   0.982   0.361   2.018 -0.6109 -0.1442 -0.0276
13153W        W30677  11.866   0.337  10.631  0.1915 -0.0769  0.1517
13154W        W30678   4.771  17.609  11.700  0.4586  0.1539 -0.0946
13155W        W30679  14.042  17.211   4.008 -0.0628 -0.0428 -0.1698
13156W        W30680  11.909   4.372  11.146  0.3700  0.0831  0.0016
13157W        W30681  11.642   5.309  10.858  0.2082  0.0171 -0.3118
13158W        W30682  10.097  16.418  14.734 -0.1963  0.2411 -0.2104
13159W        W30683  13.596   7.467  11.060  0.0491 -0.1375 -0.1079
13160W        W30684  12.501   0.865   2.483 -0.2218  0.1644  0.2375
13161W        W30685  17.646  10.918  15.671 -0.1146  0.2108  0.2864
13162W        W30686   7.734  12.023  11.954 -0.0698 -0.0510 -0.1374
13163W        W30687  12.118  17.612   1.725 -0.0985  0.1892  0.2757
13164W        W30688  17.135  13.865   0.268  0.0507 -0.4838  0.0237
13165W        W30689   8.898   8.040  12.155 -0.1196 -0.3940 -0.0135
13166W        W30690  10.851  14.529   0.455 -0.2673  0.0218  0.0573
13167W        W30691   5.332   7.569  10.976 -0.1479 -0.3192 -0.1885
13168W        W30692  16.841   3.232  14.011 -0.1565 -0.1294  0.1993
13169W        W30693  15.674   7.119   4.599  0.0449  0.0891 -0.1183
13170W        W30694   6.608  10.181  12.066  0.2455 -0.0433  0.0288
13171W        W30695   5.009   4.105  14.381 -0.1490  0.0298 -0.1702
13172W        W30696   4.114   7.263  12.812  0.2411  0.2133 -0.2369
13173W        W30697   9.678   7.465   3.374 -0.0890  0.1006 -0.3619
13174W        W30698   8.115  14.873  13.103 -0.0238 -0.0340 -0.0107
13175W        W30699  18.409  16.611   4.159  0.1874  0.1904  0.2926
13176W        W30700  17.260   6.068  10.739  0.2095 -0.1490 -0.2023
13177W        W30701   0.003  11.036  15.229 -0.0702  0.4109  0.0887
13178W        W30702   6.863   4.527   5.472  0.1972 -0.0335 -0.3671
13179W        W30703  12.369  11.262   0.531 -0.0355  0.0567 -0.0218
13180W        W30704  10.147   2.745  11.669  0.1203  0.2231 -0.3086
13181W        W30705   4.103  15.107   4.437  0.5214 -0.4159 -0.2751
13182W        W30706   6.607  14.293   1.121 -0.2447  0.1383  0.1930
13183W        W30707   3.201  17.390  11.655 -0.0681  0.2477  0.0851
13184W        W30708   9.262   7.148  14.778 -0.0662 -0.1048  0.0650
13185W        W30709  13.454  13.452   3.428 -0.2312 -0.3277  0.0263
13186W        W30710  14.203  16.078  14.463 -0.1112  0.0076  0.0196
13187W        W30711  17.673  16.682   1.867 -0.1468  0.1881  0.3253
13188W        W30712   1.589   7.375  11.896  0.1403  0.2808 -0.2197
13189W        W30713  17.981   5.314  14.502  0.1536 -0.3154 -0.3775
13190W        W30714  15.161  17.002  12.087  0.3973  0.1090  0.1579
13191W        W30715   5.366   7.059   0.341 -0.1041 -0.2914  0.1109
13192W        W30716   4.114   2.812  14.684 -0.1271 -0.3240 -0.1786
13193W        W30717   9.870  16.979   0.105 -0.2127 -0.1095 -0.0861
13194W        W30718  14.088  13.983   0.898 -0.3036 -0.3583  0.0825
13195W        W30719   4.925  12.519   5.574 -0.1650 -0.0213  0.2294
13196W        W30720   8.081  17.118  14.512  0.2878 -0.0763  0.0295
13197W        W30721  16.748   8.798   4.851 -0.0821 -0.2168 -0.3778
13198W        W30722  15.031   7.183  12.266 -0.2463 -0.0602 -0.1362
13199W        W30723   6.220   1.011   4.271 -0.0702 -0.0331  0.3480
13200W        W30724  10.157  17.623  12.947 -0.0332 -0.1478  0.5368
13201W        W30725  11.831   3.156   3.856 -0.1185 -0.0374  0.3176
13202W        W30726   4.244   6.176   1.115 -0.1528  0.1313  0.2985
13203W        W30727   6.602  14.444  13.816 -0.2111 -0.0759 -0.2539
13204W        W30728  14.514   6.150  15.418  0.1474  0.0184 -0.2648
13205W        W30729   4.123   2.754  13.930  0.2705 -0.0268 -0.0962
13206W        W30730  16.325  10.511   0.353 -0.0475  0.1089  0.0500
13207W        W30731  13.871   5.274  10.914 -0.0072 -0.0894  0.1908
13208W        W30732  11.246   9.864  14.409  0.3678  0.0416 -0.1010
13209W        W30733   5.392  10.983   9.777 -0.2503  0.1685  0.0757
13210W        W30734  17.574   0.898  14.157 -0.0134 -0.1357  0.3106
13211W        W30735   4.976   8.220  15.391  0.1565 -0.0733 -0.1354
13212W        W30736  12.795  18.120   0.139 -0.0787 -0.0095  0.3275
13213W        W30737  12.726   8.822   2.415  0.1465  0.0488  0.1210
13214W        W30738   7.918   0.813  12.795 -0.1064  0.1522 -0.0491
13215W        W30739   5.466   5.514   3.947 -0.0879  0.1565  0.1022
13216W        W30740   1.652  12.288  14.120  0.0882  0.1090  0.0925
13217W        W30741  16.611   1.546   4.672 -0.0636  0.0191  0.0779
13218W        W30742   5.258  16.425  11.333 -0.2608 -0.2332  0.0444
13219W        W30743  18.137  18.138  15.248 -0.0913  0.1737 -0.1097
13220W        W30744   7.621  16.451   0.903 -0.0600  0.1123 -0.0870
13221W        W30745   8.833  15.643   0.817 -0.3647 -0.1260 -0.1121
13222W        W30746  16.264   0.411   4.201  0.0953  0.0577 -0.0566
13223W        W30747   9.095   9.312  11.165  0.1043 -0.0974  0.2753
13224W        W30748   4.787   2.355   4.165  0.1648 -0.0599  0.2255
13225W        W30749   1.322  16.357   1.723 -0.2316 -0.1524 -0.2493
13226W        W30750  17.343  13.564   9.774 -0.2780 -0.1505 -0.2299
13227W        W30751  16.681   4.260   3.303  0.1474  0.3359 -0.0720
13228W        W30752   4.159  17.510  14.222  0.0245  0.0927 -0.3018
13229W        W30753   1.958  17.302  12.321 -0.2421 -0.0148 -0.1050
13230W        W30754   4.064   2.125  11.441 -0.2099 -0.1267 -0.2859
13231W        W30755   6.793  10.829  10.932 -0.0980 -0.0712  0.2409
13232W        W30756   6.267  11.600  12.573  0.0629 -0.3087 -0.1000
13233W        W30757  14.074  17.036  12.779 -0.3246 -0.0181  0.0624
13234W        W30758  13.759   2.941   2.775  0.0897 -0.0571  0.2305
13235W        W30759   0.302   2.772   0.213 -0.1570  0.0954 -0.0280
13236W        W30760  15.544   8.192  15.013 -0.0890  0.1348  0.0891
13237W        W30761  13.840  15.062  14.506  0.0771  0.1140  0.0473
13238W        W30762   8.645  12.052  11.277 -0.0182  0.0546  0.1059
13239W        W30763  14.199   8.675   5.178 -0.0893 -0.1902  0.1901
13240W        W30764   4.823   1.214   1.171 -0.0847 -0.0368  0.1712
13241W        W30765   2.046   1.989  13.640 -0.1802  0.0279 -0.0004
13242W        W30766  12.545   7.801  13.113 -0.0087  0.0163  0.0279
13243W        W30767  12.155  11.919   4.465 -0.0540  0.3172  0.0435
13244W        W30768   9.248  18.059  12.026 -0.1939  0.0703 -0.1987
13245W        W30769  10.120   9.099   2.297 -0.1361 -0.1973  0.2059
13246W        W30770   3.606   4.357  11.561  0.1520  0.1055 -0.0645
13247W        W30771   0.078  15.139  11.462 -0.3595 -0.3189 -0.0247
13248W        W30772   5.372   0.305   5.247  0.3173 -0.0831 -0.0166
13249W        W30773  17.543  16.713  10.009 -0.2745  0.1962 -0.5641
13250W        W30774   5.326   5.862  10.845  0.1649 -0.0072 -0.1208
13251W        W30775   9.317   9.410   2.768 -0.1105  0.0848  0.0102
13252W        W30776  12.565  11.734   1.220 -0.1728 -0.0087  0.1486
13253W        W30777  10.357   0.770   2.844 -0.0879 -0.0341 -0.0349
13254W        W30778  17.017   4.897  15.698  0.0371 -0.0921  0.0747
13255W        W30779  13.057  11.713   0.913  0.1678 -0.0584  0.0243
13256W        W30780   7.528   5.611  11.516 -0.1393  0.1162  0.0742
13257W        W30781   6.727   9.783  11.473 -0.1380 -0.1348  0.0682
13258W        W30782   7.148  18.037  11.943  0.5242 -0.0702  0.0838
13259W        W30783  10.860  17.388   0.829  0.2581 -0.1443 -0.0898
13260W        W30784   1.078   1.361  10.813  0.1289 -0.0963  0.1323
13261W        W30785  12.638  12.842   3.506 -0.0473 -0.0359 -0.0008
13262W        W30786   8.623  15.072   4.481 -0.0643  0.1751  0.0950
13263W        W30787  10.688   2.415  13.855  0.1348  0.0159  0.1187
13264W        W30788   4.274   2.599  11.634 -0.5235  0.0707 -0.0670
13265W        W30789   5.824  13.307  13.255  0.0754 -0.3149 -0.1950
13266W        W30790   4.086   0.900  10.929  0.1811 -0.3246 -0.0253
13267W        W30791  13.203  15.308  13.061 -0.0598 -0.0325 -0.0267
13268W        W30792   3.462   6.954   0.557  0.0386 -0.1598  0.0880
13269W        W30793   4.387   5.983   2.606  0.0386 -0.1082  0.0456
13270W        W30794  14.526   3.431   1.109 -0.2373 -0.1986 -0.0770
13271W        W30795   1.890  13.117   0.768 -0.1419  0.1612  0.0317
13272W        W30796   3.944   9.889   5.319 -0.2593  0.1484 -0.1615
13273W        W30797  17.531   3.878  13.865 -0.0625 -0.4249  0.0723
13274W        W30798  17.038   8.742   1.435  0.0858 -0.0337 -0.0142
13275W        W30799  10.199   7.141  12.806  0.0299 -0.2550 -0.0288
13276W        W30800   3.914  14.065  12.561 -0.2124 -0.0209 -0.0924
13277W        W30801  16.392   0.473  13.061  0.0506 -0.2138  0.3117
13278W        W30802  11.521  13.097  13.560 -0.1627 -0.2622  0.1342
13279W        W30803  17.600   9.786  13.909 -0.1084  0.1477  0.1004
13280W        W30804  13.661   5.982   0.763  0.0365  0.1107  0.1969
13281W        W30805  17.310   8.307   1.762  0.1444 -0.4256  0.1047
13282W        W30806   4.252  17.837   0.636 -0.0009  0.1047  0.0006
13283W        W30807   7.418  13.643  12.872 -0.2005  0.5211 -0.0533
13284W        W30808   2.111  11.553  13.926  0.2434 -0.1669 -0.0695
13285W        W30809  16.562   4.938  12.442  0.0862  0.5089  0.1558
13286W        W30810  14.936   4.271   3.775  0.3364 -0.0046 -0.0962
13287W        W30811   0.454   4.507  14.565  0.0356 -0.4192  0.4729
13288W        W30812  16.110  15.807  15.717 -0.1915  0.0175 -0.0107
13289W        W30813   6.998   1.137  15.241 -0.1663  0.1979 -0.1885
13290W        W30814   9.166  15.390   1.651 -0.0604  0.0252 -0.2455
13291W        W30815  18.013  10.360  14.538  0.3213  0.0559  0.0515
13292W        W30816   0.018  11.036   2.539  0.0291 -0.1407  0.3413
13293W        W30817   2.308   0.578   3.894 -0.2638 -0.0594 -0.0781
13294W        W30818  11.142   6.989  13.311  0.2806  0.1757  0.1152
13295W        W30819  12.367  17.052  14.990  0.0804 -0.1089  0.0057
13296W        W30820   3.447   6.139  15.803 -0.2005  0.0018  0.0211
13297W        W30821   5.755   2.184   3.773 -0.0083  0.1993  0.0598
13298W        W30822  10.167   0.872   3.823  0.2002 -0.1935  0.1444
13299W        W30823   1.288   4.100  15.561  0.0595 -0.0374  0.0776
13300W        W30824  12.116  10.501  15.679 -0.0267 -0.2319 -0.0096
13301W        W30825  11.434   7.817   1.473 -0.1850 -0.0099  0.0433
13302W        W30826  10.255  15.359  14.635 -0.0962  0.1107  0.0341
13303W        W30827   1.211  16.475  14.008 -0.2067 -0.2146  0.1709
13304W        W30828   8.985  15.497   3.448  0.3563  0.2477  0.2396
13305W        W30829  17.453   9.710   2.421  0.1374 -0.0359  0.0546
13306W        W30830   6.212   6.250  11.709  0.0387 -0.1181  0.4199
13307W        W30831  10.845  11.934   2.179  0.0745  0.3272 -0.0435
13308W        W30832  17.283  11.130  13.202 -0.2205  0.0439 -0.1209
13309W        W30833   3.806   1.953  11.843 -0.0144 -0.1683  0.0189
13310W        W30834  16.380   7.967  12.455 -0.2656 -0.0670 -0.0009
13311W        W30835   2.006   1.106   1.624  0.2763  0.1310  0.1455
13312W        W30836   0.949   7.454  12.651  0.1476  0.2212 -0.0504
13313W        W30837  13.682   1.633  14.268  0.0466 -0.2360  0.3437
13314W        W30838  12.398   5.773   5.104  0.0438 -0.3773  0.1789
13315W        W30839   8.658   4.651  15.158  0.1890 -0.0063 -0.1822
13316W        W30840  14.505   5.644  15.531 -0.1443  0.1344 -0.1434
13317W        W30841   1.627   8.982  14.395 -0.0079 -0.1192 -0.0106
13318W        W30842   7.969  13.739   4.098  0.2645  0.0795 -0.1515
13319W        W30843   1.151  12.032   1.865  0.2103  0.0358  0.0283
13320W        W30844   9.596  14.434   3.632  0.1951 -0.0090 -0.2362
13321W        W30845  10.938  11.387   0.301 -0.1570  0.0276  0.1268
13322W        W30846   3.986  18.185   4.672  0.0146  0.0033  0.0141
13323W        W30847  12.389  15.807   3.842 -0.0302  0.2982 -0.1642
13324W        W30848  12.998   0.294  14.053 -0.2226  0.2324 -0.0706
13325W        W30849  12.739   2.127   2.492 -0.0157  0.3420  0.0761
13326W        W30850   8.818  11.065   0.295  0.4698 -0.2810 -0.1694
13327W        W30851   8.776  14.590   4.481 -0.2000  0.2194  0.1372
13328W        W30852   1.591   5.507   1.857  0.0371 -0.1807  0.0637
13329W        W30853  14.199  18.293  14.896 -0.0181  0.1215  0.0996
13330W        W30854  13.911  14.991   2.403  0.2552  0.3051 -0.0151
13331W        W30855   4.979  18.215   0.225  0.2207 -0.0521 -0.3503
13332W        W30856   7.956   7.503   3.356 -0.2591 -0.0188 -0.1361
13333W        W30857  10.116   5.680  11.932  0.0052  0.0716 -0.1085
13334W        W30858   7.000  13.846   3.384  0.1556 -0.0209  0.0071
13335W        W30859   2.194  10.029  13.536  0.0158 -0.1197  0.2638
13336W        W30860  11.963   5.143   1.731 -0.0324  0.0790  0.0708
13337W        W30861  12.541  15.404   0.323 -0.1539 -0.2470 -0.0095
13338W        W30862  12.557  15.208  12.859  0.0972  0.2062  0.0235
13339W        W30863  17.036   2.183  13.868 -0.2486 -0.1042 -0.2775
13340W        W30864   0.412   9.027   4.286 -0.1898 -0.2489  0.1216
13341W        W30865   4.233   4.601   3.934  0.0701  0.2221 -0.1078
13342W        W30866  15.476  11.865   4.046  0.3338  0.3874 -0.2101
13343W        W30867   0.686   7.563   0.914  0.0399 -0.0488 -0.3159
13344W        W30868  12.316   8.705  13.443 -0.0257 -0.0562 -0.1702
13345W        W30869   3.928  10.137   2.012  0.0359  0.0591  0.2780
13346W        W30870   7.532   8.436   3.799 -0.2263 -0.0047 -0.2334
13347W        W30871  10.758   6.397  13.936 -0.0020  0.2503  0.0495
13348W        W30872  10.471  14.055   2.502  0.0162  0.1381 -0.0504
13349W        W30873   3.467   7.702  11.708  0.1517  0.2886  0.0468
13350W        W30874  11.996  11.954  14.258 -0.0812  0.2201 -0.1978
13351W        W30875   3.045   2.577  13.622 -0.1594  0.1759  0.1657
13352W        W30876   2.500  15.402   3.055  0.0922 -0.3309  0.2464
13353W        W30877   7.520   4.751  11.941 -0.1916 -0.0025  0.0404
13354W        W30878  17.216  11.379   4.458  0.0724 -0.4049  0.0261
13355W        W30879   8.329   2.271   0.342  0.1095 -0.0545  0.1817
13356W        W30880   7.434   9.073   3.722 -0.0211  0.1076 -0.3415
13357W        W30881  15.385  18.208   0.845  0.1345  0.3902  0.0862
13358W        W30882   5.746  14.490  12.557 -0.2265  0.3068 -0.0567
13359W        W30883   7.300  18.249  14.492  0.0709  0.0674 -0.1036
13360W        W30884   3.906  13.741  14.010 -0.3606 -0.0503  0.1876
13361W        W30885   3.196   5.106   2.460  0.1580 -0.0535 -0.1387
13362W        W30886  12.431  13.568   1.612  0.1669  0.0325 -0.2142
13363W        W30887   6.623   3.106  14.767  0.2100  0.0809 -0.3939
13364W        W30888   6.385  16.128  15.270  0.1035  0.0157 -0.2444
13365W        W30889   0.430  10.928   5.347 -0.2550 -0.0013 -0.0777
13366W        W30890  17.630  11.982  13.080  0.0413  0.0432  0.0249
13367W        W30891   4.960  17.984  13.697 -0.2734  0.2641  0.4344
13368W        W30892   0.211   5.940   4.187 -0.0137 -0.0865 -0.2895
13369W        W30893   4.721   8.280   2.227 -0.3267 -0.2332 -0.0577
13370W        W30894  14.136   0.421   0.920 -0.1836  0.2175  0.1383
13371W        W30895   3.406   1.484   4.763  0.0159 -0.0601  0.1405
13372W        W30896  12.825   9.919  10.401  0.0881 -0.0550 -0.0238
13373W        W30897  11.442   8.772   0.562 -0.0900 -0.0645  0.0070
13374W        W30898  12.790  11.944   3.547 -0.1690 -0.1904 -0.3900
13375W        W30899   1.537   8.907  10.597 -0.0474  0.2202 -0.0288
13376W        W30900  12.643  14.723  12.756  0.1206 -0.0435 -0.0712
13377W        W30901   8.162   3.397  15.656 -0.0707  0.0846 -0.0545
13378W        W30902   5.234  14.894  14.136 -0.2782  0.0776  0.0513
13379W        W30903   2.342  14.828  13.043 -0.1026  0.0193 -0.2186
13380W        W30904   5.955   9.106   3.947 -0.0701  0.0448 -0.3010
13381W        W30905  13.201  11.717   2.193 -0.1976  0.1157  0.6056
13382W        W30906  14.249  15.058  15.673 -0.3711 -0.0314  0.1823
13383W        W30907   5.824   5.698   1.720 -0.0819 -0.0124 -0.1062
13384W        W30908  13.708  14.315   0.206 -0.3696 -0.1509  0.0671
13385W        W30909   9.647  16.759  12.937  0.0556 -0.0351 -0.2126
13386W        W30910  12.231  15.515  15.491 -0.1259 -0.1352  0.1814
13387W        W30911   3.239   9.196  12.918 -0.3030  0.2022  0.0583
13388W        W30912  10.700  17.869  13.895  0.2769  0.0495 -0.4488
13389W        W30913  13.149  18.250  14.105 -0.0136  0.2275 -0.1798
13390W        W30914   5.740  10.036   0.748  0.1788 -0.1519 -0.0013
13391W        W30915  15.504   8.978   2.966  0.0142 -0.1137 -0.0228
13392W        W30916   7.493   2.260   9.824  0.3065  0.0040 -0.2650
13393W        W30917   0.791   8.718   4.759 -0.1975  0.0435 -0.0361
13394W        W30918  17.771   7.598  13.079  0.2267 -0.2383  0.0385
13395W        W30919   2.388   7.632   4.803  0.0078  0.1866 -0.0942
13396W        W30920  14.650   8.403  13.712  0.1535  0.0153 -0.2454
13397W        W30921   8.029   8.779   3.204 -0.1057  0.2771 -0.0085
13398W        W30922   1.982   7.096   2.651  0.1952 -0.1085 -0.0748
13399W        W30923   6.917  15.032  13.089 -0.0455  0.2038  0.0910
13400W        W30924   1.033   3.224  14.998 -0.1473  0.3229  0.1685
13401W        W30925   5.027  14.054  14.726 -0.2029 -0.1134 -0.0132
13402W        W30926   5.645  17.097   1.245 -0.2952 -0.1007  0.0755
13403W        W30927  15.023   5.002  14.617 -0.0056 -0.0816 -0.1562
13404W        W30928   8.697   5.671  10.238 -0.1530 -0.0635 -0.2695
13405W        W30929   3.355   9.478   2.819  0.4355 -0.2360  0.2975
13406W        W30930   0.031  17.259  13.136 -0.0037 -0.1941 -0.0362
13407W        W30931   4.152   0.144   4.977  0.2355  0.1007  0.0625
13408W        W30932   6.295   8.286   1.958 -0.0390  0.0603  0.4224
13409W        W30933   1.182   7.723   1.979  0.0984  0.0621  0.1957
13410W        W30934   5.424   8.688   1.939  0.0125 -0.1093 -0.1764
13411W        W30935  10.104   4.185   0.230  0.2241 -0.0553 -0.0698
13412W        W30936  13.106   8.945   1.402 -0.1052  0.0957  0.0446
13413W        W30937   5.533  12.181  14.989 -0.0732  0.0451 -0.2336
13414W        W30938   0.890   0.746   3.129  0.2045 -0.1001  0.2132
13415W        W30939   0.943  10.599  13.899 -0.1039 -0.2192  0.0150
13416W        W30940  11.103   6.483   2.687  0.0733  0.2029  0.2442
13417W        W30941  14.313  12.990   2.275  0.2329  0.2147 -0.0326
13418W        W30942   3.431   7.459   5.037  0.0322 -0.3781  0.1463
13419W        W30943  10.534  18.264   2.377  0.2336 -0.0981  0.3961
13420W        W30944  12.841   3.462   3.855  0.1530 -0.2798 -0.2763
13421W        W30945  17.331   5.693  12.847 -0.0149  0.1531 -0.2455
13422W        W30946   0.182  18.029  13.188  0.1434  0.1523 -0.0901
13423W        W30947  13.608  10.454  14.929  0.2311 -0.3849  0.1608
13424W        W30948   1.691   6.495   5.578 -0.0602  0.1211 -0.0285
13425W        W30949  11.950   9.084   1.169  0.0251  0.0901  0.0312
13426W        W30950  11.098  15.163  15.834 -0.1033 -0.1757  0.2279
13427W        W30951   7.800  12.382  14.887  0.0872 -0.1301  0.0876
13428W        W30952   5.394   9.737  13.488  0.0756  0.0208  0.2572
13429W        W30953   2.041  15.181  11.524  0.0379 -0.3074  0.0108
13430W        W30954  15.524   4.443   1.254 -0.3017 -0.2922 -0.0258
13431W        W30955   4.414   7.231   0.414  0.1109 -0.1587 -0.0163
13432W        W30956   9.348  14.485  11.008  0.0957  0.3440 -0.3248
13433W        W30957  14.328   8.628  15.592  0.2048  0.0904  0.0941
13434W        W30958   5.842   5.021  11.333 -0.0505 -0.3441 -0.0357
13435W        W30959   3.904  12.971   2.724 -0.2160  0.0061  0.2039
13436W        W30960  12.194  15.394  15.037  0.1657  0.0678  0.1379
13437W        W30961  18.330  12.864  12.163 -0.0650  0.0241 -0.1767
13438W        W30962  14.965  16.812  13.324  0.0411  0.0490 -0.2114
13439W        W30963   1.187   1.759   4.549 -0.2124  0.0957 -0.0933
13440W        W30964  15.835   7.749  15.030  0.0614 -0.2072 -0.3241
13441W        W30965  11.441  15.387   2.879  0.2011 -0.3888 -0.1084
13442W        W30966  15.541   9.565  11.514  0.0006  0.1598  0.2259
13443W        W30967   8.948  18.279  12.337 -0.1251 -0.1314 -0.1568
13444W        W30968   8.002   6.024  11.340  0.0685  0.1079 -0.3153
13445W        W30969   4.040   7.795  14.169  0.3649  0.5146 -0.1028
13446W        W30970   9.983   2.743  13.485  0.0044  0.0672  0.1409
13447W        W30971   7.780  12.540  15.860  0.2167 -0.1792  0.0951
13448W        W30972   7.514  14.123  12.820 -0.2529  0.1012  0.0636
13449W        W30973   5.262  15.944  13.920 -0.0365 -0.5886  0.0563
13450W        W30974   1.933   7.427   4.540 -0.0890  0.1338  0.0308
13451W        W30975  15.462   2.916  14.424 -0.1876  0.0972 -0.0530
13452W        W30976  10.124  12.087   1.214 -0.0476 -0.0409 -0.0012
13453W        W30977   3.557  12.480  15.271 -0.2499 -0.2117 -0.0656
13454W        W30978  16.744   5.182   1.253  0.0860 -0.0312 -0.1452
13455W        W30979   3.675   2.373  11.294  0.0009 -0.0178  0.0877
13456W        W30980   4.969  17.035  13.904 -0.1949  0.3026  0.1444
13457W        W30981  12.422  17.865   3.227  0.1139  0.1420  0.5643
13458W        W30982   1.356  11.870  11.312  0.2238 -0.0949 -0.0806
13459W        W30983   9.968   1.505  15.085 -0.2257  0.0666  0.0993
13460W        W30984   2.427  11.418   4.029 -0.0252 -0.0258  0.1554
13461W        W30985   1.933  15.961  12.480 -0.0478 -0.0926 -0.1295
13462W        W30986   7.967   8.930   1.981 -0.1104  0.0911 -0.4161
13463W        W30987  18.019  11.495  11.380  0.0571 -0.0762  0.2409
13464W        W30988  11.285  16.223   0.368 -0.0236 -0.2011  0.1427
13465W        W30989   0.988  12.778  15.774 -0.0759  0.0718  0.2592
13466W        W30990   0.930  12.006  11.035  0.1785 -0.1127 -0.2076
13467W        W30991   0.399  15.253   0.626 -0.2248  0.2596 -0.0643
13468W        W30992  13.035   0.048   3.362 -0.1173 -0.0001 -0.2634
13469W        W30993   0.115  14.443   0.537 -0.2076  0.0347 -0.0602
13470W        W30994   2.724  16.224   1.997 -0.1102 -0.4083 -0.1791
13471W        W30995   4.273  15.131   1.619  0.2312  0.0990  0.0067
13472W        W30996  14.644  14.217   1.437  0.0788  0.2089 -0.4459
13473W        W30997   0.294   5.490   4.323 -0.2637 -0.2573  0.2284
13474W        W30998  10.087  10.189  14.461  0.1338 -0.0341  0.0590
13475W        W30999   2.024  16.568  14.921 -0.1215  0.0750  0.1569
13476W        W31000   5.057  15.579  12.350  0.0464  0.3290  0.1022
13477W        W31001   6.036  12.094  14.253  0.1656 -0.0173 -0.0915
13478W        W31002   4.436   3.449  14.403 -0.0163 -0.0051 -0.0482
13479W        W31003   4.680   1.967  12.306  0.3264 -0.0129  0.1561
13480W        W31004  18.387  11.197   1.570 -0.2151 -0.0498  0.0802
13481W        W31005   2.735   0.758  15.493  0.0899  0.1964 -0.0864
13482W        W31006   5.146   5.096   3.856  0.1441  0.0060  0.4487
13483W        W31007  18.190  17.654  12.876 -0.1027 -0.1800 -0.0207
13484W        W31008   1.327   7.494  15.099 -0.3079  0.2174 -0.0362
13485W        W31009   3.895   4.557   4.851 -0.1095 -0.3215  0.1125
13486W        W31010   5.273  14.795  15.312 -0.1398  0.0732  0.0037
13487W        W31011  14.876   8.023  14.877  0.0847 -0.1869 -0.1856
13488W        W31012   9.596   6.963  13.664 -0.0513  0.1593  0.0571
13489W        W31013  11.328   3.446  14.921  0.2672  0.0998  0.0331
13490W        W31014   0.973   6.365  14.591  0.0541  0.0719 -0.1855
13491W        W31015  15.215  12.424   0.356 -0.1412  0.3266 -0.3429
13492W        W31016   3.008   0.060   4.361 -0.1700  0.2601 -0.3582
13493W        W31017  16.992   0.396  15.576 -0.2357  0.2230 -0.3030
13494W        W31018  12.654   8.286  14.774  0.0269  0.1440  0.0646
13495W        W31019   6.796   7.121   3.760  0.1866 -0.1696 -0.0343
13496W        W31020  14.389   8.238  13.301  0.2151  0.0112  0.2294
13497W        W31021  18.159   6.683  11.358 -0.2713 -0.4263 -0.1114
13498W        W31022   6.807   4.524  14.421  0.1206 -0.0158 -0.0574
13499W        W31023   0.131  14.698   2.746 -0.4489 -0.0243 -0.3850
13500W        W31024   4.688  16.377  11.620  0.3046  0.0835 -0.0684
13501W        W31025   8.742   6.700   3.876 -0.1137 -0.1246 -0.1043
13502W        W31026  11.257  11.286  14.553  0.2226 -0.2268  0.0515
13503W        W31027   0.977   3.979  14.121 -0.1028  0.0142  0.0592
13504W        W31028   4.848  16.483  10.209 -0.1980  0.1269 -0.0050
13505W        W31029   0.110   2.162  11.227  0.1036  0.0479 -0.2921
13506W        W31030  13.671   8.410  14.967 -0.0288 -0.0891 -0.0629
13507W        W31031   2.011  14.536   2.332  0.0102  0.1747 -0.1387
13508W        W31032   2.773  10.546  15.168  0.1240  0.4261 -0.0674
13509W        W31033   4.615  14.504   3.092  0.0962 -0.0997 -0.0632
13510W        W31034  17.358  16.907   0.204  0.0455 -0.2838 -0.1768
13511W        W31035   1.420   7.107   1.442 -0.0003  0.0176  0.1123
13512W        W31036  16.154   4.936   3.389 -0.0132  0.1540 -0.4667
13513W        W31037  17.799   6.851  10.661  0.2461 -0.1919  0.1937
13514W        W31038  14.781   8.008  13.418 -0.1820 -0.0990  0.0278
13515W        W31039   6.236  13.580  13.122 -0.0089  0.0279  0.1153
13516W        W31040   2.117   0.614  12.643 -0.0865 -0.0019  0.2130
13517W        W31041   4.668  14.963   2.060 -0.0423  0.0341  0.1007
13518W        W31042  18.038   9.871  14.224  0.2552 -0.0078  0.1160
13519W        W31043  14.568   2.111   1.938  0.2397 -0.1548 -0.1898
13520W        W31044   1.561   9.026   1.193  0.1205  0.1088 -0.1197
13521W        W31045  12.552   1.159  15.017 -0.1084  0.1399  0.0678
13522W        W31046   9.139   1.035  12.578  0.0986  0.0670 -0.0702
13523W        W31047  16.188  12.803  13.486 -0.1844  0.1383  0.0697
13524W        W31048  16.870   5.580   3.684 -0.0518  0.1500 -0.0741
13525W        W31049   6.285   5.823   3.832 -0.4808 -0.0730  0.2253
13526W        W31050   4.040  17.858   3.577  0.1535  0.0779  0.0824
13527W        W31051  10.368  14.628   3.848 -0.3187  0.1420 -0.0643
13528W        W31052   8.396   3.681   1.880  0.0630  0.0927  0.1066
13529W        W31053   3.914  14.227  10.717 -0.2973  0.0975 -0.0943
13530W        W31054   8.923  12.178  13.422  0.1210 -0.1349  0.2111
13531W        W31055  10.259  14.430   1.443  0.1430  0.0576  0.2823
13532W        W31056  10.963  15.252  15.296 -0.1154 -0.0063 -0.2475
13533W        W31057   4.458  16.588  12.598  0.0802  0.2228  0.0451
13534W        W31058   3.750   2.775   3.075  0.3756  0.0024  0.2069
13535W        W31059  15.804   3.727   1.834  0.0025 -0.1719  0.2739
13536W        W31060  18.032   0.278   1.898  0.0655 -0.0647  0.0759
13537W        W31061  12.239   6.704   2.973  0.4704 -0.1377  0.0056
13538W        W31062  16.792  15.084  10.512  0.4690 -0.0521  0.0694
13539W        W31063  17.827  11.531   3.906  0.1647  0.1954  0.0967
13540W        W31064   1.380  18.232  10.421 -0.0686 -0.3186 -0.3443
13541W        W31065  14.236   1.367  13.966 -0.2033 -0.2615  0.0248
13542W        W31066   1.942   5.050   1.774 -0.0162 -0.0685 -0.0349
13543W        W31067   9.355  14.008   3.565  0.0595  0.0791  0.1347
13544W        W31068  13.376   5.184  11.759  0.1847 -0.2136 -0.0557
13545W        W31069   1.062   7.899  12.411  0.1167 -0.4705  0.1187
13546W        W31070  17.855   3.533   3.319  0.0921  0.0597 -0.1465
13547W        W31071  10.946  13.104   1.666 -0.2057  0.2543 -0.0923
13548W        W31072   8.123   0.784  14.485 -0.0878  0.1926 -0.0434
13549W        W31073  12.736   9.307  15.755 -0.2575  0.0529  0.1467
13550W        W31074   8.117   3.890  11.189 -0.1129 -0.0648 -0.1152
13551W        W31075  11.867   9.960   3.657 -0.1893 -0.0404  0.1554
13552W        W31076   6.568   3.417  13.931  0.1916 -0.2617 -0.0079
13553W        W31077   6.685   8.948  15.585 -0.3011 -0.0625 -0.1619
13554W        W31078   4.062   4.121   0.000  0.0330 -0.0353 -0.3227
13555W        W31079  10.781   9.782   1.760  0.2013 -0.0622  0.0292
13556W        W31080   3.671   2.485   0.514 -0.0657  0.1762  0.0480
13557W        W31081  11.107  16.043   3.731  0.0547 -0.0672  0.0444
13558W        W31082  16.249   5.871   1.946  0.0762  0.1948  0.3781
13559W        W31083   8.620  12.402   0.112  0.1572  0.0399  0.0836
13560W        W31084   2.633   2.090  11.204  0.1426  0.1608  0.1282
13561W        W31085   1.984  11.853  12.303 -0.1498 -0.2705 -0.1012
13562W        W31086   2.138  14.510  14.043 -0.1674 -0.2306 -0.2729
13563W        W31087   7.878   6.562   2.433  0.1845  0.1102  0.1812
13564W        W31088   5.094   4.100  15.406 -0.0249 -0.1326 -0.0351
13565W        W31089  15.531  17.238   4.910 -0.3408 -0.1769  0.0169
13566W        W31090   9.862  14.686   4.036  0.1750 -0.2174 -0.0591
13567W        W31091  13.160  15.706   0.285 -0.1651 -0.0867 -0.2289
13568W        W31092  10.295  15.062   4.431 -0.0387 -0.1000  0.0970
13569W        W31093   8.250   4.416   3.741  0.2737  0.1720  0.2486
13570W        W31094   0.804   0.187  11.688 -0.0383 -0.3151 -0.0281
13571W        W31095  12.965  16.749  14.832  0.1328 -0.0908 -0.2988
13572W        W31096   1.882   0.055  14.117 -0.4526 -0.0899  0.3533
13573W        W31097  12.369  16.260   0.065  0.4772  0.0859 -0.2631
13574W        W31098   0.793  13.602   1.728  0.1152  0.0464  0.1356
13575W        W31099   1.256   8.403   3.788 -0.1589  0.2765  0.1937
13576W        W31100  14.104  12.531   4.188 -0.1442  0.0672 -0.1146
13577W        W31101   3.850   7.226   4.026  0.0397 -0.1700 -0.0475
13578W        W31102   0.363   9.644  10.561 -0.0360 -0.3397  0.0252
13579W        W31103  14.172   5.612   0.068 -0.2173  0.2682 -0.1766
13580W        W31104   2.025   1.939  12.842  0.0825  0.2000 -0.4919
13581W        W31105   7.293   3.978  14.251 -0.3540 -0.1332  0.1906
13582W        W31106  17.548   2.011   0.868  0.1973 -0.1617 -0.1788
13583W        W31107   7.422  12.385   0.319 -0.5863  0.2760  0.0349
13584W        W31108  15.451   3.741   0.587  0.2468  0.1775  0.2052
13585W        W31109  12.097  15.750   1.113 -0.1427 -0.0122  0.0059
13586W        W31110   2.225   6.092   1.526  0.1875  0.0894 -0.2437
13587W        W31111   4.340   4.465   1.954  0.3000 -0.3010  0.0754
13588W        W31112   1.307  17.178  13.753 -0.2442 -0.1411  0.2627
13589W        W31113  13.378  10.206  12.732 -0.2042 -0.0431 -0.3374
13590W        W31114  17.398   4.234  12.549 -0.0524 -0.0327  0.1380
13591W        W31115   1.678  11.227   0.780 -0.0311  0.2039 -0.1408
13592W        W31116  16.845   6.552  13.337 -0.0723 -0.3764  0.0978
13593W        W31117  12.345  10.358   4.832  0.2140  0.1906 -0.1585
13594W        W31118   5.009  14.499  13.885 -0.1520  0.3542  0.0186
13595W        W31119   0.447   4.271  12.682 -0.1395 -0.2484  0.1555
13596W        W31120  11.504   4.061  14.136  0.1380  0.1152 -0.0184
13597W        W31121   1.371  17.243  15.739 -0.1001  0.2238 -0.0252
13598W        W31122   8.094   5.605  11.555 -0.0002  0.0504  0.1230
13599W        W31123   2.688  11.311  11.833  0.1862 -0.1767 -0.2518
13600W        W31124   9.589  11.287  11.905  0.0274  0.1306 -0.2080
13601W        W31125   0.937  12.715  13.937 -0.2518  0.0121  0.1112
13602W        W31126  13.613  17.955   2.590 -0.3143 -0.3569 -0.0613
13603W        W31127  10.521   2.625   0.664 -0.1206 -0.3373  0.0969
13604W        W31128  17.064   9.443  11.517  0.1762 -0.0101 -0.2437
13605W        W31129   8.553  10.356   0.891  0.3003 -0.0040 -0.0663
13606W        W31130   2.234  14.758  11.820  0.0573  0.1395  0.1488
13607W        W31131   2.739   2.427   2.998  0.3113  0.0135  0.1466
13608W        W31132   4.279   6.435   2.790  0.0411 -0.2471  0.0331
13609W        W31133   4.000  14.314   1.572 -0.0461  0.2749 -0.1238
13610W        W31134  18.329  12.652  13.679  0.1395 -0.3812 -0.0940
13611W        W31135  14.613   0.988  13.944 -0.1457  0.1981 -0.2418
13612W        W31136  17.133   1.158  12.941  0.1710  0.0314  0.1243
13613W        W31137  15.988   7.311   0.799  0.0281  0.3313 -0.0905
13614W        W31138   4.683  13.992   1.154  0.1848  0.0589 -0.0964
13615W        W31139  11.968   9.028  12.547 -0.1161 -0.0641 -0.0817
13616W        W31140   8.247   1.578   0.241 -0.1430  0.0610 -0.2094
13617W        W31141  12.688  13.217   2.846  0.0808  0.1741  0.2198
13618W        W31142   4.237  12.602  12.785  0.0967 -0.1670  0.1608
13619W        W31143   8.334  14.670  15.840 -0.0082 -0.0986  0.0118
13620W        W31144   2.531  11.419  12.685 -0.1379 -0.2467 -0.4733
13621W        W31145   9.112   3.741  15.201  0.2595 -0.0699  0.0507
13622W        W31146   0.417   9.535  11.647 -0.1275  0.0735  0.1498
13623W        W31147   5.521   6.019   5.387 -0.0487  0.0472 -0.3291
13624W        W31148  10.012   5.527   3.891 -0.0087  0.0130 -0.1309
13625W        W31149   3.975   1.960  13.044  0.0815  0.0305  0.2317
13626W        W31150   0.128  10.493  15.405 -0.0810  0.0889  0.0780
13627W        W31151   5.831   2.119   0.422 -0.1233 -0.0388  0.0211
13628W        W31152   2.871  13.483   0.872  0.0075 -0.1556 -0.0515
13629W        W31153   3.268  15.086   5.454  0.2237  0.1226  0.0901
13630W        W31154  15.951   7.696  13.563 -0.1227 -0.0890  0.2432
13631W        W31155  15.882  18.069  14.707  0.1793 -0.2567 -0.0769
13632W        W31156   0.051   7.910   2.073  0.0070 -0.3549  0.0954
13633W        W31157  16.389   0.078   2.139 -0.0392  0.4096 -0.2288
13634W        W31158  11.268   5.164  12.289  0.2713 -0.1121 -0.1298
13635W        W31159   6.579   2.996  11.188  0.0362  0.1212 -0.3643
13636W        W31160   9.318   8.155  12.466  0.1601 -0.0041  0.1037
13637W        W31161  15.479  18.371   0.370 -0.3015 -0.1078  0.0423
13638W        W31162   8.354   5.638  10.689 -0.1761 -0.1182  0.0899
13639W        W31163  10.525   7.415  15.704 -0.2089  0.2165  0.4843
13640W        W31164   6.930   5.627   2.405 -0.1737 -0.0224  0.1851
13641W        W31165  11.771  12.149   3.658 -0.2270 -0.2222 -0.0970
13642W        W31166   4.959  17.049   4.431  0.0300 -0.2263 -0.1754
13643W        W31167   9.805  13.605   4.673  0.3044 -0.0846  0.0748
13644W        W31168  17.007   6.122  11.175  0.0581  0.1530 -0.0609
13645W        W31169   2.726   8.844  12.896  0.0230  0.3459  0.1451
13646W        W31170   5.904   3.471  13.075 -0.0738 -0.4204  0.0729
13647W        W31171  17.714   7.138   2.186  0.3006  0.0425  0.2307
13648W        W31172  14.886   0.302   4.749 -0.0426  0.0964 -0.4928
13649W        W31173   9.288   8.700  14.311 -0.2859  0.1834 -0.1038
13650W        W31174  16.630   6.442  11.066  0.2583 -0.2838 -0.0917
13651W        W31175  10.681  14.417   2.776 -0.1309 -0.0253  0.0037
13652W        W31176  16.340   3.930   3.787 -0.2213  0.0766  0.0119
13653W        W31177   3.395   0.776   1.981  0.4573 -0.1024  0.2309
13654W        W31178   5.625   3.410  13.549  0.1556 -0.1578 -0.0735
13655W        W31179  10.046   7.741  13.877  0.1677  0.1189  0.1034
13656W        W31180  13.286  12.398   1.489 -0.0992 -0.1957  0.2191
13657W        W31181   1.082   4.476  10.830  0.0724 -0.1676  0.3345
13658W        W31182   4.141  12.246  14.617  0.0783  0.0264 -0.2137
13659W        W31183  18.389   5.350   3.970  0.2853 -0.0524  0.2411
13660W        W31184   6.890  11.117   0.721 -0.0656 -0.2658 -0.3118
13661W        W31185  15.481  13.032  12.248 -0.0414  0.0750  0.2543
13662W        W31186  18.402   9.127  13.900  0.1170 -0.2355 -0.3167
13663W        W31187   1.504   5.594  14.842 -0.1787 -0.0630  0.1583
13664W        W31188  17.692  13.220  13.056  0.1135  0.1170 -0.0467
13665W        W31189   8.110  16.751   2.416  0.2783 -0.1345 -0.1862
13666W        W31190   3.685  14.039   0.415 -0.0534  0.2488 -0.1417
13667W        W31191   3.002  17.080   4.542 -0.0337  0.0337  0.2878
13668W        W31192  13.663  14.757   1.392  0.0955  0.2800 -0.2791
13669W        W31193  11.735  11.434   5.504 -0.1451 -0.0846 -0.0358
13670W        W31194  14.419   7.400  12.789  0.0957 -0.1062  0.4109
13671W        W31195   3.982  10.938   3.243 -0.1641 -0.0464  0.0621
13672W        W31196  15.393   9.209  11.146 -0.1244 -0.1745 -0.1242
13673W        W31197  14.192  10.759   3.277 -0.1533 -0.1341  0.1333
13674W        W31198   7.284   8.087   4.815  0.0059  0.0271  0.3706
13675W        W31199   9.236   1.053   5.081  0.1487 -0.1514  0.1164
13676W        W31200   2.723   3.255  11.997  0.0111  0.3996 -0.2508
13677W        W31201   6.118   1.009  15.490  0.0470 -0.0550  0.0682
13678W        W31202  15.910  15.072   4.587 -0.1292  0.1258 -0.3078
13679W        W31203   1.156  10.867  14.473 -0.2946  0.1759 -0.0342
13680W        W31204   3.320  12.777   2.709 -0.0240 -0.3301 -0.2824
13681W        W31205   9.393  16.075   0.566  0.2914  0.2888 -0.1312
13682W        W31206   4.081   7.915   3.339 -0.0312  0.4047  0.0846
13683W        W31207  11.839   8.092   0.215 -0.1462  0.2023  0.0621
13684W        W31208  17.820  16.651  12.661  0.4645  0.1783 -0.0042
13685W        W31209   1.268  11.238   4.295  0.1596 -0.0438  0.2025
13686W        W31210   7.943   8.897   5.072 -0.3046  0.1038 -0.0961
13687W        W31211  15.671   9.409  13.648  0.1759  0.2698 -0.1435
13688W        W31212  17.554   0.334   2.883  0.1139 -0.1574  0.1748
13689W        W31213  16.668   4.833   3.215  0.1154  0.0629  0.1161
13690W        W31214  17.165   6.547  10.959 -0.4305  0.2177 -0.2491
13691W        W31215   1.697  10.184  10.910  0.1971  0.2454 -0.0291
13692W        W31216  12.070  10.997   2.232 -0.3228  0.3073 -0.3273
13693W        W31217  10.792   6.138   2.974 -0.0885 -0.1245  0.1210
13694W        W31218   4.994  12.277   4.481  0.2939 -0.1646  0.0271
13695W        W31219  15.738   8.089  14.443  0.1476 -0.3106 -0.2282
13696W        W31220   1.421  15.778  12.615 -0.0827  0.0202  0.0167
13697W        W31221   8.442   3.412  11.364 -0.1387  0.2806  0.0722
13698W        W31222  15.279  13.728  11.504 -0.0641  0.0327 -0.1366
13699W        W31223   9.267  14.538   5.148  0.0033 -0.0352 -0.0574
13700W        W31224  15.833  11.582   3.302 -0.2183 -0.1511  0.0854
13701W        W31225   7.995   9.180   2.875  0.0036  0.0704  0.2522
13702W        W31226   1.440  15.082  13.401 -0.1151 -0.4023  0.2666
13703W        W31227   1.447   8.400  13.123  0.0593 -0.2992  0.1367
13704W        W31228  10.514   8.040   1.806 -0.0703  0.0840 -0.0314
13705W        W31229   3.759   4.679   2.604 -0.3711 -0.0838  0.0947
13706W        W31230  15.022   9.836   4.283  0.2679  0.3497 -0.0706
13707W        W31231  12.696  17.715   3.681  0.4495  0.0617  0.0701
13708W        W31232  13.317   8.359  12.467  0.1511 -0.2203 -0.1414
13709W        W31233  17.248  15.468  13.065 -0.0599 -0.1164  0.0287
13710W        W31234  10.969   8.265  15.764  0.2638 -0.0678 -0.1392
13711W        W31235  10.009  11.962  12.708  0.0383  0.3182  0.0637
13712W        W31236   4.359  16.781  15.033 -0.1591  0.0312  0.0957
13713W        W31237   6.362   1.491  13.469  0.0398  0.1335  0.1588
13714W        W31238  16.585  13.023  15.286 -0.0400  0.2148 -0.2080
13715W        W31239  11.584   0.732   2.310 -0.1496  0.1091 -0.0913
13716W        W31240  10.629  10.407  12.146  0.1162 -0.1653  0.1553
13717W        W31241   9.713  15.155  11.925 -0.0385  0.0394 -0.0248
13718W        W31242   7.745   4.391   1.723  0.0333  0.0092  0.0663
13719W        W31243   5.831   4.443  11.376 -0.1910 -0.2347  0.0620
13720W        W31244  14.271   2.100   2.351  0.1107 -0.0594  0.4480
13721W        W31245  12.440  18.349   4.247 -0.0871 -0.2266  0.2773
13722W        W31246   7.784   6.054  15.399 -0.0531  0.0275  0.1186
13723W        W31247   0.164   1.405  15.523 -0.4150  0.0067  0.1018
13724W        W31248  13.273   0.288   2.145  0.3202 -0.0739  0.1209
13725W        W31249   7.688   0.195   3.223 -0.1688  0.4968 -0.0806
13726W        W31250  16.374   9.453  14.400  0.1172 -0.1628 -0.0931
13727W        W31251   9.635   7.761  14.179 -0.1293  0.0012  0.1950
13728W        W31252   4.061  18.220   0.953 -0.1947 -0.3020  0.1090
13729W        W31253  15.028   1.597  15.421 -0.0777 -0.0848  0.0453
13730W        W31254  17.701   9.121   2.092  0.1089 -0.1849 -0.0697
13731W        W31255  11.276   1.153   3.244 -0.3728 -0.0202  0.0458
13732W        W31256   4.736   8.603   2.696  0.0111 -0.2682 -0.1531
13733W        W31257   1.473  13.710   3.203 -0.0939 -0.2378  0.2617
13734W        W31258  17.819   4.538  11.800  0.0271  0.4794  0.0092
13735W        W31259  15.730  17.547  12.740 -0.2754 -0.0435  0.1629
13736W        W31260  16.470  15.757  12.747  0.2563 -0.1286 -0.0358
13737W        W31261   8.675   1.859   1.005  0.1874  0.0503  0.1394
13738W        W31262   3.846   8.013  15.379 -0.0261 -0.1601 -0.2101
13739W        W31263   8.413   4.196  15.151  0.0204  0.2642 -0.1117
13740W        W31264  14.695  16.048  13.693 -0.1205  0.1126 -0.2458
13741W        W31265   9.413  14.703  13.188 -0.0529  0.4184  0.0675
13742W        W31266  13.157   7.133   0.262  0.1363  0.0541 -0.1275
13743W        W31267   0.281   8.961  13.052  0.1673  0.2197  0.0623
13744W        W31268   2.498  18.065  13.468 -0.0792 -0.0174 -0.0307
13745W        W31269   5.432  14.007  14.412 -0.0138 -0.2069 -0.0025
13746W        W31270  14.481  16.981  14.833 -0.0496  0.0227  0.0121
13747W        W31271   2.500  16.570  15.823  0.1165 -0.3807 -0.0081
13748W        W31272  12.512   4.903  11.659  0.0427 -0.1742 -0.2280
13749W        W31273  13.234   4.393   4.355  0.2119 -0.2259  0.0700
13750W        W31274   1.797  16.558  15.379 -0.1269  0.1901 -0.1913
13751W        W31275   6.491   1.045  13.728 -0.1409  0.0688 -0.0701
13752W        W31276   8.452   2.741   5.539  0.3750 -0.1730  0.0339
13753W        W31277  13.766   0.266  13.427  0.0116  0.2743  0.2889
13754W        W31278   9.752   7.453  15.162  0.4351 -0.0062 -0.1786
13755W        W31279   2.694   1.798   2.384  0.0586 -0.1190 -0.2647
13756W        W31280   1.720   8.214   0.703  0.0668  0.0023  0.0444
13757W        W31281  13.862  11.937  12.791  0.1942 -0.1517  0.0484
13758W        W31282   2.571   9.689  12.858  0.0235 -0.1014 -0.1628
13759W        W31283  16.686   3.095  15.331 -0.0431  0.0697 -0.1262
13760W        W31284  11.238  10.473  12.045  0.1589 -0.3362 -0.1063
13761W        W31285   9.998   8.035   4.073  0.0159  0.1727  0.2146
13762W        W31286  13.631   5.913   1.562  0.1477 -0.1057 -0.3071
13763W        W31287   1.053  14.878  13.348  0.2628 -0.3180 -0.2136
13764W        W31288  11.216   1.076   2.176 -0.0457 -0.0345  0.1881
13765W        W31289   7.230   6.000  11.133 -0.3347 -0.2214 -0.1787
13766W        W31290  14.239   5.770   1.046  0.2503  0.1406 -0.5388
13767W        W31291   8.544  11.200  11.732 -0.1993 -0.0382  0.2637
13768W        W31292   0.410  13.590  13.404  0.0108 -0.1722  0.0866
13769W        W31293  17.124  10.667  14.415  0.4457  0.1095 -0.1034
13770W        W31294  17.454  16.108   4.613 -0.3338 -0.1792 -0.0733
13771W        W31295   2.948  10.193  15.677  0.2546  0.1265  0.2027
13772W        W31296  11.929   2.689  11.997 -0.1403 -0.0726  0.1839
13773W        W31297   3.189  10.501  11.648  0.0761  0.1930  0.1049
13774W        W31298  15.541   3.320   3.399  0.0079 -0.1653  0.1567
13775W        W31299   1.950  14.776   4.153 -0.2666 -0.1100  0.3045
13776W        W31300   6.772  11.899   1.294  0.0485  0.3986 -0.2349
13777W        W31301   6.796  11.699  13.815 -0.1342  0.1974  0.4666
13778W        W31302   0.574  16.660  15.768 -0.1015 -0.0993 -0.0181
13779W        W31303   6.209   6.947  14.376 -0.1374 -0.4692 -0.0856
13780W        W31304   1.675   7.908  13.130  0.0038 -0.1832 -0.0649
13781W        W31305  12.203   8.682  14.544 -0.1722 -0.0272  0.1336
13782W        W31306   8.854  11.613   2.133  0.1360  0.1236  0.0888
13783W        W31307   5.132   4.806   2.961 -0.4185 -0.3055 -0.0067
13784W        W31308   5.177   7.484  14.864 -0.0520 -0.1074  0.1844
13785W        W31309   3.439  15.251  13.080 -0.2182 -0.0495  0.0266
13786W        W31310   6.827   2.921  10.708 -0.2160  0.0756 -0.0611
13787W        W31311   9.360  10.887  11.207  0.1067 -0.3904  0.0638
13788W        W31312   8.257   8.854  15.662 -0.2350  0.0722  0.0421
13789W        W31313  10.151  11.226  14.867 -0.2788  0.1501 -0.0459
13790W        W31314   1.878  12.387   1.004 -0.0377 -0.3354  0.0927
13791W        W31315   4.271   1.869   4.513 -0.1454  0.0683 -0.1654
13792W        W31316  12.615   0.716   4.712  0.1152 -0.1800  0.1113
13793W        W31317   7.512   2.300  15.513  0.2763  0.1801  0.0233
13794W        W31318  16.352  17.827   1.391 -0.1008  0.1891  0.0893
13795W        W31319  12.628  18.014  11.219 -0.4088 -0.0470  0.1336
13796W        W31320   2.416  15.511   0.050  0.2693  0.0540  0.3081
13797W        W31321   7.867   6.439  15.061 -0.0760 -0.0299 -0.0615
13798W        W31322   5.697  17.961  13.408  0.1763  0.2410  0.0394
13799W        W31323  11.020   2.561  12.936  0.0608  0.0712 -0.1434
13800W        W31324   9.679   4.623   1.280 -0.1548  0.2153  0.1759
13801W        W31325   5.160   9.516  13.039  0.0386 -0.0553 -0.0558
13802W        W31326   4.074  16.730  13.636 -0.0375  0.0996  0.0088
13803W        W31327   4.224   9.445   1.947 -0.0893  0.0234 -0.0577
13804W        W31328  15.263   1.984  14.082 -0.0088  0.0200 -0.2529
13805W        W31329   6.365  12.834   0.803 -0.5001 -0.2855  0.2581
13806W        W31330   5.592   8.125  10.018  0.0413 -0.0808  0.0966
13807W        W31331  16.413  12.104   3.773  0.2758  0.2860  0.0559
13808W        W31332   6.973  17.587   1.508  0.1669  0.1586 -0.2685
13809W        W31333   8.603  10.269   3.994 -0.2393 -0.0633 -0.1363
13810W        W31334  17.937   8.364  15.346 -0.2926 -0.0938  0.1694
13811W        W31335   4.441   1.115  14.691 -0.0237  0.1933 -0.2206
13812W        W31336   5.829   3.205  12.105  0.2364  0.0862 -0.0868
13813W        W31337   5.422   6.138  13.642  0.0380  0.0135 -0.1142
13814W        W31338   0.400   4.462   1.813 -0.1827  0.0533 -0.2051
13815W        W31339  18.148   5.441  12.669  0.2391 -0.0453  0.0188
13816W        W31340   3.420   5.238  11.290  0.0414 -0.1053 -0.0426
13817W        W31341   3.391  10.106  11.917  0.0128 -0.0406 -0.0472
13818W        W31342   9.644  17.199   4.851 -0.0496  0.5738  0.2764
13819W        W31343  15.652  17.479  10.547 -0.4735  0.2184  0.1889
13820W        W31344  10.258  17.234   2.263  0.0712 -0.1511  0.1336
13821W        W31345   6.598  13.552  13.702  0.2629 -0.0497 -0.2545
13822W        W31346   0.754   2.642  11.626  0.0623 -0.2742  0.1444
13823W        W31347   9.574  15.467   4.933  0.1844  0.1038  0.2075
13824W        W31348  16.096   4.633  12.348  0.0409 -0.2215  0.1392
13825W        W31349  16.225   1.089  14.500  0.1101  0.1897  0.0592
13826W        W31350   4.437   6.804  11.890 -0.0971  0.2323  0.1771
13827W        W31351  10.356   5.370   3.057 -0.2374 -0.0653 -0.0047
13828W        W31352   2.383   1.671  11.424  0.1632  0.1363  0.2742
13829W        W31353   2.043  14.486  15.154  0.2015  0.2055  0.4390
13830W        W31354  17.090  16.727  15.051 -0.0901 -0.1402 -0.1564
13831W        W31355  13.246  15.683  13.488 -0.1323  0.0157 -0.1315
13832W        W31356  15.904   5.094   5.200 -0.0243  0.0503  0.0433
13833W        W31357   5.850   5.282  13.643 -0.0714 -0.0892  0.1677
13834W        W31358   7.218  14.340   3.289 -0.1671 -0.2411  0.0220
13835W        W31359  17.857   6.752  15.569  0.2893  0.0993  0.4708
13836W        W31360  11.445  16.147  13.571 -0.0062  0.2506 -0.2576
13837W        W31361   6.620  14.265   2.558  0.2328 -0.2168 -0.0082
13838W        W31362   0.031   9.914  15.500 -0.0703 -0.1174  0.0023
13839W        W31363   7.202   5.521   1.881  0.0102  0.1418  0.1061
13840W        W31364  11.173  15.723   3.271 -0.3502  0.1515  0.3532
13841W        W31365   3.131  14.298  15.268 -0.1736  0.2237 -0.0559
13842W        W31366   4.288   9.696   0.439  0.1558 -0.1973 -0.2295
13843W        W31367   6.682   6.986   0.397 -0.0975 -0.0741  0.1096
13844W        W31368  13.985   8.133   2.430 -0.0912  0.0044 -0.0239
13845W        W31369  16.943   4.689   0.908 -0.0620 -0.0763  0.1473
13846W        W31370  14.275  12.901   3.361  0.0940 -0.1247 -0.2915
13847W        W31371   1.240   5.193   3.257  0.2562 -0.2411 -0.1254
13848W        W31372   9.339  10.200   4.767 -0.1754  0.3039 -0.1887
13849W        W31373  12.489  11.608  11.756 -0.0667  0.0381 -0.2746
13850W        W31374  17.240   1.274  14.006 -0.3906 -0.4022  0.0325
13851W        W31375   3.387  11.951   3.944 -0.0412  0.1873  0.1343
13852W        W31376  11.689   1.837   3.391 -0.1643  0.2452 -0.1768
13853W        W31377   6.259   0.776  10.133 -0.1897  0.0414  0.0767
13854W        W31378   9.710   3.548  12.864 -0.1559  0.0152 -0.2213
13855W        W31379   3.364  16.220   2.726  0.0353 -0.0250 -0.2958
13856W        W31380   1.403  12.022   0.240 -0.0207 -0.0980 -0.0531
13857W        W31381   7.392   1.949   3.494 -0.1933  0.0172  0.1169
13858W        W31382  13.376  16.630  12.808  0.3076 -0.0724  0.2648
13859W        W31383   8.255  10.254  10.725 -0.2419  0.3086 -0.1004
13860W        W31384   3.797  15.146  14.290  0.1439 -0.1087 -0.1215
13861W        W31385   1.427   7.277  12.747 -0.0016  0.0152 -0.1572
13862W        W31386   7.695   5.908   4.444  0.1425  0.3813 -0.0307
13863W        W31387  13.187  16.090   2.706  0.1775 -0.1518  0.1430
13864W        W31388   6.188  16.853   0.893 -0.1033  0.0736 -0.1553
13865W        W31389   4.545  16.807  13.788  0.0878  0.3211  0.0409
13866W        W31390   1.479   6.508  11.308 -0.0607 -0.1104  0.3063
13867W        W31391  11.419   9.897  15.420 -0.1786 -0.0452  0.3922
13868W        W31392   4.838  10.681   2.347  0.0900 -0.1580 -0.2294
13869W        W31393   7.923   4.899   4.684 -0.0804  0.0666 -0.0054
13870W        W31394  11.095  14.637   2.529  0.0246 -0.2584 -0.1429
13871W        W31395  11.949   7.011   1.520  0.1769  0.3136  0.1387
13872W        W31396   1.567   6.062   0.417 -0.0227  0.1578 -0.0124
13873W        W31397  11.784   2.324  12.902 -0.1296 -0.2460 -0.2033
13874W        W31398  13.845   9.379   2.838 -0.0301  0.1308  0.1033
13875W        W31399   4.574   4.830  14.330  0.5380  0.1715 -0.0297
13876W        W31400  15.898  11.317  11.831  0.3416 -0.0640  0.2345
13877W        W31401   0.501   5.943  10.821 -0.0909  0.0278  0.0062
13878W        W31402  13.051  13.665  15.325 -0.2393  0.0072  0.0374
13879W        W31403   6.577  11.185  12.228  0.0109  0.2316  0.0200
13880W        W31404   7.975   3.424  11.360  0.1923 -0.0912  0.0739
13881W        W31405  13.303   1.399  13.327 -0.0576 -0.2185  0.0602
13882W        W31406  17.736   9.392  14.230  0.0902 -0.4459  0.2274
13883W        W31407  11.038   8.139   4.360 -0.0630 -0.2665 -0.0408
13884W        W31408   2.248  17.407  10.807 -0.2567 -0.3053 -0.0396
13885W        W31409  10.538  15.962   3.755 -0.1739  0.3121 -0.0100
13886W        W31410   2.835  14.862  13.675 -0.4017  0.1978  0.0012
13887W        W31411   7.108   9.476  12.965  0.1125 -0.2235 -0.0390
13888W        W31412  16.796   8.185   4.858  0.0918  0.2552 -0.2010
13889W        W31413  16.464  11.286   0.930  0.0667  0.2039 -0.2982
13890W        W31414  13.947   2.806   2.264 -0.1537 -0.3778  0.0010
13891W        W31415  17.255  12.541  11.177  0.3968 -0.0441 -0.2852
13892W        W31416  11.162  14.150  13.187  0.1263 -0.1549 -0.0183
13893W        W31417  16.822   5.488   0.306  0.2773 -0.2356  0.1000
13894W        W31418   9.363   1.004  15.045  0.1197  0.0882  0.3035
13895W        W31419   8.963  12.945   2.314 -0.1248 -0.1552  0.0051
13896W        W31420   8.356   7.176   4.610  0.2287 -0.3956  0.0193
13897W        W31421   5.121   8.359  14.620 -0.0395 -0.0445  0.1215
13898W        W31422  14.493  15.863  12.752 -0.2885 -0.5766 -0.0363
13899W        W31423   4.357   1.945  15.314 -0.1656 -0.1205  0.0008
13900W        W31424   6.963   8.451  11.101  0.2342 -0.0145 -0.1150
13901W        W31425   1.320  13.942  15.366  0.0028  0.3467  0.0669
13902W        W31426   7.109   0.922   1.142  0.0201  0.0590 -0.1758
13903W        W31427   7.140  11.405   4.842 -0.1670 -0.1208  0.1104
13904W        W31428  11.042   5.518  14.198  0.3460 -0.1343 -0.0501
13905W        W31429  16.606  16.617   0.813 -0.0137 -0.1516  0.1609
13906W        W31430   9.465  10.887  14.032  0.1139 -0.0329 -0.1169
13907W        W31431  10.528   2.181  14.699 -0.0262 -0.0188 -0.2583
13908W        W31432   1.528  16.069  13.093  0.0749  0.0313  0.1476
13909W        W31433  11.397  11.546   1.278  0.4822 -0.0372  0.3146
13910W        W31434  17.062   0.996   2.793 -0.0281  0.1131  0.1595
13911W        W31435   8.606  10.610   0.286  0.1607 -0.0692 -0.1777
13912W        W31436  13.945  13.701  12.988 -0.1473 -0.0621 -0.2862
13913W        W31437  15.825   3.430  15.184 -0.0157 -0.2009 -0.1856
13914W        W31438   6.231  13.562   4.464  0.0041 -0.0617 -0.1541
13915W        W31439  15.288   0.489  12.332 -0.0729 -0.0956  0.0222
13916W        W31440  17.976  16.243   0.691  0.3172  0.1711  0.1127
13917W        W31441  15.823   6.934   2.079 -0.0437 -0.1930  0.1445
13918W        W31442   4.757   7.130  14.120 -0.0218  0.1111 -0.1872
13919W        W31443  12.528   0.452  13.951 -0.0143 -0.0027 -0.1056
13920W        W31444   1.949   2.051  14.145 -0.1335 -0.3151  0.1025
13921W        W31445  14.484   7.521   0.045  0.0480  0.2199  0.0493
13922W        W31446   2.109  10.738   2.801  0.1494  0.0565  0.0022
13923W        W31447   9.007   7.386   0.805 -0.4728  0.0384 -0.0761
13924W        W31448   3.887   4.860   1.304 -0.3280 -0.2893  0.2074
13925W        W31449  15.471  11.371   0.961  0.0463 -0.1709  0.0481
13926W        W31450   1.939  18.122   5.606 -0.0273  0.0246 -0.2537
13927W        W31451   1.984   6.992   0.946 -0.0453  0.0443 -0.1177
13928W        W31452  11.565  12.571  12.289 -0.1804  0.0144  0.3025
13929W        W31453   3.654  14.606   1.300  0.1139  0.2220  0.1245
13930W        W31454   8.385  15.278  13.317 -0.0822 -0.2291  0.0363
13931W        W31455   0.053  17.812   0.719  0.0858  0.0189  0.0216
13932W        W31456   2.100  12.002  14.046  0.1194 -0.1907 -0.1019
13933W        W31457   1.812   8.402   4.249  0.2041  0.1266 -0.0766
13934W        W31458   8.024  17.015  15.639 -0.2795  0.2172 -0.1510
13935W        W31459   2.866   4.775   0.958 -0.0335  0.1388  0.0442
13936W        W31460  14.501  13.355  12.954  0.2911  0.0905  0.2311
13937W        W31461   9.500   1.065   1.385  0.2173 -0.0597 -0.2991
13938W        W31462   0.226   0.409   0.081 -0.2050  0.0797  0.1535
13939W        W31463  17.361  13.783   2.859 -0.0464 -0.1040  0.2390
13940W        W31464  10.713  17.477   2.242 -0.0050  0.1180 -0.1477
13941W        W31465  10.472  10.712  13.457 -0.0890  0.1373  0.1251
13942W        W31466  11.717   0.981  11.100 -0.1889  0.2349 -0.0964
13943W        W31467   7.501   0.830   3.878 -0.1095  0.0759  0.0585
13944W        W31468  13.591  17.090   6.193 -0.3783  0.1999 -0.1710
13945W        W31469  16.952   4.484  11.207  0.3183  0.1201 -0.2538
13946W        W31470  18.030   1.974   0.084  0.0030  0.1543  0.1832
13947W        W31471  16.543  16.055   3.619 -0.0494 -0.0699  0.0060
13948W        W31472  12.279  10.679   3.199  0.2674  0.1273 -0.5079
13949W        W31473   2.972  11.699  14.474  0.2093 -0.0539  0.2216
13950W        W31474   5.929   3.301   3.062  0.1378 -0.0417  0.0031
13951W        W31475  10.827  15.222   4.336 -0.1974 -0.1148 -0.2251
13952W        W31476   0.922   4.481  15.740  0.2795 -0.3107 -0.2903
13953W        W31477  15.493  12.645  12.564 -0.0285  0.1973 -0.5111
13954W        W31478   2.589   7.683   3.797 -0.0364 -0.1740  0.3554
13955W        W31479  11.391   9.227   3.702  0.3487  0.1747 -0.1253
13956W        W31480  17.493   8.359   2.578 -0.0213 -0.1885 -0.0350
13957W        W31481  15.662  17.812  11.739 -0.0395 -0.0432  0.1570
13958W        W31482   2.732  11.309   0.490 -0.0862  0.1949 -0.2060
13959W        W31483  18.000  10.273  15.499  0.0668 -0.0503 -0.2779
13960W        W31484   1.925   5.092   2.288  0.1383 -0.1501  0.2231
13961W        W31485  16.337   6.125  12.856  0.1416 -0.1297  0.1398
13962W        W31486   2.028   7.826   1.051  0.0111 -0.0122 -0.0675
13963W        W31487   3.217  13.350  13.611 -0.0100 -0.2001 -0.0907
13964W        W31488   3.284   8.026  12.899  0.1762  0.2003 -0.3254
13965W        W31489  15.726   2.954  13.423 -0.0503 -0.1859 -0.1507
13966W        W31490   2.494  11.527  15.629  0.0272 -0.1283 -0.2240
13967W        W31491   2.323  12.547  11.697 -0.0641 -0.0287  0.0077
13968W        W31492   5.386  12.026   4.302  0.0265  0.1492 -0.3603
13969W        W31493  11.131   3.129   4.621  0.3605  0.1640  0.1009
13970W        W31494   7.626   3.816  11.341  0.1202 -0.1905  0.2433
13971W        W31495  12.170  14.002  13.349  0.5986  0.1902  0.0942
13972W        W31496   0.565  12.911   3.669  0.3743 -0.2001  0.1407
13973W        W31497  17.377   3.685  15.202 -0.2257  0.0350 -0.0945
13974W        W31498  10.130   3.120   1.933  0.0103 -0.0019  0.1090
13975W        W31499  14.739   8.300   2.752 -0.0939 -0.0393  0.0852
13976W        W31500   4.271   1.088   2.322  0.2691 -0.1792  0.2560
13977W        W31501  11.876  11.162  12.592 -0.2790 -0.1147 -0.2247
13978W        W31502   7.100   9.859  15.197  0.2216 -0.0768  0.0277
13979W        W31503   1.772  15.016   3.639  0.0640  0.0278  0.1048
13980W        W31504  13.422   9.500  14.559  0.4379  0.0083 -0.1832
13981W        W31505   3.981  13.170   3.757  0.2765  0.1717  0.0738
13982W        W31506   0.271   5.735   1.570  0.0613 -0.1801 -0.3075
13983W        W31507   8.525   8.704  13.992  0.0528 -0.2444  0.4317
13984W        W31508   9.793  12.434  14.600  0.1315  0.1505 -0.0090
13985W        W31509   1.883  13.894   1.650  0.1004 -0.1246 -0.2468
13986W        W31510   0.519  11.607  14.105  0.2685  0.3988  0.0940
13987W        W31511   3.102   0.318  12.670  0.0383  0.1035 -0.0855
13988W        W31512  14.992   9.971  12.532  0.0641 -0.1922 -0.0912
13989W        W31513   9.167  15.235   2.901  0.2062  0.0130  0.1434
13990W        W31514  17.660   9.960  15.331 -0.3181  0.2762  0.2366
13991W        W31515   0.496   9.261  12.771 -0.1104  0.1214 -0.2923
13992W        W31516   0.393  16.520   0.344 -0.1571  0.0008  0.0925
13993W        W31517  10.835  13.822  12.885 -0.0856 -0.1140 -0.2556
13994W        W31518  10.908  13.910   4.247 -0.2713  0.2189  0.0658
13995W        W31519   7.261   9.111  13.633 -0.1443 -0.1558 -0.0119
13996W        W31520   4.673  13.857   2.859 -0.2486  0.0197  0.4214
13997W        W31521   4.143   3.361   3.491 -0.0681  0.1696  0.1445
13998W        W31522   0.471  15.854  12.577  0.0607 -0.0754 -0.0989
13999W        W31523  17.294   8.747  11.069  0.0600 -0.0052 -0.3085
14000W        W31524  16.800  12.156  13.051  0.0377 -0.0502  0.0742
14001W        W31525  18.385  11.858  14.676 -0.1378  0.0782 -0.1323
14002W        W31526  16.483   9.081  12.677 -0.2668 -0.1233 -0.0810
14003W        W31527  15.874   3.044   1.028 -0.2169 -0.1055  0.1377
14004W        W31528   4.048   3.549   2.447 -0.0678  0.2941 -0.0876
14005W        W31529  15.100   7.373   2.380 -0.2985 -0.0702  0.1147
14006W        W31530  10.274   9.765  11.544 -0.1332 -0.2493 -0.1707
14007W        W31531  11.276   3.586  15.411 -0.2423  0.1442  0.1484
14008W        W31532   0.137   5.396  13.434 -0.0325  0.0044  0.0797
14009W        W31533  15.529   5.334   2.304  0.0071 -0.0599 -0.3151
14010W        W31534  10.332   7.761  12.184 -0.0096  0.3432 -0.0216
14011W        W31535   6.791  17.629  10.853 -0.2138  0.3325  0.1100
14012W        W31536   0.091   0.910  15.709 -0.0397  0.0217  0.2216
14013W        W31537  11.880   5.631   0.143 -0.2276  0.3302 -0.0819
14014W        W31538  17.654  12.006  11.887  0.2405  0.3328 -0.1109
14015W        W31539   6.304  15.400   5.612 -0.1120 -0.0507  0.0495
14016W        W31540   3.591   6.395   3.630 -0.2670  0.3869  0.1489
14017W        W31541   7.678   5.694   3.466 -0.1178  0.4312 -0.0081
14018W        W31542   1.358  12.924   4.194  0.1836 -0.0803 -0.2910
14019W        W31543  10.897  13.430  12.024 -0.1652 -0.0646 -0.0169
14020W        W31544  15.708   2.325   5.132  0.0802  0.1112 -0.0409
14021W        W31545  13.544   4.785   4.499 -0.0200  0.0473  0.0829
14022W        W31546   0.875   2.068   0.125  0.2112 -0.2382 -0.0685
14023W        W31547   3.487  14.195   2.284 -0.2304 -0.0573 -0.1374
14024W        W31548   8.270   3.554   5.008  0.0520 -0.0469 -0.1604
14025W        W31549   1.118   4.648   1.564 -0.1456 -0.2280  0.2112
14026W        W31550   1.845  11.998  14.509 -0.2348  0.1401 -0.2053
14027W        W31551  11.262   4.670  12.688  0.0949  0.0376  0.0434
14028W        W31552  17.635  11.986   2.193  0.3139 -0.1002 -0.3429
14029W        W31553   4.488   8.745   0.164  0.0888 -0.0862  0.0474
14030W        W31554  11.387  16.314   4.011  0.0842  0.0209  0.0992
14031W        W31555   4.532  17.433  12.257  0.1832 -0.0141 -0.3282
14032W        W31556  13.672  10.145  10.853  0.1195 -0.2402  0.1158
14033W        W31557   4.498   2.117   0.956  0.0296  0.0037  0.2645
14034W        W31558  15.221  16.982  13.755 -0.0692 -0.0602  0.4049
14035W        W31559   5.563   7.956  12.934  0.1985  0.0031  0.1112
14036W        W31560  10.223   5.673  13.664 -0.1019  0.1244  0.0127
14037W        W31561   4.371   0.184  13.229  0.1092 -0.0478  0.0925
14038W        W31562  14.462   7.042  14.941 -0.4262  0.0823  0.2537
14039W        W31563   3.830  16.826   2.270 -0.0774  0.2801  0.1758
14040W        W31564   3.773   4.082   4.911  0.0749 -0.0136 -0.1713
14041W        W31565  15.233  18.238   1.859 -0.1881  0.0710  0.2612
14042W        W31566  16.927  15.123  14.007 -0.1211 -0.0326 -0.1577
14043W        W31567  12.883  16.114   0.161 -0.1233  0.3311 -0.2390
14044W        W31568   5.739   2.874   1.915  0.3438  0.2672 -0.1969
14045W        W31569  15.688   8.887   1.048 -0.2585 -0.0307 -0.4264
14046W        W31570  14.848   1.324  15.822 -0.1502 -0.1363  0.3408
14047W        W31571   1.294   9.353  13.650 -0.1286  0.2209 -0.0118
14048W        W31572  15.877   6.875   3.072  0.0284  0.0598  0.0023
14049W        W31573   9.086   5.552  13.062 -0.1111 -0.1539  0.2205
14050W        W31574   0.019   0.150   3.565  0.2283  0.1324  0.1222
14051W        W31575  10.179   7.268  12.221 -0.1508 -0.0601  0.3656
14052W        W31576  11.795   1.304  13.338 -0.1069  0.0044 -0.1323
14053W        W31577  11.641  13.865   1.915 -0.0599 -0.1145  0.1720
14054W        W31578  17.591   9.868   4.803  0.3240  0.0016 -0.1302
14055W        W31579   7.066  10.484   3.124 -0.2371  0.0690  0.2321
14056W        W31580  12.521   8.481   0.824  0.1475 -0.1559  0.3442
14057W        W31581   5.522   4.541   0.691 -0.2106 -0.1328  0.3154
14058W        W31582  12.777   4.255   3.011  0.2969 -0.0678 -0.1370
14059W        W31583  16.085   4.009  15.756  0.0380  0.0765 -0.0922
14060W        W31584   4.031   0.766   1.281 -0.0087 -0.2949  0.5034
14061W        W31585   2.668  13.890   2.032  0.0019  0.1673 -0.0521
14062W        W31586   6.753  13.625   5.309 -0.0913 -0.1643  0.1938
14063W        W31587   2.236  17.931  10.743 -0.0156  0.2665  0.1208
14064W        W31588   0.854   9.409  11.840 -0.0074  0.0407  0.1270
14065W        W31589  12.222  13.136  13.879 -0.0367  0.2719  0.1800
14066W        W31590   8.792   7.375  12.970  0.1798  0.0898  0.5492
14067W        W31591   1.992  11.612   4.114 -0.0848  0.2199 -0.1058
14068W        W31592   5.851   9.542   2.342  0.2056 -0.0402 -0.5246
14069W        W31593   9.022   2.233  11.128  0.0387 -0.0085 -0.0229
14070W        W31594  11.941   9.980  11.382  0.0313 -0.0830  0.0696
14071W        W31595  14.481   4.995   3.994 -0.1133  0.3769  0.2567
14072W        W31596  10.533   5.572  13.250 -0.0033  0.1611  0.2225
14073W        W31597   5.742   2.676   0.390 -0.1480 -0.1897  0.3877
14074W        W31598   7.334  15.524   1.150 -0.1034  0.4622 -0.1674
14075W        W31599  15.138   0.147  13.661 -0.1252  0.0030  0.5627
14076W        W31600   2.624   1.209  15.244 -0.0714 -0.0914  0.1109
14077W        W31601  13.351  11.546   0.425  0.1604 -0.0045  0.2135
14078W        W31602  15.303   7.616  12.321  0.1013  0.2200 -0.0797
14079W        W31603   8.365   3.343   2.248  0.0899 -0.0877 -0.2572
14080W        W31604  15.480   4.311   3.042 -0.0511  0.0087  0.0132
14081W        W31605  17.872   2.862  12.402  0.1476  0.0186 -0.2371
14082W        W31606  14.886  14.716  11.429  0.1272 -0.2964  0.1541
14083W        W31607  12.247   3.328  13.171  0.2331  0.3156  0.0530
14084W        W31608  11.279  15.787  12.705 -0.0356  0.2409 -0.1935
14085W        W31609   4.430  12.053  12.919 -0.1302  0.1235 -0.3540
14086W        W31610  10.257  12.571  15.683 -0.2545 -0.1410  0.1524
14087W        W31611  10.594   0.031  12.613  0.4401 -0.0807 -0.1985
14088W        W31612  14.817  14.701  12.951 -0.0008  0.2148  0.0894
14089W        W31613   3.488  11.095   3.149  0.0397  0.3421 -0.2340
14090W        W31614   4.233  16.827  15.591  0.3012  0.0640 -0.0784
14091W        W31615  12.145  14.049   2.755  0.2747 -0.1697 -0.0513
14092W        W31616  10.869  11.257  14.216  0.0328  0.0146 -0.2241
14093W        W31617  17.669   8.414  14.764  0.2571  0.0692 -0.1133
14094W        W31618  10.624  18.218  13.473 -0.1666  0.3143  0.2577
14095W        W31619   2.822   0.973  14.046 -0.0256  0.5007  0.1062
14096W        W31620  10.784  17.164   0.188  0.3989  0.0695  0.2580
14097W        W31621   4.946  10.246  11.032 -0.3513 -0.0286  0.0291
14098W        W31622  15.050   3.241   3.466  0.2237 -0.2952 -0.2241
14099W        W31623  12.423   5.372   2.065  0.2904 -0.0465 -0.0158
14100W        W31624  12.893   9.272   1.780 -0.0586 -0.2127 -0.1125
14101W        W31625  13.323  15.083  14.326 -0.0151  0.1325 -0.0251
14102W        W31626   2.471   4.937   3.961 -0.2589 -0.0717 -0.1182
14103W        W31627   2.708   0.111  13.502 -0.0837 -0.0660  0.0944
14104W        W31628   2.014  13.841  12.155  0.0031  0.0375 -0.0564
14105W        W31629   4.626   2.051   2.356  0.1286  0.2854  0.1527
14106W        W31630  14.684  16.869  12.164  0.1051 -0.0176 -0.0391
14107W        W31631   8.895  16.504  14.234 -0.2502  0.1629  0.0242
14108W        W31632   2.454   5.810   1.235  0.0727  0.2047  0.1419
14109W        W31633  16.453  11.654  15.387  0.2570 -0.0020  0.0516
14110W        W31634  11.028  15.775  15.289  0.2943 -0.2624  0.0422
14111W        W31635   5.172  13.913   4.634  0.0148 -0.0443  0.2857
14112W        W31636   1.102  11.617  10.729 -0.2374  0.0321  0.1463
14113W        W31637  12.152  15.073   0.553 -0.4325 -0.0789 -0.2144
14114W        W31638   5.638   9.466  12.558 -0.0892  0.4921  0.1270
14115W        W31639  12.941  12.904   3.124 -0.1275  0.4589 -0.3506
14116W        W31640  13.380  11.369   1.719 -0.2879 -0.0341  0.0867
14117W        W31641  12.087   4.102  11.553  0.0645 -0.2014  0.0319
14118W        W31642   4.055  12.902  13.813  0.0599 -0.0103 -0.1067
14119W        W31643   3.272   1.913  14.055 -0.2239 -0.0325 -0.1449
14120W        W31644  12.707  14.370  14.532 -0.1591 -0.2584  0.1632
14121W        W31645   7.453   2.106  13.673 -0.0027 -0.0991 -0.2309
14122W        W31646   2.126   4.217   0.636  0.0637 -0.1697  0.2207
14123W        W31647   5.297   1.471   4.509 -0.0905  0.0502  0.1713
14124W        W31648   0.697  16.516  14.119  0.0518  0.2415  0.0720
14125W        W31649  11.342  13.109  14.769 -0.0772 -0.0408  0.1995
14126W        W31650   1.544   8.595   0.250 -0.3731 -0.0490  0.2818
14127W        W31651   3.782   1.298   4.350  0.2768  0.2474 -0.1309
14128W        W31652   5.028  10.519   1.849  0.2278 -0.1980  0.0901
14129W        W31653   0.962   1.997  15.498  0.3211  0.2248  0.4166
14130W        W31654  11.914  14.918  13.165  0.2374 -0.1990 -0.1753
14131W        W31655   2.861   6.690   0.949 -0.0853  0.1002 -0.2836
14132W        W31656   0.642   7.622  15.726 -0.1248 -0.0920 -0.0434
14133W        W31657  13.618  13.813   1.116  0.1702 -0.0729 -0.0636
14134W        W31658   6.434   9.036  14.145  0.2752 -0.0194  0.0725
14135W        W31659   5.138   2.588  12.924  0.0471  0.4008 -0.0760
14136W        W31660  18.009   3.053   5.701  0.2671  0.0054 -0.2870
14137W        W31661   6.066  17.519   3.262 -0.1594 -0.0316  0.1506
14138W        W31662   4.649  11.596  15.417  0.2885 -0.0456  0.0680
14139W        W31663  15.518   0.927   0.541 -0.0386  0.2142  0.0905
14140W        W31664  15.865  10.534   0.706 -0.0853 -0.1677 -0.1063
14141W        W31665   3.775  15.563   3.818 -0.0669 -0.3183 -0.2559
14142W        W31666   9.322   3.949   2.341 -0.0336 -0.1899 -0.2023
14143W        W31667   2.818  12.820   4.756 -0.0328  0.0614  0.0402
14144W        W31668   8.230  14.996   5.172  0.1560 -0.0109  0.1416
14145W        W31669  11.063  12.027   2.674  0.0034  0.1678 -0.1172
14146W        W31670  10.146  10.932  15.828  0.0982 -0.0304  0.2266
14147W        W31671   4.460   3.659  12.308  0.0841 -0.0887  0.0107
14148W        W31672   3.787  15.875   0.168  0.0286 -0.2480 -0.0628
14149W        W31673  18.241  17.019   4.399 -0.0277 -0.2777 -0.5109
14150W        W31674  18.095   8.615  14.586 -0.2193 -0.1259  0.2862
14151W        W31675   7.407   6.270   3.031 -0.1913  0.0887 -0.0130
14152W        W31676  12.425   1.757   0.674 -0.3224  0.1022  0.1176
14153W        W31677  11.644  15.675  10.808 -0.0237 -0.1780 -0.1664
14154W        W31678  12.196   6.762   3.939 -0.2143 -0.0958 -0.2262
14155W        W31679   9.723  14.026   5.070  0.2054 -0.0984  0.0340
14156W        W31680   1.329  10.002   0.266 -0.1371  0.4333 -0.0909
14157W        W31681  17.534  14.223   5.526  0.0423 -0.0133 -0.1632
14158W        W31682  11.492   2.723  12.938  0.1436  0.1950  0.2088
14159W        W31683   2.540   5.848  12.578  0.1085 -0.0823 -0.0334
14160W        W31684   4.277   0.344  14.615  0.1627 -0.0262 -0.1274
14161W        W31685   1.554   0.896  13.959 -0.0741 -0.0478  0.1787
14162W        W31686  17.781   2.291   0.516  0.0960  0.1255  0.1126
14163W        W31687   4.338  11.922   4.082  0.2323 -0.1558  0.3922
14164W        W31688   7.764   1.717   0.397  0.1386 -0.2220  0.0311
14165W        W31689   6.598  12.772  13.115 -0.0294  0.2690 -0.2246
14166W        W31690   1.258   6.712   4.237 -0.0369  0.0024 -0.0868
14167W        W31691   3.219   0.800  12.635 -0.2820  0.0847  0.1265
14168W        W31692   4.041  17.511  12.269  0.0370 -0.3273  0.3046
14169W        W31693   0.070  14.698   1.885 -0.1672  0.1119 -0.0017
14170W        W31694   2.509   3.863  10.270  0.1885  0.0424  0.0742
14171W        W31695  10.424   1.822  11.518 -0.0895  0.2008  0.0366
14172W        W31696   6.037   1.480   3.956  0.1438  0.1908  0.0537
14173W        W31697  10.598   6.975  12.444  0.1619  0.1599 -0.2259
14174W        W31698  18.413  17.842   0.251 -0.1464  0.2660  0.1464
14175W        W31699   8.808   6.587  11.447 -0.1799 -0.1525 -0.0480
14176W        W31700   2.257  11.991   3.232 -0.1824  0.3293 -0.3476
14177W        W31701  13.112   7.977  11.919 -0.2010 -0.0349  0.2061
14178W        W31702   0.400  10.892   4.810  0.0237 -0.0862 -0.0647
14179W        W31703  17.432  17.697   1.052  0.2099  0.1346 -0.0436
14180W        W31704  13.246   7.792  15.646 -0.1166  0.2128 -0.0669
14181W        W31705   4.275  17.738  11.601 -0.4250 -0.4332 -0.1119
14182W        W31706   5.414   0.364   1.630 -0.2829 -0.0422  0.0593
14183W        W31707  13.020   5.021   1.407 -0.4883 -0.1960 -0.0889
14184W        W31708   8.703   3.869  12.072 -0.0342  0.4529 -0.0183
14185W        W31709  10.363   3.611   4.747  0.0039 -0.0618 -0.5016
14186W        W31710   1.055   4.226   3.318  0.3703  0.0944  0.1942
14187W        W31711  17.739  15.162  12.541 -0.0635 -0.0921 -0.1362
14188W        W31712  16.464   4.739   1.182  0.1366  0.2444 -0.4035
14189W        W31713  10.731   6.378  15.169  0.1671 -0.0467 -0.1159
14190W        W31714  16.953  18.134  12.522 -0.2197  0.1323  0.1578
14191W        W31715   4.854   4.852  12.222  0.0930  0.1532 -0.3361
14192W        W31716  10.067   9.959  11.122 -0.0112  0.0889  0.1584
14193W        W31717  12.441   7.652  15.488  0.0469 -0.1205 -0.1997
14194W        W31718  14.972  18.051   4.679  0.1732 -0.1446  0.0677
14195W        W31719   0.443   5.061   2.026  0.2441  0.1520 -0.2219
14196W        W31720   3.592   8.175   3.283 -0.3192  0.1617  0.2379
14197W        W31721   9.880   6.569   2.359  0.0733 -0.4890 -0.1858
14198W        W31722  15.810   9.668   2.276  0.2324  0.0590 -0.2242
14199W        W31723  11.163  12.134   4.351  0.0770  0.3711 -0.0696
14200W        W31724  16.340  18.279  13.642  0.0274 -0.3916  0.2020
14201W        W31725  15.427   2.577   1.887 -0.2389 -0.0199  0.2238
14202W        W31726  13.157   8.259   2.700 -0.2546 -0.0323  0.1068
14203W        W31727  17.089  15.179  11.601 -0.1901 -0.1563  0.0043
14204W        W31728  13.319   6.621  11.740 -0.1786  0.2413 -0.1101
14205W        W31729  15.877  12.233  15.527  0.3490 -0.1659  0.1338
14206W        W31730   3.895  10.744  12.198  0.0351  0.1212 -0.2628
14207W        W31731   6.694   5.335   4.416 -0.3989 -0.1406 -0.1626
14208W        W31732   1.224  14.231  14.978  0.1411 -0.2048 -0.0049
14209W        W31733   2.253   6.541  10.807  0.0596  0.0158 -0.0164
14210W        W31734  11.522  18.207   3.242  0.2124 -0.0203  0.1811
14211W        W31735   5.814   4.356  11.860  0.0455 -0.2218  0.0474
14212W        W31736   1.945   6.607   1.381  0.0007  0.0440  0.0500
14213W        W31737  13.165  10.862  15.759  0.2487 -0.1663 -0.0264
14214W        W31738   7.047   8.134   3.963 -0.0632 -0.1647 -0.0391
14215W        W31739   6.462  15.722   4.350 -0.2333  0.1779 -0.1860
14216W        W31740  13.803  14.314   4.778 -0.2219 -0.0600 -0.1779
14217W        W31741  13.027  15.112   2.529  0.2512 -0.0290 -0.3929
14218W        W31742  14.651   5.692   4.822  0.1524  0.0854  0.0754
14219W        W31743   3.547   4.867  12.163  0.0939  0.2094 -0.1980
14220W        W31744  12.443   6.631  15.390 -0.5250 -0.1372  0.4253
14221W        W31745   0.180   5.994  13.658 -0.1377 -0.1572  0.1903
14222W        W31746   8.581  16.371   3.638 -0.0559  0.0151 -0.0081
14223W        W31747   6.353  17.917   4.825  0.3134 -0.3343 -0.0110
14224W        W31748   0.920  12.974  14.848 -0.1994  0.0880 -0.3036
14225W        W31749  15.692   9.621   1.144  0.3622  0.0435 -0.1294
14226W        W31750  17.411  10.775  11.221 -0.3613  0.0122 -0.1386
14227W        W31751  16.793   1.310  14.709  0.1869  0.1421  0.0128
14228W        W31752  16.902   2.880   0.145 -0.1504  0.2340 -0.0885
14229W        W31753  16.751  16.307  11.292  0.0006 -0.0391 -0.0253
14230W        W31754   4.105  10.550   0.258  0.0635 -0.0991  0.0280
14231W        W31755  13.622   7.362   2.745  0.0821  0.0676  0.0547
14232W        W31756   1.587  12.425   4.536  0.2118 -0.3825 -0.0130
14233W        W31757   2.319   3.711  13.848 -0.0750  0.1769 -0.3775
14234W        W31758  14.534   8.867  13.991  0.0681  0.1769 -0.0756
14235W        W31759   4.412   5.411  14.321  0.1993 -0.1547  0.1968
14236W        W31760   3.133  14.809  11.783 -0.3813 -0.2159 -0.0801
14237W        W31761  11.214   4.854   4.080 -0.0390 -0.1308  0.0098
14238W        W31762   4.891   3.819   0.888  0.1329  0.0866 -0.2164
14239W        W31763  15.223  17.644  14.392  0.0500  0.2392  0.0383
14240W        W31764  15.754   0.964  13.169 -0.3324 -0.1746  0.2628
14241W        W31765   6.033   1.144  12.249 -0.1442 -0.1629 -0.0151
14242W        W31766   4.660  10.769  14.002  0.2432 -0.0996 -0.0352
14243W        W31767  16.907   9.716  15.581 -0.0286 -0.1308  0.3026
14244W        W31768   2.647  10.764   0.270  0.1652  0.2750  0.1666
14245W        W31769   6.325  13.591  12.567 -0.2216 -0.0205  0.2716
14246W        W31770   2.555   7.208   5.013 -0.1745  0.1105  0.1114
14247W        W31771   8.165   2.240  12.631 -0.1530  0.2247  0.0877
14248W        W31772   0.884   8.271  12.095 -0.0467 -0.0804  0.0843
14249W        W31773   0.647   1.175   5.105 -0.0322 -0.3680 -0.2565
14250W        W31774   6.236  11.232   1.906 -0.0630  0.0654 -0.0610
14251W        W31775   3.589   2.834  10.996 -0.0172  0.2504  0.0423
14252W        W31776  12.281   7.504   2.245 -0.2114 -0.0552 -0.5031
14253W        W31777   6.510   5.086  14.296 -0.1591 -0.0884 -0.1525
14254W        W31778   9.541  14.686  10.589 -0.0810 -0.1951  0.0550
14255W        W31779  14.757  14.138   4.534  0.0450 -0.2507  0.2709
14256W        W31780   5.020   7.958   4.137 -0.0568  0.1049  0.4360
14257W        W31781  12.400   7.735  14.976  0.2395  0.2111  0.1537
14258W        W31782   3.404  10.717  14.527  0.0560 -0.1502 -0.4215
14259W        W31783  14.643  10.236   0.795  0.2086  0.0200 -0.1981
14260W        W31784   6.652  14.184  11.777  0.1140  0.3862  0.1252
14261W        W31785   3.527   3.700   2.635 -0.5274  0.0535  0.0485
14262W        W31786  13.298   2.895  10.608  0.3194  0.5063 -0.1211
14263W        W31787   8.854   2.311   1.760 -0.3033 -0.2325  0.3229
14264W        W31788   0.294   3.437  12.329 -0.1160 -0.2234 -0.1516
14265W        W31789   1.136  14.183   2.739 -0.1041  0.1371 -0.1259
14266W        W31790   9.752   8.293  13.177  0.2459  0.3037 -0.4414
14267W        W31791   5.157  12.048  14.611 -0.3781  0.2503  0.2077
14268W        W31792  12.605  15.194   2.945 -0.0763  0.0992  0.0885
14269W        W31793   1.540   4.967   0.979 -0.1271  0.0689  0.0944
14270W        W31794  17.701  16.933  14.634 -0.1855 -0.1011  0.0894
14271W        W31795   4.696  11.646  14.810 -0.1271 -0.0340  0.0993
14272W        W31796  13.816   0.550  12.795 -0.2169  0.1056  0.0164
14273W        W31797   8.722   5.778   2.918  0.0429  0.1254 -0.1124
14274W        W31798   2.538   1.897   4.194 -0.0506 -0.0363 -0.0229
14275W        W31799   4.996  17.349  11.282  0.1686 -0.0678 -0.0028
14276W        W31800   7.747  12.738   1.427 -0.2302  0.0871  0.0690
14277W        W31801   7.063  17.844   1.930  0.0541  0.2286 -0.2573
14278W        W31802   5.299   6.247  11.189 -0.0240  0.0832 -0.2549
14279W        W31803  18.392  16.710   2.983 -0.0342  0.1304  0.0718
14280W        W31804  14.475   2.609   2.349 -0.0023  0.0522  0.0855
14281W        W31805  13.489  14.650  11.719  0.1511  0.1056  0.0245
14282W        W31806  10.523   7.605   4.941 -0.0333  0.2523 -0.2346
14283W        W31807   3.291  13.322  11.112  0.2764 -0.0251  0.2052
14284W        W31808   5.059  18.009  11.451  0.0826  0.2982  0.1935
14285W        W31809   4.629   9.585  13.035 -0.3038 -0.0986 -0.0190
14286W        W31810  10.264  18.383  15.014  0.3156 -0.0412 -0.0417
14287W        W31811  15.906   1.005  14.987 -0.2070  0.1931 -0.1400
14288W        W31812   4.014  13.781   4.318 -0.1440  0.0475  0.0440
14289W        W31813   7.902   6.240   3.157  0.2020 -0.1185 -0.0255
14290W        W31814   3.519   2.973  11.536  0.2000  0.1032  0.0659
14291W        W31815   6.793   5.714  14.902  0.0476  0.2391  0.0190
14292W        W31816  11.697   4.466  11.698 -0.0644  0.0475 -0.0969
14293W        W31817  13.399  15.319   5.038 -0.0723 -0.1074  0.1012
14294W        W31818   2.746   2.710  14.499  0.0329  0.1290  0.4629
14295W        W31819   4.385  15.252  13.331 -0.0561 -0.1290  0.2810
14296W        W31820   5.474   5.271   1.003  0.1731 -0.3454 -0.0579
14297W        W31821   5.994   5.224   0.212  0.3511 -0.2090  0.2758
14298W        W31822  11.175  10.937   0.159 -0.0146 -0.2201 -0.1093
14299W        W31823  15.382   3.132   3.910  0.2128 -0.0637  0.0200
14300W        W31824  17.055  11.361   3.012 -0.0435 -0.0002 -0.2096
14301W        W31825  18.041   5.748   3.809  0.3778  0.0622 -0.0739
14302W        W31826  12.320  16.342  11.946  0.2301  0.0834  0.2603
14303W        W31827   2.411   6.209  11.944 -0.1415 -0.1814 -0.0659
14304W        W31828  18.318   3.833  15.438 -0.0425 -0.0075 -0.2032
14305W        W31829  16.528   5.996  15.467 -0.0470 -0.0559 -0.1863
14306W        W31830  13.454   7.984  14.738  0.0172 -0.0016  0.2031
14307W        W31831  16.267  11.704  11.932  0.1384  0.3743  0.0698
14308W        W31832   5.733   5.383  13.136 -0.2032 -0.1148 -0.3900
14309W        W31833   4.334  16.888   2.305  0.3209  0.2320 -0.1066
14310W        W31834  10.006   2.414   2.166  0.0098 -0.0741  0.1036
14311W        W31835  13.264   7.550  14.066 -0.1020  0.1778 -0.2605
14312W        W31836  16.941  10.513   1.193  0.0476 -0.1310  0.2008
14313W        W31837   2.269  10.877   1.907 -0.0658 -0.1733 -0.1308
14314W        W31838   7.107   7.087   4.617  0.0965 -0.2566 -0.1482
14315W        W31839  10.964  16.296  11.935 -0.1825  0.2509  0.0531
14316W        W31840   8.237  14.558  14.589  0.0146  0.0265 -0.3698
14317W        W31841  11.163   1.580   0.850 -0.0917  0.0866 -0.0798
14318W        W31842  15.472   1.496  12.184  0.2707  0.1807  0.0128
14319W        W31843  16.321   9.004   4.686  0.3694  0.0608 -0.0015
14320W        W31844   0.549  17.129  13.499  0.0012 -0.0854  0.0261
14321W        W31845   9.778  11.499   1.917 -0.0935 -0.0013 -0.0384
14322W        W31846  11.064   7.300   0.679  0.0007  0.1097  0.0780
14323W        W31847  16.217   1.211  15.712  0.0682 -0.2996  0.0323
14324W        W31848   2.007  18.063  15.019 -0.1479  0.1162  0.0678
14325W        W31849  12.169   6.825   4.494  0.0104  0.0885 -0.0543
14326W        W31850   5.370  15.296  15.024 -0.0664  0.0200 -0.0411
14327W        W31851  17.703  17.382   4.064  0.1145 -0.2170 -0.1354
14328W        W31852   9.343  13.838  12.728  0.1559  0.1740 -0.1076
14329W        W31853   6.890   2.421  12.387  0.0370  0.0485 -0.1887
14330W        W31854   2.158  16.290  13.942 -0.2025  0.0461  0.3893
14331W        W31855   5.685   7.014  15.635 -0.0815 -0.0236 -0.4417
14332W        W31856   0.095  17.937   2.718  0.0433  0.5480  0.0608
14333W        W31857  17.277  10.217   4.763 -0.0163  0.0405  0.1715
14334W        W31858  12.652  10.068   1.492 -0.1163 -0.1425 -0.1199
14335W        W31859   8.550  18.090   4.514 -0.1018  0.2439 -0.0310
14336W        W31860  13.343  10.563   3.377 -0.0147  0.5376  0.0283
14337W        W31861   4.241   8.298  12.790 -0.2755  0.2230 -0.1318
14338W        W31862  17.756   5.489   0.964  0.3461 -0.2893  0.2478
14339W        W31863  15.053  17.768   1.638 -0.1362 -0.0362 -0.2218
14340W        W31864   5.373   1.472   0.026  0.3331  0.2482 -0.4219
14341W        W31865  17.673  14.681   1.610  0.0234 -0.0152  0.1649
14342W        W31866  14.741   1.169   0.880  0.0440  0.0057 -0.1830
14343W        W31867   3.362  15.664   2.938  0.2535 -0.1864 -0.3273
14344W        W31868  11.612   8.298   1.735  0.0098 -0.0493 -0.0275
14345W        W31869  11.885   2.256  14.377  0.0814 -0.0854 -0.4863
14346W        W31870  10.833   4.572  11.704  0.1516  0.2564 -0.4115
14347W        W31871   9.961   7.866  13.323 -0.1290 -0.3280  0.0013
14348W        W31872  11.597   1.748   0.150  0.1446  0.1042  0.0664
14349W        W31873   6.244  16.151   2.919  0.0215  0.0053  0.0262
14350W        W31874   1.661   7.277  15.476  0.0491  0.0359  0.0006
14351W        W31875   2.097   3.864  12.024  0.2216  0.1531 -0.0197
14352W        W31876  15.237   4.572  13.299 -0.1253 -0.0272 -0.0292
14353W        W31877   1.469  17.064  12.799 -0.2216 -0.2233 -0.1084
14354W        W31878   5.438   6.183  11.981  0.0294 -0.1389 -0.4306
14355W        W31879   5.878  14.105  12.850  0.1060 -0.1230  0.0721
14356W        W31880  15.203  10.237   0.046 -0.0007  0.0730 -0.1361
14357W        W31881  10.720   4.753  10.559 -0.3125  0.0669  0.1052
14358W        W31882  13.652  14.535   3.728 -0.0753 -0.3473  0.1276
14359W        W31883   2.255   0.950  14.887  0.1712  0.0265  0.0780
14360W        W31884  16.929  15.420  13.556  0.2464 -0.2927 -0.1451
14361W        W31885   2.834  11.064   3.922 -0.1368  0.3196  0.1210
14362W        W31886   6.617   3.676   3.297 -0.6514 -0.0014 -0.0227
14363W        W31887   1.658   0.122  12.052 -0.1144 -0.1847  0.0490
14364W        W31888  12.869  16.303   2.328  0.0143 -0.0450 -0.4172
14365W        W31889  16.303  12.125   1.965  0.0323  0.1411 -0.0909
14366W        W31890   5.879  17.484   1.569  0.5078  0.0339 -0.3336
14367W        W31891  15.548  16.041  13.660  0.1871 -0.0770 -0.0634
14368W        W31892  12.725  14.221   3.601 -0.3691 -0.0578  0.0741
14369W        W31893  14.246  17.454  13.508  0.3157 -0.0443 -0.2081
14370W        W31894  12.200   5.920  11.459  0.0008 -0.0203 -0.0572
14371W        W31895  12.499  17.251  11.022 -0.0650 -0.2690  0.3698
14372W        W31896  15.470  13.398  11.877  0.1121 -0.1531  0.1669
14373W        W31897   7.246  10.663  11.608  0.3189 -0.2967  0.2808
14374W        W31898   8.969   7.916   2.515  0.2523 -0.1417  0.0964
14375W        W31899   4.714   5.002   0.398 -0.2858  0.1509 -0.0698
14376W        W31900  11.219   5.634   3.783  0.0352 -0.0536 -0.2867
14377W        W31901  17.100   6.493   3.189  0.4419 -0.1409  0.1897
14378W        W31902   7.814  13.816   1.345  0.0828 -0.3294  0.1759
14379W        W31903   9.263  14.564  15.649  0.1931 -0.2812  0.0485
14380W        W31904   1.423  10.488  12.336  0.2329  0.0245  0.0175
14381W        W31905   7.984   7.582  10.712 -0.0659 -0.2416 -0.2196
14382W        W31906   9.493  16.388  13.256  0.0322  0.2216  0.0322
14383W        W31907  11.544  16.458  13.109 -0.1267  0.0198  0.1638
14384W        W31908   9.616  12.604  12.190  0.1287  0.0811  0.2420
14385W        W31909  10.221  15.717  14.266  0.0165 -0.1041  0.0259
14386W        W31910   7.107   1.746  15.282 -0.2112  0.1042  0.0128
14387W        W31911  18.125   2.009   2.844  0.1688  0.2481 -0.0856
14388W        W31912   7.271  16.097   0.281 -0.0119 -0.2717  0.0031
14389W        W31913   6.720  12.527   0.360  0.1776 -0.1110 -0.2558
14390W        W31914   2.590  14.510   3.908 -0.2296 -0.1193  0.3481
14391W        W31915   5.928   4.139   2.914  0.0148  0.2315  0.1789
14392W        W31916   0.727  15.631   1.533 -0.1311  0.3819  0.1503
14393W        W31917   8.033   2.478  13.092  0.0198 -0.4914  0.3263
14394W        W31918   2.455   4.984  12.314  0.1779 -0.0763  0.1175
14395W        W31919   0.277   7.254  15.808 -0.2304  0.0558  0.0988
14396W        W31920  13.792  12.520   0.596 -0.2811  0.2051  0.1574
14397W        W31921   8.944  13.025  12.257  0.0125 -0.1764 -0.1875
14398W        W31922  14.378  15.083   5.157  0.1956  0.0204  0.1972
14399W        W31923  17.672  14.543   2.481  0.0417  0.0359  0.0129
14400W        W31924   4.442   9.061   2.933  0.2715 -0.2748 -0.3296
14401W        W31925   0.937  10.617   3.566  0.0734  0.1840  0.1120
14402W        W31926  13.122   7.474  10.963  0.0217  0.3463  0.3583
14403W        W31927   1.268   6.286   4.041  0.3247  0.3385  0.0514
14404W        W31928  12.993  12.703   5.079 -0.2055  0.2708 -0.0012
14405W        W31929  13.396  13.848  12.934  0.2860  0.0879 -0.2029
14406W        W31930  15.184   2.345   5.109  0.2175  0.2850 -0.4614
14407W        W31931   8.455   5.199   3.444 -0.1742 -0.1535 -0.4722
14408W        W31932   8.596  15.144  12.374 -0.3512 -0.0265  0.0884
14409W        W31933  18.403  11.857  11.509  0.0426 -0.0660  0.1484
14410W        W31934   4.334   2.600  12.467 -0.1332  0.1645  0.1795
14411W        W31935   2.711   6.415  10.581 -0.0599 -0.0022  0.0111
14412W        W31936  16.534   2.662  11.950  0.1156 -0.0625  0.1703
14413W        W31937  15.057  12.358   2.094 -0.1110 -0.0956  0.4154
14414W        W31938   1.279   1.371  14.821  0.1599  0.0195 -0.1679
14415W        W31939  10.787   0.697   0.276 -0.0828 -0.3065 -0.2292
14416W        W31940  17.336   7.642  14.244  0.5805  0.1121 -0.1283
14417W        W31941   5.108   2.807  11.442 -0.1649  0.2527 -0.3631
14418W        W31942  17.044   1.353   4.894  0.0122  0.0973 -0.1397
14419W        W31943  16.298  11.566  12.686  0.2655 -0.1377  0.0541
14420W        W31944   5.382  11.454   1.938 -0.4137 -0.0570 -0.1445
14421W        W31945   3.968   0.658  13.104 -0.0122  0.0017 -0.1797
14422W        W31946   2.287   1.039  13.926  0.2486  0.0346 -0.3390
14423W        W31947   9.730   3.408   1.397 -0.0023 -0.3351 -0.3019
14424W        W31948  11.176   1.716  14.517  0.0093  0.2978  0.4107
14425W        W31949  16.012   4.460   3.153  0.2447 -0.0609 -0.0241
14426W        W31950  13.021   1.340   0.027  0.1633  0.0861  0.1139
14427W        W31951   0.054  15.036  15.039 -0.1546  0.0239  0.1424
14428W        W31952   8.079   4.696   4.129  0.0702  0.3191  0.0611
14429W        W31953  13.502   8.060   0.478  0.1890 -0.1067  0.0753
14430W        W31954  13.570   6.958  13.155  0.1112 -0.3175 -0.0821
14431W        W31955   3.502  14.289  12.417  0.0357  0.1755  0.3683
14432W        W31956  13.048  10.575  12.576  0.1999 -0.0122 -0.1866
14433W        W31957   1.392  13.395   0.897  0.1234  0.2559  0.0154
14434W        W31958  17.096  11.446  14.099  0.0225 -0.1033 -0.0806
14435W        W31959  11.771  12.347   4.814  0.3137  0.0370 -0.0276
14436W        W31960  13.207   0.767  12.022  0.0848  0.1199 -0.1225
14437W        W31961   7.635   0.095  14.155 -0.1560 -0.3780 -0.0302
14438W        W31962  15.720   1.200   4.456 -0.3040 -0.0575 -0.0931
14439W        W31963   7.852   3.477   1.494  0.2631 -0.1640  0.1047
14440W        W31964  12.365  12.270   3.485 -0.3457 -0.0415 -0.0495
14441W        W31965   8.600  11.310  14.273 -0.1101  0.1886  0.1818
14442W        W31966   4.715   2.440  11.479  0.1001 -0.1513 -0.1778
14443W        W31967  12.563   5.086  15.167  0.2341  0.4211 -0.1193
14444W        W31968   7.449  13.276  14.109 -0.4409 -0.0559 -0.1038
14445W        W31969  14.265   7.817   3.426 -0.1564  0.0716 -0.1099
14446W        W31970   0.013   3.902  12.599  0.1142 -0.0687  0.1184
14447W        W31971  11.196   3.000  12.556 -0.0500 -0.0567  0.1234
14448W        W31972  17.054  17.055   4.641  0.4430 -0.0545  0.4249
14449W        W31973  10.990  16.206   4.287  0.2217 -0.4153  0.2295
14450W        W31974   4.033  10.008  11.558  0.1295  0.0751  0.0476
14451W        W31975   2.382   3.832   0.726  0.1106  0.1421  0.4396
14452W        W31976  15.683  18.230   2.031 -0.1364  0.1798 -0.2380
14453W        W31977   5.630  17.738   4.922  0.0293 -0.1141 -0.1287
14454W        W31978   4.124   4.561   2.975 -0.0136  0.2758  0.3145
14455W        W31979   4.237   6.589  15.622 -0.1785 -0.1470 -0.3135
14456W        W31980  12.624   0.491   5.172  0.1717  0.0846  0.1142
14457W        W31981  17.595   5.996   0.778  0.1616  0.3370  0.0307
14458W        W31982   4.663   1.420   4.585 -0.0889 -0.1240 -0.0762
14459W        W31983  18.390   8.405  11.822  0.1192 -0.2018 -0.2256
14460W        W31984  12.309   9.903   4.032 -0.0190 -0.1015  0.0241
14461W        W31985   6.385  11.559   1.548  0.0543  0.1952 -0.1225
14462W        W31986  12.123  16.163  12.910 -0.2038 -0.0229  0.0895
14463W        W31987   7.036   4.093   2.251  0.0913  0.0409  0.1755
14464W        W31988   2.290  17.218   5.644 -0.1817 -0.1828  0.0079
14465W        W31989  11.438  10.236  14.922  0.0908  0.0173  0.0131
14466W        W31990   5.402   7.547   1.056  0.0472 -0.0136  0.2054
14467W        W31991   8.716  15.278  15.255 -0.2249 -0.0592  0.0160
14468W        W31992   2.292   8.833   4.348  0.0087 -0.2256  0.1180
14469W        W31993   3.318   5.019  10.773  0.0243 -0.0944 -0.0611
14470W        W31994  18.262   7.448  11.283  0.1614  0.2163 -0.2918
14471W        W31995   6.322  10.823   4.322 -0.0226 -0.0650 -0.3764
14472W        W31996   6.490   2.890   0.254 -0.1199 -0.0956 -0.0982
14473W        W31997   1.032  17.268  15.315  0.4123 -0.1154 -0.2244
14474W        W31998  16.042  15.878   0.786  0.2532 -0.0900 -0.1294
14475W        W31999   7.619   8.107  14.551 -0.0837  0.1900 -0.1711
14476W        W32000   0.442  14.547  12.169  0.0008 -0.1565 -0.2066
14477W        W32001  11.018  16.400   1.387 -0.0680 -0.0125  0.0804
14478W        W32002  13.630   0.233   4.072  0.2406 -0.3667 -0.1760
14479W        W32003   4.948  10.144  14.548 -0.1824  0.0091  0.1431
14480W        W32004   7.203   6.761   2.996 -0.2594  0.0024 -0.3444
14481W        W32005   5.844   7.899   1.414 -0.1275 -0.1554 -0.1520
14482W        W32006   6.811  11.826  11.730 -0.2661  0.0855  0.4242
14483W        W32007   0.925  12.846  15.299 -0.0267  0.1415  0.2433
14484W        W32008   9.656   9.550   2.364  0.2164 -0.0551 -0.1281
14485W        W32009   9.223   7.302   2.084  0.0461  0.0836 -0.0245
14486W        W32010  14.622  10.053  11.523 -0.1849 -0.0439  0.1928
14487W        W32011  14.591   1.081   2.828  0.0239  0.0924 -0.1004
14488W        W32012   6.986  18.043   4.692 -0.0455 -0.0556 -0.0117
14489W        W32013   4.349   8.383  14.645  0.2335 -0.0779  0.0307
14490W        W32014   0.335   2.373   2.531  0.0178 -0.1001 -0.3067
14491W        W32015   9.144   1.797  13.680  0.1433 -0.0939 -0.2389
14492W        W32016   0.441  15.276   4.778  0.3438  0.4681 -0.2134
14493W        W32017   0.918  18.031   4.789 -0.0565 -0.3187  0.1944
14494W        W32018   3.208   0.604   1.500  0.1201  0.2475  0.2223
14495W        W32019   7.885   9.002  14.850  0.0369 -0.1332  0.0837
14496W        W32020  14.922   0.381   1.012 -0.0547  0.3722  0.0551
14497W        W32021   7.860   7.048   3.611 -0.2698  0.4470  0.1164
14498W        W32022   0.014   6.335   0.005  0.0372 -0.2769 -0.2453
14499W        W32023   0.458   9.574   2.826 -0.0956  0.0920  0.2374
14500W        W32024   3.296   6.932   1.065 -0.2681 -0.2518  0.0307
14501W        W32025  17.474  17.438  15.706 -0.2660 -0.3952 -0.0051
14502W        W32026   9.908   7.956   5.507 -0.0803 -0.1364  0.0563
14503W        W32027   1.803  14.241  15.708 -0.1006  0.2282  0.0290
14504W        W32028  13.144   9.925  11.982 -0.0221  0.1720  0.0425
14505W        W32029  14.392  12.164   0.633  0.1515  0.0330  0.1326
14506W        W32030  13.000   1.966  15.139 -0.1630 -0.2881  0.0921
14507W        W32031   1.346  14.620  15.769  0.0990 -0.0478 -0.1659
14508W        W32032   9.249  11.930   3.432  0.2110 -0.3264 -0.1364
14509W        W32033  12.966   2.722  12.763  0.3394  0.0162 -0.2216
14510W        W32034  14.310   5.415   3.491 -0.0091 -0.0902 -0.0167
14511W        W32035   2.371   2.588   3.540  0.1687  0.0746 -0.2151
14512W        W32036   3.845   2.914  13.216  0.1557  0.0739 -0.3070
14513W        W32037  17.181  13.764   1.980  0.0108 -0.2158  0.0352
14514W        W32038  12.511   2.198  11.497 -0.0764 -0.2515 -0.3003
14515W        W32039   1.564  16.389   1.230  0.0428 -0.0086 -0.3088
14516W        W32040   7.027  17.706  12.464 -0.2372  0.0438 -0.0112
14517W        W32041   0.796   3.022  13.656 -0.1833  0.0841  0.1304
14518W        W32042   7.384   9.552  13.755 -0.0900 -0.0882 -0.1285
14519W        W32043   8.421  18.140   5.757  0.0612 -0.1956 -0.2936
14520W        W32044  10.141   3.245   3.184 -0.4611  0.1883  0.0065
14521W        W32045  10.238  12.319  14.930 -0.3105 -0.2881  0.0547
14522W        W32046   8.294   8.143  11.292  0.1451  0.0601 -0.0752
14523W        W32047   5.071  12.064  15.634 -0.0134 -0.3628 -0.1908
14524W        W32048  12.033  17.414   5.425  0.0445  0.2437  0.0903
14525W        W32049  12.700  13.487   4.835 -0.2040 -0.1559 -0.0339
14526W        W32050  11.148   6.825   3.535  0.0784 -0.1656  0.0119
14527W        W32051   8.625   4.837  11.299 -0.5015 -0.0610 -0.0636
14528W        W32052  18.290   8.723  12.805  0.0564  0.0090 -0.0960
14529W        W32053   8.917  13.799   4.493  0.2240  0.0521 -0.1315
14530W        W32054  16.558  13.965  11.786 -0.2674  0.0956  0.0191
14531W        W32055  14.847  12.735  14.494 -0.0710 -0.1075 -0.2250
14532W        W32056  16.324   8.383  12.128  0.3122  0.0136  0.1804
14533W        W32057   6.073  13.128  11.659  0.0483 -0.3261 -0.0753
14534W        W32058   9.788   9.328  15.607 -0.0846  0.1689 -0.2882
14535W        W32059  12.053   6.337  15.690 -0.0387 -0.0212 -0.1850
14536W        W32060   7.702  13.493  15.710  0.0959 -0.2443 -0.0206
14537W        W32061   5.905   1.614   1.043  0.1973 -0.2101 -0.0668
14538W        W32062   7.995  17.661  12.358 -0.4783 -0.1994  0.2458
14539W        W32063  12.099  15.803   5.013 -0.0977  0.3657 -0.3355
14540W        W32064   4.183   5.705  12.332 -0.0470  0.0082  0.0695
14541W        W32065  10.458   0.605   0.857  0.2299 -0.3898 -0.0835
14542W        W32066  16.657   1.480  12.466 -0.1369 -0.3422  0.2939
14543W        W32067  14.244  13.767   1.826  0.0698 -0.2357 -0.1526
14544W        W32068   3.157   1.156  15.569 -0.0232 -0.2345 -0.0744
14545W        W32069  17.733  17.743  13.531 -0.2554  0.0688 -0.2169
14546W        W32070  14.504  10.520   4.095 -0.3282  0.0937  0.1476
14547W        W32071   7.593   6.897  13.221  0.1827  0.4282 -0.0718
14548W        W32072  10.563  12.587  13.169  0.0394  0.1403 -0.0026
14549W        W32073   7.328   1.052   1.684  0.3933  0.2667  0.0312
14550W        W32074  13.303   5.453  15.806 -0.0649 -0.2129  0.2050
14551W        W32075   4.341   7.426  14.191 -0.2949  0.1653 -0.1048
14552W        W32076  17.051   8.542   4.083  0.1275 -0.1860 -0.0356
14553W        W32077   3.912   4.472  13.843  0.1334 -0.1618 -0.1295
14554W        W32078   0.941  17.562   4.956  0.0739  0.3063 -0.0730
14555W        W32079  13.149  10.133   4.566  0.0422 -0.0107  0.1499
14556W        W32080  15.691   3.818   3.210 -0.1002 -0.0978 -0.1220
14557W        W32081  14.691  15.789   2.170 -0.2116 -0.1131  0.2713
14558W        W32082  11.661  13.130  15.716  0.1674  0.2857  0.0541
14559W        W32083   5.344  14.867  13.152 -0.2584 -0.1937  0.3353
14560W        W32084   5.889  13.501  15.013  0.3199  0.1514 -0.1828
14561W        W32085  17.524  10.984  14.565  0.3827 -0.2664 -0.1603
14562W        W32086  16.622   1.881   2.488 -0.3850  0.2024  0.0330
14563W        W32087   9.371  15.079  13.487 -0.1071 -0.0395 -0.2023
14564W        W32088   3.996   6.170   0.066 -0.2174  0.2511 -0.0622
14565W        W32089   4.788   3.933  11.975  0.1271  0.0512 -0.3083
14566W        W32090  15.927   6.770  11.849 -0.0823 -0.0925 -0.2721
14567W        W32091   7.823  17.773   2.342 -0.1233 -0.1971 -0.1409
14568W        W32092   2.208  13.542  13.100  0.0992 -0.1696 -0.0078
14569W        W32093   2.718  12.515  12.010 -0.2561 -0.0894 -0.1870
14570W        W32094  18.060   9.156  11.338  0.1542  0.2615 -0.0869
14571W        W32095   7.987  10.132   2.633  0.2835  0.1386 -0.1669
14572W        W32096  15.042  13.802   5.756  0.2851  0.2509 -0.1809
14573W        W32097   1.042   3.091  11.605  0.1851 -0.0594  0.2689
14574W        W32098  11.134  12.642   1.845  0.0051 -0.0713  0.2206
14575W        W32099  10.273   4.688   0.299  0.1702 -0.0627  0.1801
14576W        W32100   0.202  15.307  10.969  0.0758 -0.3140  0.2616
14577W        W32101   3.131   9.524   0.997  0.4153  0.0564  0.2612
14578W        W32102  16.625  11.698  13.174  0.3663  0.0347  0.0653
14579W        W32103   0.053  17.396  14.972 -0.1982  0.1304  0.2580
14580W        W32104  13.616   9.855  11.741  0.1945 -0.0081  0.0348
14581W        W32105   1.290   7.545   3.078  0.2140 -0.2986  0.0731
14582W        W32106  11.087  14.360  14.776 -0.1482 -0.0922  0.0575
14583W        W32107   2.392   6.259   2.446  0.0086 -0.0627  0.1921
14584W        W32108  13.534   1.757  13.123  0.0646  0.3283 -0.0222
14585W        W32109   8.577   1.027  13.334 -0.0166  0.0631 -0.2382
14586W        W32110   7.518   3.920   3.783 -0.1381  0.1758 -0.2523
14587W        W32111  12.011   8.087  11.174 -0.2307  0.0948  0.0221
14588W        W32112  10.199  11.236  11.806 -0.1592  0.0671  0.1509
14589W        W32113  18.369  12.774   4.418 -0.1411  0.2528 -0.0936
14590W        W32114  13.013   4.154  11.080 -0.0577  0.0074  0.0646
14591W        W32115  13.804   7.660   4.123  0.1303  0.0912 -0.3389
14592W        W32116  10.968  17.782  14.362  0.1348  0.1410 -0.0773
14593W        W32117   9.482   4.448  13.999 -0.0679  0.1696  0.0427
14594W        W32118  16.917  15.852   3.928 -0.1198 -0.1884 -0.1539
14595W        W32119   1.189   0.172  11.314  0.3669 -0.2279 -0.2318
14596W        W32120  17.643  13.789  13.249 -0.3193  0.1149  0.1072
14597W        W32121   1.854   6.459  13.680  0.2706 -0.3218 -0.1135
14598W        W32122   1.330   8.052   2.330 -0.2180  0.1404 -0.2859
14599W        W32123   7.865   4.315  10.983  0.0196 -0.2356 -0.2726
14600W        W32124  16.568  15.480  14.922 -0.0610 -0.4942  0.1180
14601W        W32125  14.245  15.148   4.209  0.2354 -0.1144 -0.2743
14602W        W32126   0.225   5.059   0.823  0.2138  0.2059 -0.0646
14603W        W32127   9.937   0.434   0.161 -0.4777 -0.4031 -0.0130
14604W        W32128   9.493   8.714  13.145  0.0329  0.0060 -0.0280
14605W        W32129  16.743  13.080  13.335 -0.1974 -0.1995  0.2854
14606W        W32130  13.101   9.242   2.734 -0.0783  0.3961  0.1324
14607W        W32131   5.434  14.860   3.755  0.2652 -0.0480  0.1155
14608W        W32132  16.405  16.656   2.442 -0.3116 -0.0418 -0.1356
14609W        W32133   5.601  16.397  12.244  0.2050  0.2050  0.0277
14610W        W32134   7.139   5.155   1.463  0.0412  0.2798  0.1357
14611W        W32135  10.026  14.324  14.982 -0.0378  0.0568  0.2359
14612W        W32136  15.241   4.102  14.125  0.1364 -0.0373  0.0048
14613W        W32137   4.569  13.054  15.857  0.0838  0.1276 -0.0758
14614W        W32138   5.160  15.506  14.607 -0.2684 -0.3397  0.0182
14615W        W32139   7.869   5.873   3.969  0.0684 -0.2715  0.2763
14616W        W32140  11.260  13.597   3.304 -0.0178 -0.0996 -0.0910
14617W        W32141   5.433   5.251   0.211 -0.1390 -0.2246  0.0441
14618W        W32142  16.783  10.215  14.446  0.5418 -0.0755  0.3094
14619W        W32143   9.943  10.106   0.383  0.1908  0.1040 -0.1785
14620W        W32144   3.126  17.035   0.529  0.1505  0.1096 -0.1493
14621W        W32145   9.086   1.740   2.953  0.0036 -0.0634  0.2941
14622W        W32146  11.400   4.422   0.912 -0.2538  0.0662 -0.0945
14623W        W32147   7.296  11.068   0.310 -0.1552  0.0632  0.0797
14624W        W32148  16.250   6.316  11.575 -0.3125  0.0616  0.0361
14625W        W32149  17.035  17.950  12.973  0.0138  0.0201  0.1262
14626W        W32150  11.013   9.506   3.426 -0.3381  0.3253 -0.0128
14627W        W32151  17.976   1.882   0.849 -0.0131  0.1469 -0.1733
14628W        W32152  13.505  17.113   2.681 -0.1416 -0.2021  0.0010
14629W        W32153   1.529  11.852   4.447  0.2489  0.0446 -0.0425
14630W        W32154  14.263   3.330   0.242  0.2278 -0.2005  0.4458
14631W        W32155  17.039  15.191   3.368 -0.0220  0.0588 -0.3206
14632W        W32156   6.166  16.368  10.883  0.2264 -0.0533  0.3128
14633W        W32157  17.629   9.441   3.126 -0.2708 -0.0300  0.1904
14634W        W32158  15.894  11.876  12.656 -0.2372 -0.0503 -0.1114
14635W        W32159  17.294   5.114   1.538 -0.0043  0.0955 -0.4168
14636W        W32160   5.213   6.410  11.648  0.1056  0.1753 -0.0693
14637W        W32161   7.625   8.358   0.540  0.4252 -0.1915  0.1026
14638W        W32162   1.208   4.142   3.765 -0.0843 -0.2384  0.3382
14639W        W32163  17.165   8.660  14.555  0.2176  0.0661 -0.0571
14640W        W32164  10.102   6.149  12.517 -0.0068  0.0260  0.0590
14641W        W32165   9.404   4.334  15.741  0.2569  0.0742  0.3188
14642W        W32166   9.962  16.368  13.191 -0.0418 -0.0317 -0.2054
14643W        W32167   6.160   6.941  15.573 -0.0704 -0.3531 -0.0601
14644W        W32168   1.930   4.569   2.312  0.0819  0.1582  0.0626
14645W        W32169  12.412   0.510  14.731  0.2125  0.1842 -0.1453
14646W        W32170  10.726  14.818  11.613 -0.0381  0.1291  0.3458
14647W        W32171  17.426   4.745   1.225 -0.0135  0.0312  0.2024
14648W        W32172   8.764  14.924   4.982 -0.0855  0.1046  0.0657
14649W        W32173  14.369   7.714  14.995 -0.2583 -0.1738  0.0126
14650W        W32174   2.319   0.571   0.849  0.0256 -0.0133  0.0055
14651W        W32175  10.011   5.160  11.650 -0.0981  0.1680 -0.0644
14652W        W32176  11.946   1.461   1.503  0.1863  0.0190 -0.3674
14653W        W32177   9.492  15.536  15.371  0.0060 -0.1121 -0.0411
14654W        W32178  12.475  13.750  15.676  0.0106  0.0268 -0.0693
14655W        W32179  16.176   8.193  14.759 -0.0040 -0.3070  0.0666
14656W        W32180  16.249  11.882   0.969  0.2690  0.2707 -0.0596
14657W        W32181  10.953   0.794  14.311  0.1909 -0.1722 -0.0679
14658W        W32182   1.138  14.695   2.848  0.1303 -0.2391 -0.0624
14659W        W32183  10.476  11.687  11.853  0.1556  0.1017 -0.0051
14660W        W32184  15.509   3.655   1.231 -0.1457 -0.0551  0.1758
14661W        W32185  13.573  11.288  12.380  0.1898 -0.1700  0.0473
14662W        W32186  13.708   7.582   0.554 -0.1743  0.1169 -0.0188
14663W        W32187   0.138   9.360  15.735  0.4639  0.1656 -0.0293
14664W        W32188   5.877   2.769  11.777 -0.1265  0.1305 -0.1487
14665W        W32189   7.381  15.602   4.703  0.3170  0.3585  0.2940
14666W        W32190   2.307  17.419  11.480 -0.1003  0.0553  0.0533
14667W        W32191   0.749   2.549  10.853 -0.1306  0.1209  0.1279
14668W        W32192  12.246  12.422   4.215  0.0496  0.0492  0.0666
14669W        W32193   9.185  10.640   0.469 -0.2085 -0.0436  0.0444
14670W        W32194  17.265  12.730   1.270  0.2902  0.4224  0.3550
14671W        W32195  17.853  16.423  11.570  0.1625  0.2161 -0.1243
14672W        W32196  10.173   0.334  12.746 -0.0306 -0.3062 -0.4100
14673W        W32197  16.589  14.842  12.720 -0.3649  0.4169 -0.0590
14674W        W32198  12.970  13.298  12.527 -0.0100  0.1141  0.2936
14675W        W32199   6.650   0.189   0.807 -0.5049  0.1545 -0.0041
14676W        W32200   6.162  17.484   2.800 -0.0806  0.2025  0.0725
14677W        W32201  12.021  15.263  12.757  0.2530 -0.3786  0.1523
14678W        W32202   0.223   5.948  14.341 -0.1357  0.2096 -0.2547
14679W        W32203   2.226  11.350  11.442 -0.0942 -0.1917 -0.0645
14680W        W32204   9.883   8.542   1.676 -0.0464  0.0301  0.2460
14681W        W32205  15.191  16.429   3.641 -0.3896  0.2691 -0.0880
14682W        W32206   6.163  18.146   2.161 -0.0573 -0.1755  0.2673
14683W        W32207   6.310   8.651   1.084  0.1514  0.2269  0.0656
14684W        W32208  15.780   4.962  12.771 -0.4631 -0.1318  0.0671
14685W        W32209  10.483  10.575  11.399 -0.0059 -0.0311  0.2313
14686W        W32210   5.694   1.066  15.784  0.2332 -0.0015  0.4562
14687W        W32211  17.349  10.140  11.969  0.1600  0.0605  0.1331
14688W        W32212  13.064   7.209  15.578 -0.4395  0.0751 -0.0285
14689W        W32213   6.845   1.997  12.799 -0.1563  0.0465  0.1727
14690W        W32214   2.887   0.384  12.235  0.0397 -0.0502 -0.2100
14691W        W32215   8.487   1.423   1.709  0.0854  0.0196  0.1558
14692W        W32216   7.658  10.635  11.253  0.0533 -0.2733 -0.0085
14693W        W32217   7.374  16.355  15.249 -0.1327 -0.2867 -0.1473
14694W        W32218  17.751   4.975   2.965 -0.0032  0.0230  0.0439
14695W        W32219   0.794   1.651  14.224 -0.2015 -0.2236 -0.0912
14696W        W32220  17.294   2.254  15.203  0.0278  0.0659 -0.0476
14697W        W32221  18.272   6.269   0.516 -0.0158 -0.0372 -0.4377
14698W        W32222   1.167  16.826   1.903 -0.0567  0.2083  0.0765
14699W        W32223  12.163   2.243  13.833  0.1845 -0.2844  0.0524
14700W        W32224   1.075  12.516  12.852  0.1615 -0.0344 -0.1655
14701W        W32225   1.990  10.363   1.741 -0.0281 -0.4608 -0.1074
14702W        W32226  13.508   9.949   3.649 -0.1468 -0.2385  0.0035
14703W        W32227  11.197   5.922   2.622  0.0843  0.0478 -0.1605
14704W        W32228   9.453  13.658   4.363  0.0796  0.0671 -0.1670
14705W        W32229  17.739  17.912  12.710 -0.1058 -0.2443  0.1080
14706W        W32230  14.901  17.540   2.069  0.0835 -0.4028  0.2024
14707W        W32231   3.840   9.026   4.961 -0.0870 -0.1454 -0.0329
14708W        W32232   6.417   2.384  12.085 -0.0528 -0.1283  0.1248
14709W        W32233   8.381  13.757   0.488  0.1039  0.0310 -0.1003
14710W        W32234  16.866   7.936  15.153  0.0481 -0.1531 -0.0160
14711W        W32235  10.402   2.004   0.652  0.1642 -0.3572 -0.0665
14712W        W32236  10.580   8.648  11.852 -0.2828 -0.0845  0.0048
14713W        W32237   9.299  13.324  13.763  0.0426  0.2924  0.2028
14714W        W32238  12.735   4.547  14.863 -0.2090  0.0561 -0.0426
14715W        W32239   6.585   1.377  12.613 -0.0326 -0.1169  0.2121
14716W        W32240  17.460   5.880  12.356 -0.0262  0.4194 -0.2372
14717W        W32241   6.496  15.341  13.426 -0.2228  0.0499  0.1889
14718W        W32242  12.917  16.803   1.924 -0.2189  0.0214  0.2198
14719W        W32243  16.960   9.159  13.523  0.0545 -0.0889  0.1559
14720W        W32244  13.541  16.040   0.800 -0.1949  0.0900  0.0733
14721W        W32245  12.391   4.910  15.677  0.0275  0.3093  0.1929
14722W        W32246   3.869  15.703  11.157 -0.1204  0.0248 -0.3216
14723W        W32247  12.258   0.871   5.307  0.1449  0.0602  0.2766
14724W        W32248  17.062  13.324   0.250  0.1919  0.3907  0.2678
14725W        W32249  11.493   1.928   2.049 -0.1617 -0.1597 -0.0294
14726W        W32250   9.237  12.964   1.861 -0.2365 -0.1737 -0.0512
14727W        W32251   1.505  13.375   2.480 -0.0878  0.0884  0.0243
14728W        W32252  17.221  11.886  15.751 -0.1296  0.0819 -0.0263
14729W        W32253   3.322  11.801  12.004 -0.1644  0.0217 -0.1368
14730W        W32254   8.371  12.242   4.975  0.0921  0.0631  0.0866
14731W        W32255   0.933   8.823  13.733  0.1918 -0.3467  0.2157
14732W        W32256   8.303  11.405   3.265  0.1619  0.0230  0.0085
14733W        W32257  16.199   4.761  10.709  0.2465 -0.2486 -0.2746
14734W        W32258  17.976  18.160  13.981 -0.1040 -0.0066 -0.0302
14735W        W32259  17.733   1.080  11.716 -0.0772 -0.1175  0.2459
14736W        W32260  15.910   2.289  14.359  0.0178  0.3790 -0.0618
14737W        W32261   9.331   7.060  11.505  0.4732  0.2204  0.0430
14738W        W32262  14.483   3.466   2.154 -0.2546  0.0258 -0.1831
14739W        W32263  13.634   9.431   0.755  0.2179 -0.0471 -0.3940
14740W        W32264   9.893   5.040  10.454  0.1664  0.4986 -0.1539
14741W        W32265  11.206  18.164   3.697 -0.0162 -0.0032  0.1564
14742W        W32266  15.130  12.527   4.375  0.0693  0.1003  0.0218
14743W        W32267  13.250  14.548  10.874 -0.0206  0.0524  0.0804
14744W        W32268   3.380  17.204   4.915 -0.3690  0.2077 -0.1544
14745W        W32269   6.273  13.323   1.780 -0.1135  0.0975 -0.1684
14746W        W32270  16.358   9.629  12.893  0.3119  0.1035  0.0117
14747W        W32271   6.165   2.419  14.093 -0.1986 -0.2939  0.2074
14748W        W32272   6.913  17.491  15.235 -0.4784 -0.0192 -0.3488
14749W        W32273  13.693  13.938   4.437 -0.0621  0.1321 -0.1128
14750W        W32274  10.499   6.438   1.366 -0.0464  0.2431  0.0699
14751W        W32275   1.416   8.861   3.498 -0.0015  0.0667  0.3157
14752W        W32276   8.955  15.765   1.271 -0.1992 -0.2588  0.0034
14753W        W32277  14.583  10.505  14.823  0.2530 -0.3041  0.2716
14754W        W32278   4.982  10.810  10.165 -0.2537 -0.0104  0.0450
14755W        W32279   2.584   9.087  11.660  0.0663  0.1177  0.2181
14756W        W32280  16.067   5.694  13.643 -0.0243  0.2342 -0.0647
14757W        W32281  10.073  16.333   4.877 -0.3001  0.1670  0.1075
14758W        W32282   9.356   6.465  12.831 -0.0170 -0.1743 -0.4372
14759W        W32283  13.129  11.295  13.265 -0.1516  0.3112  0.2324
14760W        W32284  11.957  11.722   3.821 -0.0148 -0.1271  0.0178
14761W        W32285  16.287   9.418   0.502 -0.2444 -0.0779 -0.2364
14762W        W32286   2.437  13.728   0.668  0.1604 -0.0144  0.0624
14763W        W32287  16.471   4.775   0.698  0.0956 -0.2579 -0.0385
14764W        W32288   5.182   1.217   0.828  0.1003 -0.0909  0.2327
14765W        W32289  10.032  17.462  13.527  0.1789 -0.1538  0.2908
14766W        W32290  17.398   4.586  12.153  0.0358  0.1140 -0.0486
14767W        W32291   8.745   2.798  14.923 -0.2399 -0.1640  0.0892
14768W        W32292  15.836  12.927   1.765 -0.2164 -0.0711 -0.1434
14769W        W32293   2.078  12.080   0.341 -0.3221 -0.0285 -0.0293
14770W        W32294   5.562   9.160  13.324  0.3251  0.1426 -0.1666
14771W        W32295   6.526  14.626   4.231  0.1512 -0.0903  0.2004
14772W        W32296   6.229   7.810   4.174 -0.1068  0.2761  0.2025
14773W        W32297   0.114   0.591   2.652 -0.1269  0.0447 -0.2239
14774W        W32298   5.636   8.733  11.323  0.1206  0.1033  0.1437
14775W        W32299   8.582  16.093   1.400  0.0779  0.1472 -0.1319
14776W        W32300   8.697   2.190  14.281 -0.1362 -0.1725 -0.1048
14777W        W32301  15.606  17.898  13.173  0.1002 -0.2831  0.0258
14778W        W32302  15.605  15.429  13.745 -0.1438  0.1054 -0.1189
14779W        W32303   0.034   4.230  11.080 -0.0324 -0.1304  0.1877
14780W        W32304  18.343  11.496   2.513  0.1533 -0.1301  0.2134
14781W        W32305  14.278  10.000  11.097 -0.1997  0.0727  0.0048
14782W        W32306   1.161  13.992  12.018 -0.1186 -0.0893  0.0333
14783W        W32307  13.771  15.056  13.985  0.0591  0.1412 -0.0006
14784W        W32308  17.893   9.391  11.798 -0.0509 -0.3811  0.1094
14785W        W32309   2.524  10.904  11.530  0.1141 -0.1084  0.4612
14786W        W32310   7.160  10.424  11.172 -0.0579 -0.0945 -0.1579
14787W        W32311  17.526  11.570  12.198 -0.1082  0.2119  0.1059
14788W        W32312  17.750  15.348   1.796 -0.0031  0.1272  0.2477
14789W        W32313  16.815  11.823  14.032 -0.5185  0.2204 -0.0598
14790W        W32314   1.546  15.487   4.450  0.1484  0.0743 -0.0384
14791W        W32315  11.892   7.197  10.829 -0.2130  0.0864  0.4724
14792W        W32316   6.990   3.493   1.558  0.4426  0.0977  0.4203
14793W        W32317   7.699   2.067   4.489 -0.0522  0.0722 -0.3013
14794W        W32318   1.322  15.085   0.792 -0.0328 -0.3836 -0.3534
14795W        W32319   7.429  15.526   2.045 -0.1343 -0.0639 -0.2607
14796W        W32320  12.827  12.140   2.401  0.0601  0.2112 -0.1107
14797W        W32321  13.600   3.937   2.083 -0.5124  0.2262  0.1567
14798W        W32322  16.553  14.989  13.710 -0.2166  0.0516  0.0533
14799W        W32323   1.600   8.775   2.959 -0.1333 -0.1692 -0.2043
14800W        W32324  18.038   1.700   1.830 -0.1574  0.2051  0.0245
14801W        W32325   0.926   9.928   3.201 -0.0671  0.0282  0.2288
14802W        W32326   0.800  11.490   3.467  0.2156  0.0038 -0.2476
14803W        W32327  12.745   9.204  12.780  0.0516  0.1976 -0.0169
14804W        W32328  15.622  11.883   5.003  0.0970  0.1445 -0.1665
14805W        W32329  11.364  15.518  15.576  0.0186  0.1464  0.0012
14806W        W32330   2.700  11.783  11.656  0.7707  0.0473  0.0603
14807W        W32331  16.509  17.507  14.152  0.0692 -0.0748  0.1151
14808W        W32332   5.202  17.354   4.776 -0.0118  0.1964 -0.0123
14809W        W32333   5.613  10.809  15.197 -0.0817 -0.0902 -0.0054
14810W        W32334  10.985   0.595  14.819 -0.0242  0.1864 -0.1634
14811W        W32335  13.316   3.318   3.720 -0.0712 -0.1584  0.0111
14812W        W32336   6.469  14.803   1.251  0.1735  0.0106 -0.2520
14813W        W32337  11.769   5.661   1.303  0.3167  0.1563  0.0873
14814W        W32338   6.207   3.896   0.525 -0.1025 -0.1661 -0.0541
14815W        W32339   2.441   2.449   4.456  0.1096 -0.1361  0.0477
14816W        W32340   3.768   9.271  13.986  0.1602  0.0355  0.0607
14817W        W32341  11.271   0.312  13.578  0.3954  0.2553 -0.0087
14818W        W32342   2.356   7.146   4.415  0.3454  0.1575  0.6406
14819W        W32343   7.135   9.438  12.034  0.0280  0.2010 -0.0633
14820W        W32344  15.560  18.283   3.092 -0.0001 -0.0651 -0.1786
14821W        W32345  10.190   8.075   3.189  0.3154  0.0110 -0.2122
14822W        W32346   0.305   7.610   2.461 -0.0480  0.1061  0.1991
14823W        W32347  18.098   0.878   1.271 -0.1284 -0.3394 -0.0489
14824W        W32348   7.093   3.299  13.885 -0.0787 -0.0704 -0.3363
14825W        W32349  13.549  14.665  14.621  0.3473 -0.3021  0.0754
14826W        W32350   6.359   7.177  13.486  0.0752  0.2778 -0.3983
14827W        W32351  11.566   5.650   2.371 -0.1270 -0.1169 -0.3904
14828W        W32352  16.904   7.326   4.158 -0.0227  0.1273  0.3901
14829W        W32353   9.675  18.112  15.508  0.0224 -0.1302  0.0542
14830W        W32354  18.153   4.425   2.872  0.0038 -0.1613  0.0306
14831W        W32355   1.840  14.054  14.971 -0.0895 -0.0094  0.2770
14832W        W32356  14.945  14.309   2.678 -0.2969 -0.2075  0.2088
14833W        W32357  14.354   8.640  11.660 -0.0075 -0.3149  0.1587
14834W        W32358   9.967   9.613   0.646  0.0175 -0.2779  0.1404
14835W        W32359   0.630  12.401   4.638  0.4686  0.4531  0.2479
14836W        W32360  10.707  12.365  13.581 -0.3263  0.1200  0.2023
14837W        W32361   5.652   6.587  13.638  0.2230 -0.1142 -0.1263
14838W        W32362  17.989  15.410   5.028  0.0839  0.0896 -0.0948
14839W        W32363  12.407  15.462   2.558 -0.0480  0.2840 -0.1086
14840W        W32364  16.779  16.250  12.788  0.0171 -0.0575  0.0672
14841W        W32365   1.019  10.437   4.755  0.0117  0.0384  0.0533
14842W        W32366  13.128  17.279   1.059  0.2592  0.0429 -0.5873
14843W        W32367   7.782  17.784  15.551  0.2984  0.2367  0.3144
14844W        W32368   5.076   9.290   4.082  0.0260  0.0065  0.2952
14845W        W32369   7.447  10.284  13.802  0.3023  0.2042 -0.3440
14846W        W32370   8.246   9.272  14.663  0.1845 -0.2388  0.5128
14847W        W32371   8.858   7.105   3.167  0.0487 -0.1627  0.2713
14848W        W32372   1.090   3.199   4.045  0.1600 -0.2613 -0.2773
14849W        W32373  12.068   4.905   5.223 -0.0464 -0.0887  0.2892
14850W        W32374  11.734  11.418   6.000 -0.0074 -0.1443  0.4609
14851W        W32375  13.673   3.052   5.447 -0.1215 -0.2373  0.1281
14852W        W32376   3.164  13.619  13.195  0.0058  0.0156 -0.2880
14853W        W32377  10.648   8.046   4.674  0.0621  0.4368 -0.0137
14854W        W32378   8.992   3.390   0.067  0.1450  0.0473 -0.2518
14855W        W32379  15.821   1.997  13.367  0.0490  0.0733  0.2961
14856W        W32380  10.775  13.170   3.713  0.1075 -0.0835 -0.0615
14857W        W32381  16.879  12.825   0.277 -0.3575 -0.1581  0.0659
14858W        W32382   9.339  16.592   0.636  0.1307 -0.1581 -0.0396
14859W        W32383  13.779  17.289  13.833 -0.0015 -0.0929 -0.2284
14860W        W32384   2.268   2.489  12.308  0.3437 -0.3949  0.0711
14861W        W32385  13.197   2.755   0.977 -0.2861  0.0017 -0.2256
14862W        W32386  12.577   7.229   1.906 -0.0804 -0.1180  0.1239
14863W        W32387  17.568  10.294   3.594 -0.1571  0.1683  0.2491
14864W        W32388  15.813   2.390   0.844  0.2902  0.1474 -0.2621
14865W        W32389   9.468   7.158   0.630 -0.1423  0.2509 -0.0660
14866W        W32390  10.949   4.706  11.256 -0.1247 -0.2425 -0.1201
14867W        W32391   2.660   8.597  13.761 -0.3477  0.1610  0.0378
14868W        W32392   4.604  13.073  11.337 -0.1459  0.0307 -0.2140
14869W        W32393  17.732  15.598  14.854 -0.1695  0.3534 -0.2617
14870W        W32394   3.276   6.690  11.779  0.3131 -0.1273  0.0352
14871W        W32395   0.563   7.640  12.455  0.1206 -0.0717 -0.0189
14872W        W32396   1.472   6.922  10.995  0.1641 -0.0926  0.0175
14873W        W32397   4.067  11.064   4.158  0.0064 -0.1668  0.1544
14874W        W32398  16.054   1.460  15.277 -0.0420  0.3963 -0.1728
14875W        W32399   9.997  18.139   2.394  0.0476 -0.0173 -0.0642
14876W        W32400  10.653  11.031   0.110 -0.1613  0.0591 -0.2054
14877W        W32401  18.244  10.806  14.349 -0.0199  0.1294  0.0999
14878W        W32402   7.484  10.513   1.367  0.2563 -0.2009  0.0216
14879W        W32403   9.454   6.888  13.189 -0.0233 -0.1292  0.1133
14880W        W32404   3.453   8.641  11.326 -0.0337 -0.1208 -0.0217
14881W        W32405   1.094   9.965   4.935  0.3338  0.1393  0.1977
14882W        W32406  16.195  18.033  12.023 -0.0912  0.2934 -0.0987
14883W        W32407   3.517  14.312   1.749 -0.0696 -0.0661 -0.0440
14884W        W32408   0.328  18.317  11.041 -0.0222 -0.0159 -0.3187
14885W        W32409  16.782  18.191  15.683 -0.1565 -0.2199 -0.3049
14886W        W32410  14.963  13.797   2.582  0.1014  0.1506 -0.1916
14887W        W32411   2.738   1.170  14.726 -0.0540  0.1884 -0.1344
14888W        W32412   3.649  18.051  14.337 -0.3152  0.2168  0.3669
14889W        W32413   1.319   6.426   0.611 -0.1945 -0.2010  0.0629
14890W        W32414  13.031   2.864   0.511  0.2866  0.0753 -0.1210
14891W        W32415   1.842   0.445  13.143  0.0031  0.1828 -0.3183
14892W        W32416  16.566   9.812   2.764  0.0564  0.0928  0.0407
14893W        W32417  16.119  16.991  11.471  0.2490 -0.2036 -0.2189
14894W        W32418   6.805  12.179   2.084  0.1188  0.1337  0.0216
14895W        W32419  16.018  17.737   0.882  0.0951  0.0645  0.0290
14896W        W32420  12.221   6.105   3.775  0.0182 -0.2922 -0.3546
14897W        W32421  10.519  12.759   2.505  0.1599 -0.1503 -0.1344
14898W        W32422   4.239  18.196   1.856  0.0554 -0.1153  0.2225
14899W        W32423   3.103   1.890   4.952  0.0417  0.0673 -0.1452
14900W        W32424  12.681  10.553  12.909  0.0524  0.1155  0.2507
14901W        W32425  10.543   8.583   0.714 -0.0430 -0.2309  0.1947
14902W        W32426   3.241   6.100  11.730 -0.1127  0.0774  0.0850
14903W        W32427   6.249  17.897   3.005 -0.2321  0.3413 -0.0641
14904W        W32428  17.202  11.867  14.776 -0.1963 -0.0956  0.2243
14905W        W32429   0.677   4.800   0.969  0.1583 -0.4176 -0.0215
14906W        W32430   3.464   3.464  14.898 -0.2416 -0.1809  0.0848
14907W        W32431  15.642   9.071  15.459  0.0777 -0.1139 -0.0665
14908W        W32432  10.968   5.055   0.102  0.0615 -0.4578 -0.2757
14909W        W32433   9.522   0.421  14.129  0.2838 -0.3608  0.2449
14910W        W32434  13.231   2.634   9.767 -0.0518  0.0813 -0.0308
14911W        W32435  16.708   8.799   5.341 -0.2720 -0.2046 -0.1238
14912W        W32436   3.626   8.970   1.480  0.0252 -0.0324 -0.1578
14913W        W32437  16.442  10.968  11.383  0.1136  0.2143 -0.1597
14914W        W32438   1.810   4.246  13.179  0.0080  0.1323 -0.1278
14915W        W32439   1.535  12.021   3.814 -0.0217  0.1562  0.0321
14916W        W32440   7.609   3.091  13.776  0.2447  0.1807 -0.2734
14917W        W32441  10.165  15.940   2.160  0.0851  0.2647  0.2642
14918W        W32442   0.748  13.010   3.193  0.2359 -0.0466 -0.1194
14919W        W32443   1.456  16.691   4.787 -0.2884  0.0886  0.0612
14920W        W32444   3.213  12.507   4.731  0.0426  0.0746  0.3770
14921W        W32445  17.773   0.239   4.739 -0.4066  0.0897 -0.2527
14922W        W32446   0.308   0.663   4.359  0.0276 -0.1894  0.1207
14923W        W32447  16.338  13.788  14.050 -0.0711  0.4018  0.0401
14924W        W32448   3.341   3.560   3.416 -0.0256 -0.2776  0.0316
14925W        W32449   6.703  12.009  15.770  0.0076 -0.2315  0.0834
14926W        W32450  18.395   6.261  11.413  0.0285  0.2358  0.1647
14927W        W32451   7.072   0.911   2.108 -0.2447 -0.2230 -0.0040
14928W        W32452   3.722  16.293   2.006  0.2837 -0.1270 -0.2883
14929W        W32453  17.723   4.422  12.981  0.0065 -0.3442 -0.0595
14930W        W32454  15.412   5.210   5.299  0.1262 -0.2032  0.0847
14931W        W32455   8.230  11.316  12.157 -0.3914  0.3872 -0.1934
14932W        W32456   2.225   0.249  15.706 -0.2332 -0.0856 -0.1753
14933W        W32457  13.536  14.713  11.240 -0.1302  0.2177 -0.1456
14934W        W32458  17.780   3.239   2.493 -0.1137  0.1126 -0.2232
14935W        W32459   3.241   8.542  15.484 -0.1885  0.0750 -0.1354
14936W        W32460  18.398   1.885   3.768 -0.0020 -0.0242 -0.0270
14937W        W32461   5.248   7.213   3.494  0.0448 -0.0698 -0.3615
14938W        W32462  18.062   1.446  12.040 -0.0901  0.1651 -0.2092
14939W        W32463  15.690   8.521   3.095  0.0614 -0.1410 -0.2388
14940W        W32464  10.670  10.934   1.893 -0.3325  0.1049 -0.1763
14941W        W32465  14.901   2.272   2.293  0.0594 -0.3464  0.0157
14942W        W32466   2.323  18.056  14.106  0.2570  0.0330  0.1897
14943W        W32467   8.360  15.027   2.826  0.3280  0.1536  0.1066
14944W        W32468   6.093   3.185  14.179  0.1925 -0.0883 -0.2077
14945W        W32469   1.670  11.970  15.705 -0.0388 -0.2408 -0.0535
14946W        W32470   0.857  14.366   5.024 -0.1838  0.3143 -0.1979
14947W        W32471   5.653   2.374   1.963  0.1404 -0.0675 -0.2489
14948W        W32472  16.074   0.520   3.755 -0.2289  0.1242  0.0515
14949W        W32473   6.517   0.524  14.738  0.3303  0.1065 -0.0034
14950W        W32474  11.492   1.471   4.659  0.1925  0.4270  0.1805
14951W        W32475  17.175  11.706  11.234 -0.1732 -0.2530  0.1477
14952W        W32476   7.309   5.373   3.324 -0.0797 -0.3510  0.2056
14953W        W32477  12.440   3.969  15.240 -0.1186 -0.1231 -0.1038
14954W        W32478   1.768   9.739  10.731 -0.1421 -0.1993 -0.1088
14955W        W32479  17.221   6.962   2.421 -0.0035  0.0107  0.0129
14956W        W32480  17.238  12.502  14.431  0.3092  0.0898 -0.2031
14957W        W32481   1.740   0.599   3.407  0.0173 -0.1776  0.3273
14958W        W32482  18.299   2.285  13.492 -0.0478 -0.0573 -0.2050
14959W        W32483   8.656   2.792   4.413  0.2240  0.1292 -0.4466
14960W        W32484   4.510  10.216   2.620 -0.0858 -0.0817 -0.1717
14961W        W32485   5.334  10.392  11.453 -0.1775  0.0233  0.0184
14962W        W32486  14.603  15.485   3.533  0.1755  0.0232  0.1289
14963W        W32487  15.560  10.500   1.915  0.2616  0.0203 -0.0714
14964W        W32488   9.940   5.568   0.308 -0.1557 -0.1476  0.1439
14965W        W32489  11.363  11.129  14.071 -0.5293  0.0010 -0.2402
14966W        W32490   8.751   6.340  10.851  0.2420 -0.3465 -0.3370
14967W        W32491   5.078  16.584  10.857  0.1988 -0.4075 -0.2123
14968W        W32492  10.136  14.111   0.926 -0.2338 -0.3499 -0.1554
14969W        W32493  18.156   4.716  14.256 -0.1995  0.2160 -0.0608
14970W        W32494  15.017  10.505   0.514 -0.0462  0.0825 -0.2954
14971W        W32495  12.035   1.965  11.333 -0.1600 -0.2207  0.0460
14972W        W32496  16.438   8.934   0.404  0.1897 -0.1439  0.1664
14973W        W32497   7.323   6.439  13.301  0.0886 -0.0442  0.1615
14974W        W32498   6.550   1.190   0.277  0.0174 -0.1306 -0.0940
14975W        W32499  10.607   1.887   4.477  0.3074  0.2243 -0.3903
14976W        W32500  18.059   7.319   0.763 -0.1539 -0.2788  0.0847
14977W        W32501  11.395  11.766   0.245 -0.0051  0.0012  0.0889
14978W        W32502  13.668   9.589   3.919  0.0147  0.2695 -0.0175
14979W        W32503   6.146   0.242  12.524  0.2006  0.3987  0.2524
14980W        W32504  14.824   9.491   4.640  0.0272  0.3500  0.2239
14981W        W32505  10.020   0.349   3.071 -0.0036  0.1931 -0.1825
14982W        W32506   0.222  13.592   1.970 -0.1922  0.0228 -0.0983
14983W        W32507  13.740   4.173  13.901  0.2001 -0.0220 -0.2038
14984W        W32508  14.775  13.000   1.050 -0.0420 -0.0765 -0.0321
14985W        W32509   1.074   2.240   4.532 -0.1881 -0.2619  0.3004
14986W        W32510   0.630   1.472   1.392 -0.1559  0.4433 -0.2610
14987W        W32511   7.924   7.670  14.191 -0.1057 -0.2099 -0.1748
14988W        W32512   4.467   0.456   4.775 -0.1949 -0.1728  0.0932
14989W        W32513  12.515  18.074   0.621  0.0687 -0.1916  0.1606
14990W        W32514   3.223  16.975  15.798 -0.1392 -0.0495 -0.0284
14991W        W32515  14.052   3.563   4.317  0.0421 -0.0361  0.0761
14992W        W32516  17.946  16.487  14.808  0.1744  0.3758 -0.1693
14993W        W32517   5.906  11.773  10.689 -0.2668 -0.3115  0.0172
14994W        W32518   9.177   8.350  11.322  0.2414  0.1270  0.0261
14995W        W32519  16.122   3.274   0.373 -0.2587 -0.2437  0.0018
14996W        W32520   2.167  12.897  11.256  0.2483  0.2300 -0.1937
14997W        W32521   0.547   2.051   2.192 -0.1748  0.1170  0.0896
14998W        W32522  14.763  17.095  11.695 -0.0231  0.1501 -0.0341
14999W        W32523   0.134   9.846  13.725 -0.0787  0.0734 -0.0095
15000W        W32524   7.829   1.751  13.578 -0.1177 -0.3800 -0.0005
15001W        W32525   7.255  17.123  15.726  0.1174  0.1855  0.0340
15002W        W32526  14.925   8.339  12.440  0.2480 -0.1117 -0.0986
15003W        W32527   7.399   4.688  15.566 -0.2205 -0.2634  0.0428
15004W        W32528  15.893  12.069  13.082 -0.0829 -0.1130  0.2124
15005W        W32529   0.042  14.459   3.330 -0.3729 -0.2394  0.1941
15006W        W32530   5.536  16.538  15.670  0.2479  0.0144 -0.1395
15007W        W32531  17.735  15.759   1.228 -0.3298 -0.0203 -0.0067
15008W        W32532  16.596   3.749   0.677  0.1252 -0.0455 -0.1920
15009W        W32533  13.035  14.577   5.422  0.3337  0.2815 -0.1764
15010W        W32534  17.305   0.828  12.386 -0.1818 -0.2785 -0.2708
15011W        W32535   6.296   9.418   3.234  0.1154  0.0693 -0.2110
15012W        W32536   1.026  16.846   4.583  0.0647 -0.3089  0.2039
15013W        W32537   5.235  16.963  12.275 -0.3173  0.0676  0.0066
15014W        W32538  12.591   6.438   1.874 -0.3638 -0.2242  0.1312
15015W        W32539  16.269  13.605   0.568  0.0213 -0.1489  0.2728
15016W        W32540   8.552  12.466   4.544  0.0635  0.0620 -0.1394
15017W        W32541  10.536  12.936  14.269 -0.0719  0.1737 -0.0313
15018W        W32542   0.163   7.910  13.037 -0.0981 -0.1737  0.5230
15019W        W32543   0.822   1.315   2.329 -0.0240  0.0127 -0.1550
15020W        W32544   2.353   7.619   4.257 -0.0001  0.0048  0.1156
15021W        W32545   0.544  11.117   0.817 -0.1017  0.0775 -0.0491
15022W        W32546  15.820  17.990   4.153 -0.1822  0.0676 -0.0861
15023W        W32547   6.361   5.135   3.026 -0.0749 -0.1283 -0.0004
15024W        W32548  12.620   4.922   4.458 -0.0607 -0.2236  0.0951
15025W        W32549   6.983   9.870  14.172  0.2495 -0.3529 -0.1658
15026W        W32550   9.411   2.185  11.373  0.1234 -0.1759 -0.2584
15027W        W32551   4.661  15.417   1.423  0.0031  0.0232  0.0257
15028W        W32552  11.818  10.785   1.781  0.0115  0.1866  0.2010
15029W        W32553  10.090   6.618  11.711 -0.4428 -0.0133 -0.2408
15030W        W32554  12.337   1.812   2.735  0.0783 -0.1462  0.0028
15031W        W32555  12.497  14.166   1.581 -0.2395 -0.0638 -0.2014
15032W        W32556   3.041   7.818   2.443 -0.0487 -0.1954  0.0251
15033W        W32557  18.247  15.575   3.170  0.0673 -0.0435 -0.2899
15034W        W32558   8.920   5.143   0.398 -0.0470  0.1553  0.0158
15035W        W32559   1.279  18.378   4.628 -0.3064 -0.4820 -0.1864
15036W        W32560  16.484   8.540  14.035 -0.0991 -0.0262 -0.0916
15037W        W32561  16.588   5.176  15.344  0.0635 -0.4119 -0.1918
15038W        W32562  16.719   9.270   4.505  0.1723 -0.0159 -0.2814
15039W        W32563   8.163   7.546  15.626  0.1922  0.3415 -0.1462
15040W        W32564  18.218  18.090   2.301  0.0128  0.1691  0.1706
15041W        W32565  10.630   6.477   3.825 -0.2968 -0.1028 -0.2925
15042W        W32566  14.093  14.703   5.054  0.0283  0.0119  0.2526
15043W        W32567  17.017  14.455  13.257  0.0705  0.4275  0.2775
15044W        W32568   4.592   9.750   3.303 -0.0142  0.0911 -0.1665
15045W        W32569   0.999   7.790   4.444 -0.1030  0.2718  0.4151
15046W        W32570   8.420  17.029   2.691 -0.5100 -0.3834 -0.1593
15047W        W32571   4.937   8.158  12.633  0.1822 -0.2649 -0.2996
15048W        W32572   6.603  10.151   1.024 -0.1790  0.2319 -0.2628
15049W        W32573   1.612  13.730  11.252 -0.2490 -0.4154  0.1465
15050W        W32574   9.462   7.333  11.116  0.0824 -0.0000 -0.2051
15051W        W32575  14.055  13.379   2.505  0.1674  0.1763  0.0733
15052W        W32576  14.454  10.909  14.393  0.1570  0.2720 -0.2629
15053W        W32577  10.348  16.226  15.598  0.1670 -0.0634 -0.1120
15054W        W32578  13.549   7.475  14.748 -0.0631  0.2030 -0.0394
15055W        W32579   2.073  15.356   0.351  0.3001  0.1828  0.0397
15056W        W32580  14.616  10.328  12.460 -0.2796 -0.1176 -0.1118
15057W        W32581   0.631   7.996  12.790 -0.0211  0.1683  0.1422
15058W        W32582  18.257   6.211  11.991 -0.0003  0.0796  0.2699
15059W        W32583   1.665   9.748   4.221  0.2502 -0.1130  0.0586
15060W        W32584   3.340  16.626  11.001  0.3825  0.4179 -0.0659
15061W        W32585  17.065  14.413   1.380  0.0872 -0.1297 -0.1365
15062W        W32586  15.478  14.186   2.821  0.1874  0.0959 -0.0349
15063W        W32587  14.914  14.075  13.794 -0.2401 -0.1078  0.0113
15064W        W32588   4.097  17.225  13.232 -0.3917  0.1614 -0.2216
15065W        W32589   0.791  14.716  14.284 -0.1857 -0.3424  0.1210
15066W        W32590   9.277  15.467  11.712  0.0625  0.2444 -0.0302
15067W        W32591   0.666  10.678  14.440  0.1416 -0.0224  0.2600
15068W        W32592   0.951   5.166   2.493  0.1101  0.2861  0.1915
15069W        W32593  13.927  15.814  12.016  0.0835  0.4214  0.0174
15070W        W32594  15.818   7.142   1.616  0.0577  0.0888 -0.0342
15071W        W32595  15.944   9.456   3.572  0.2413 -0.0254  0.1551
15072W        W32596  12.071   5.413   5.325  0.3691  0.3036  0.1920
15073W        W32597  15.015  16.035   0.484 -0.0204  0.1387 -0.2238
15074W        W32598  12.254   8.658   0.365  0.1706 -0.1691 -0.0728
15075W        W32599  17.614  11.490  10.977 -0.2148 -0.2194 -0.0840
15076W        W32600  15.389   7.076  11.912 -0.0916 -0.1050  0.2937
15077W        W32601  17.491  18.208  12.384 -0.1764 -0.0217  0.2322
15078W        W32602  14.198   3.219   0.707  0.1649 -0.0731 -0.0863
15079W        W32603  15.978  11.828   0.436  0.2872 -0.0602  0.0535
15080W        W32604   5.809  15.486   0.856 -0.0414 -0.2419  0.0463
15081W        W32605   3.198   8.075   4.223  0.2601 -0.1213  0.0461
15082W        W32606   4.589   7.579   4.123 -0.0775 -0.0970 -0.0619
15083W        W32607   5.213  11.736   1.091 -0.1762  0.0258 -0.0252
15084W        W32608   4.819  18.172   3.610  0.0743 -0.1219  0.1788
15085W        W32609   0.903   8.898   2.165 -0.0539  0.1290 -0.1957
15086W        W32610   3.476   6.417   4.362  0.1128 -0.0949 -0.0518
15087W        W32611   9.269  17.755   1.779 -0.2864  0.1450  0.2580
15088W        W32612   5.962  17.730   2.345 -0.0041  0.4087  0.2406
15089W        W32613   7.930  15.109   1.640 -0.1010  0.0103  0.0833
15090W        W32614  17.760   7.336  14.402  0.1082  0.2805  0.2370
15091W        W32615   7.127   3.615   2.124 -0.0651  0.0958 -0.1413
15092W        W32616   2.800   6.770  10.170 -0.1668  0.1021  0.1669
15093W        W32617   7.707   5.730   2.963  0.3975 -0.0359  0.0895
15094W        W32618  12.639  10.113   4.475 -0.0209  0.1531 -0.0218
15095W        W32619   4.260   5.537   2.758 -0.0666 -0.0148  0.1161
15096W        W32620  18.404  13.173   2.268 -0.2967  0.2935 -0.3929
15097W        W32621   6.176   0.197  14.284  0.1088  0.0475 -0.2377
15098W        W32622   4.319   3.148  11.593  0.0207 -0.0617 -0.1359
15099W        W32623   8.962  16.260  13.339  0.0159  0.4342  0.0333
15100W        W32624  13.587   5.515  11.406  0.1833 -0.3932  0.0243
15101W        W32625   9.250  14.055  11.248  0.2378 -0.1566  0.1087
15102W        W32626  18.335   0.966   3.925  0.0824  0.2503 -0.4123
15103W        W32627  17.206   9.375  15.079  0.1792 -0.1743 -0.4832
15104W        W32628  18.233   8.427  13.318 -0.2495  0.3013  0.1867
15105W        W32629  15.477  16.367  10.990 -0.0011 -0.2821 -0.1183
15106W        W32630   6.481   7.263  13.963 -0.3165 -0.1783  0.0824
15107W        W32631  11.480  16.641   1.436 -0.0310 -0.3037  0.1056
15108W        W32632   1.533  11.734   2.131  0.2966  0.2857 -0.0573
15109W        W32633  12.471   3.305  14.447 -0.0547 -0.1239 -0.0359
15110W        W32634  12.002   2.790  12.951 -0.0736  0.0309 -0.1879
15111W        W32635   3.942   2.799   1.807 -0.5227  0.0145  0.0361
15112W        W32636   0.814  12.752   0.440 -0.0081 -0.0908  0.1726
15113W        W32637  10.297   9.961  13.430  0.0695  0.0189 -0.1467
15114W        W32638   6.606   9.551  13.913 -0.1064  0.2780 -0.0389
15115W        W32639  12.794  14.774  14.941 -0.0387  0.0254 -0.0463
15116W        W32640   5.473   2.183  12.717  0.1426  0.1472 -0.1449
15117W        W32641  10.950   5.452   4.193 -0.0402  0.4055 -0.1217
15118W        W32642   7.856  15.591   4.575 -0.0201 -0.0308  0.2856
15119W        W32643  14.555   2.620   4.013  0.0869  0.0051 -0.0870
15120W        W32644  18.174  15.198   0.670  0.0187 -0.0863  0.0471
15121W        W32645  11.941  11.450   2.619 -0.2209  0.2171  0.2932
15122W        W32646   9.805   4.206   1.568 -0.2077 -0.0686  0.1987
15123W        W32647  10.287   5.131  13.503 -0.1779 -0.0716  0.0353
15124W        W32648   8.804   8.302  13.269  0.2440 -0.1719 -0.1252
15125W        W32649   0.071  12.848   1.454  0.0736  0.0092  0.1005
15126W        W32650  16.984  10.961  12.253 -0.0582  0.0044 -0.0343
15127W        W32651   0.689   0.177   2.391 -0.0179  0.0365  0.3612
15128W        W32652   1.518  18.334   0.069  0.1152 -0.1097 -0.0635
15129W        W32653  17.555   7.985  14.525  0.0533 -0.4280  0.1291
15130W        W32654   1.728   4.690  13.000  0.1118  0.3285  0.2727
15131W        W32655   5.299   3.004   4.486 -0.4314 -0.1496 -0.1337
15132W        W32656  15.722  13.831  13.307 -0.1868  0.0158 -0.0424
15133W        W32657  14.927   3.721   3.489  0.1182  0.2131 -0.0479
15134W        W32658  15.372  11.049   4.097 -0.0297 -0.1714  0.1066
15135W        W32659   5.733  17.540   4.158  0.1666 -0.0041 -0.1918
15136W        W32660   2.232   5.892  12.956 -0.0457 -0.2428  0.0281
15137W        W32661  10.272  11.521  12.705 -0.0320  0.0250 -0.3053
15138W        W32662   9.305   5.443  14.703  0.2157  0.4803 -0.0995
15139W        W32663   4.730   3.742   2.991 -0.1849  0.2879  0.0240
15140W        W32664   5.180  13.443   2.977 -0.1294  0.0917 -0.0833
15141W        W32665   2.451  11.203  14.029 -0.0760 -0.2163  0.0160
15142W        W32666  10.330  13.470  13.342  0.0070  0.1677  0.0433
15143W        W32667   2.292   8.331   4.375 -0.1703  0.3116 -0.1792
15144W        W32668   7.315  16.399  12.994  0.0106  0.0373  0.1558
15145W        W32669   9.498  12.780  15.509 -0.1800  0.2245  0.1819
15146W        W32670  17.431   3.983   0.331  0.0602  0.0302 -0.1944
15147W        W32671   1.016  16.985  13.246  0.0743  0.2521  0.4036
15148W        W32672  11.878   4.227  14.622 -0.1085 -0.2107  0.1654
15149W        W32673   8.303   7.812   0.201 -0.5194 -0.0430 -0.1179
15150W        W32674  10.625  15.849   2.311  0.1074  0.1536 -0.1781
15151W        W32675   8.889  10.106   4.848 -0.0011 -0.0489  0.0077
15152W        W32676  18.386   3.050   4.461 -0.0009  0.1589  0.0409
15153W        W32677   1.072  13.818  14.440  0.2006 -0.1432 -0.0177
15154W        W32678   6.135  18.149  13.976  0.1729 -0.1015 -0.2908
15155W        W32679  13.858   9.009  13.017  0.0414  0.1083 -0.0087
15156W        W32680  18.392  16.136  15.485  0.1684  0.0770  0.0012
15157W        W32681  14.991  17.313   5.442  0.1992 -0.0299  0.1639
15158W        W32682   1.311  10.702   2.613  0.0422 -0.1771 -0.3510
15159W        W32683  11.023   5.704  12.092 -0.0414  0.0169  0.2204
15160W        W32684   3.531   9.893  12.323  0.2122 -0.0904  0.1529
15161W        W32685  13.352   1.243   1.068  0.2237 -0.0458 -0.3448
15162W        W32686  16.791   9.705   4.155  0.2013 -0.2048  0.0258
15163W        W32687  17.817   2.940  15.424  0.0460 -0.0602  0.0407
15164W        W32688   9.800   4.583   0.136 -0.2328  0.0007  0.1539
15165W        W32689   9.976   0.670  14.022 -0.4078 -0.2965  0.0136
15166W        W32690  13.761   2.198   2.476 -0.0623 -0.1086  0.4970
15167W        W32691  13.208  11.140  10.909 -0.2921  0.2842  0.0732
15168W        W32692   8.877  18.244  13.316 -0.0682 -0.1087  0.1782
15169W        W32693   7.257   9.517   4.140 -0.0873 -0.2108  0.3311
15170W        W32694   0.305   3.732  14.489 -0.0225 -0.3441  0.0684
15171W        W32695  12.704   3.292  13.449 -0.1053 -0.1083  0.1523
15172W        W32696  10.922  10.270  14.614  0.1128 -0.1373  0.1372
15173W        W32697  11.259   7.550  15.105  0.0917 -0.1136  0.0092
15174W        W32698  13.396  15.239  12.499 -0.1169  0.0267  0.2354
15175W        W32699  15.592   0.092   3.547  0.1653  0.0705 -0.2447
15176W        W32700  14.012   9.832   4.363 -0.0815  0.2166  0.2696
15177W        W32701  15.217  10.331  12.294 -0.1777 -0.2367  0.0737
15178W        W32702  16.328   3.355   0.857  0.1245 -0.1263  0.2125
15179W        W32703  13.636  10.285   2.726  0.3376  0.0417 -0.0505
15180W        W32704   1.342   3.636  15.317 -0.1191 -0.2448 -0.2572
15181W        W32705  17.862  11.891  12.411  0.1084 -0.0237  0.0235
15182W        W32706   1.890   3.739   2.497  0.0439 -0.1710 -0.1336
15183W        W32707  10.900  12.919  11.876 -0.1574  0.0463 -0.0928
15184W        W32708   0.625  17.310   4.607  0.1169 -0.0325  0.1177
15185W        W32709   9.443   9.092  11.441 -0.3975 -0.0018  0.0334
15186W        W32710   9.976   3.985   3.988  0.1242  0.3095  0.0478
15187W        W32711  13.882   0.798   0.977 -0.1105 -0.1019 -0.0677
15188W        W32712   6.366   8.719   1.678 -0.1943 -0.0120 -0.0264
15189W        W32713   7.137  12.725  10.811 -0.0352  0.3155 -0.1948
15190W        W32714   3.958  17.624  11.250 -0.0708  0.2339 -0.0531
15191W        W32715  16.210   1.770  13.044 -0.0819 -0.1500  0.2158
15192W        W32716  17.115   7.503   1.430 -0.0002  0.2276  0.2146
15193W        W32717   9.192   0.361  13.737  0.0825  0.3229  0.1616
15194W        W32718   2.880   1.185   2.097  0.1568 -0.0083  0.0725
15195W        W32719   2.378   6.598   1.754 -0.1117 -0.1000  0.0457
15196W        W32720  11.803  10.762  15.240  0.0287 -0.1635  0.0123
15197W        W32721   9.410   2.035  15.796 -0.1028  0.0417 -0.2619
15198W        W32722   8.728   3.903  13.663 -0.0616  0.0156 -0.3160
15199W        W32723  10.014   5.031   2.758  0.1026 -0.0975  0.2427
15200W        W32724   5.186  11.053   2.679  0.1999 -0.2668 -0.1935
15201W        W32725   8.212   7.020   3.190 -0.0969  0.3734  0.0228
15202W        W32726   0.940  12.992  12.009 -0.4105 -0.0599  0.2283
15203W        W32727   2.620   3.387   0.952  0.1672 -0.4048  0.0256
15204W        W32728  10.067  12.844  11.446 -0.2226 -0.1375  0.1173
15205W        W32729   5.820   2.958  14.602  0.0321 -0.0365 -0.3909
15206W        W32730   1.285   1.390  13.271  0.0696  0.0599  0.4316
15207W        W32731  13.632  13.202  15.500  0.2447 -0.2306 -0.0909
15208W        W32732   7.634   8.848  13.846 -0.2760  0.2622  0.0528
15209W        W32733   0.593  17.994   2.660 -0.2846 -0.1409 -0.1826
15210W        W32734  12.649  12.422   3.883  0.1303 -0.2416  0.2607
15211W        W32735   2.635  12.107   0.293  0.1324 -0.1887  0.2739
15212W        W32736  10.039  10.635   3.078 -0.3757 -0.1345  0.0545
15213W        W32737   5.202  14.061   0.845 -0.0131  0.0644 -0.0761
15214W        W32738  17.668  10.984  10.861 -0.0061  0.3267 -0.1753
15215W        W32739   7.771  12.895   1.923  0.0681 -0.0867 -0.0775
15216W        W32740  14.889  15.902   3.771  0.0796  0.1800  0.0235
15217W        W32741  11.945  17.986  11.595 -0.3198  0.3747 -0.3893
15218W        W32742  16.228  11.219   4.206  0.0740  0.0801  0.1437
15219W        W32743  17.929   8.100  13.171  0.1612 -0.1806  0.1765
15220W        W32744   5.712   2.967  13.882 -0.1410 -0.0362  0.1045
15221W        W32745   2.219   4.395  14.696 -0.1703 -0.2741  0.0278
15222W        W32746   5.912   0.025  11.283  0.3661 -0.1827 -0.1178
15223W        W32747  10.201  11.107   4.618 -0.0166 -0.3482 -0.1178
15224W        W32748   8.067   0.400  11.313  0.0902 -0.0222 -0.3341
15225W        W32749  11.641   0.154  15.341 -0.0679 -0.1987 -0.3786
15226W        W32750   2.482   6.259  14.503 -0.0683  0.1449  0.1831
15227W        W32751   1.977   5.903  11.836 -0.0707  0.0938 -0.0270
15228W        W32752  14.766   0.517  14.771  0.1705  0.1570  0.2084
15229W        W32753   8.203   7.809   1.894 -0.1793 -0.4318 -0.2528
15230W        W32754   6.716   1.583   0.588 -0.2083  0.4448 -0.1042
15231W        W32755   9.942  14.361   6.170  0.1438 -0.1481 -0.0345
15232W        W32756   6.777   5.422  14.027 -0.1488  0.0746  0.0027
15233W        W32757  11.964  10.184  13.143 -0.1137 -0.0280 -0.2520
15234W        W32758  11.134   1.003  10.404  0.0225 -0.0416 -0.4040
15235W        W32759   7.962   0.147   3.923 -0.2065 -0.0139 -0.0952
15236W        W32760  14.976  12.102  15.225  0.1586  0.1096  0.1986
15237W        W32761  12.666  17.302  15.413  0.2378  0.0212  0.2344
15238W        W32762  11.078   9.076   3.175 -0.0171  0.1022  0.1975
15239W        W32763  15.542  13.344  13.421  0.0462 -0.1975  0.2045
15240W        W32764  12.930  18.245   4.374  0.0673 -0.0525  0.1013
15241W        W32765   1.734  11.601  11.455  0.3100  0.1540 -0.1944
15242W        W32766   1.500   3.041   3.738  0.0629 -0.0580  0.2742
15243W        W32767   0.991   2.158  11.604 -0.2292 -0.2017  0.2797
15244W        W32768   8.758   2.668  14.431  0.0391 -0.0388  0.2324
15245W        W32769   2.562  11.619  14.239 -0.2376  0.2103  0.1167
15246W        W32770   2.882   5.605   0.538  0.0167 -0.1479 -0.2817
15247W        W32771   2.502  17.288   2.926  0.0833  0.0890  0.0361
15248W        W32772   5.995  10.851  14.783 -0.0701  0.0851  0.3473
15249W        W32773   3.790  16.303   2.489  0.4322 -0.3162  0.0069
15250W        W32774   5.144   6.469   2.036 -0.2979 -0.1165  0.0188
15251W        W32775  16.816  13.124  12.825  0.0902 -0.0850 -0.1353
15252W        W32776   5.447   8.074   3.068  0.1568  0.1695  0.0204
15253W        W32777   7.173  12.670  14.116 -0.0265 -0.0996 -0.1333
15254W        W32778   6.810   5.953  11.846  0.0802  0.2598  0.0673
15255W        W32779   2.943  14.650  14.594 -0.4858  0.2152  0.3430
15256W        W32780   8.402   3.966   1.494 -0.0474  0.1109  0.1387
15257W        W32781  15.747  16.643   0.145  0.4452 -0.0516  0.2207
15258W        W32782   6.182   3.231   1.198 -0.0888 -0.0857  0.0177
15259W        W32783   9.263  12.382  11.377  0.1519 -0.0481 -0.0923
15260W        W32784   3.389   8.457  13.066 -0.1167  0.0221  0.1708
15261W        W32785  14.050  14.603   3.385 -0.1137  0.1442  0.1953
15262W        W32786   7.710   9.583   1.428  0.1212  0.1792 -0.3021
15263W        W32787   8.779  17.985   1.210 -0.2697 -0.2016 -0.1961
15264W        W32788  15.630   3.962   3.923  0.4393  0.1991 -0.1783
15265W        W32789   0.286  13.163   3.053 -0.2337  0.1117  0.1323
15266W        W32790  12.896   5.616   0.327 -0.1331  0.0955  0.1271
15267W        W32791  18.409   3.690   3.220 -0.2624  0.3493 -0.0508
15268W        W32792   8.343  16.782   4.691 -0.1531  0.0447  0.4085
15269W        W32793   7.603   7.600  13.164 -0.0330  0.1474  0.0872
15270W        W32794   4.209  18.256  14.913  0.2201 -0.2133  0.2245
15271W        W32795  12.367   2.844   1.669  0.2247 -0.1892  0.0857
15272W        W32796  16.085   4.941   0.207  0.1225 -0.2233 -0.0597
15273W        W32797   2.599   0.508  15.006 -0.0279 -0.3331 -0.2488
15274W        W32798   6.953   4.513   0.533 -0.0688  0.1578 -0.2564
15275W        W32799  11.011   1.587   2.916  0.1068 -0.0527  0.1340
15276W        W32800  15.662  15.761   4.639 -0.1011  0.2104 -0.3504
15277W        W32801  16.799   4.310  14.195 -0.1064  0.0483 -0.0766
15278W        W32802  12.608  15.270  15.652 -0.3112  0.3866  0.0913
15279W        W32803   9.192  10.892   1.008 -0.2712 -0.0428  0.0181
15280W        W32804  12.300  14.873  11.107 -0.0713  0.1116  0.1069
15281W        W32805  17.353  10.126  12.493 -0.0399 -0.4311  0.1865
15282W        W32806  13.476   2.130   5.089  0.3838  0.1146  0.2250
15283W        W32807   3.330   7.257   4.255  0.0617  0.0503  0.2971
15284W        W32808  15.513   0.218   1.136 -0.0503 -0.0833 -0.0386
15285W        W32809  17.044   1.926  13.432 -0.1577 -0.3786 -0.3458
15286W        W32810  17.940   6.501  14.146  0.2524 -0.1646 -0.0213
15287W        W32811   4.428   9.890   3.803 -0.1481 -0.1488  0.0643
15288W        W32812   2.457  17.376  12.418 -0.0262  0.0751 -0.4522
15289W        W32813  15.804  12.979  13.193  0.2307  0.1605 -0.2584
15290W        W32814   6.681  14.442  12.373  0.3848 -0.0188 -0.4121
15291W        W32815   3.257  10.782   1.632 -0.1115 -0.0178  0.1990
15292W        W32816  10.859   5.851  15.367 -0.0861  0.1772 -0.0324
15293W        W32817  16.058   8.854   3.404  0.1287  0.0670  0.0020
15294W        W32818  14.457  11.248   3.185 -0.0131  0.3263  0.0380
15295W        W32819  14.452  11.588   4.967  0.2770  0.1030  0.1915
15296W        W32820   0.501   5.811   1.101  0.4982  0.0640 -0.2266
15297W        W32821  14.382  13.637  15.558 -0.0409  0.1053  0.0211
15298W        W32822   8.114   3.381  12.911  0.3420  0.1294  0.2920
15299W        W32823  11.626  10.786   2.442  0.1049  0.0666  0.0544
15300W        W32824  16.406   2.046   4.648  0.2997 -0.2764  0.1424
15301W        W32825  14.999  15.794  13.397 -0.1104  0.1856  0.2303
15302W        W32826  14.670  16.635   5.108 -0.1169 -0.1615 -0.2240
15303W        W32827   5.007  18.059  14.494  0.4057 -0.0505  0.1687
15304W        W32828   6.278  14.164   0.668 -0.0639 -0.2041  0.0256
15305W        W32829   0.311  12.541   0.281  0.1512 -0.0276 -0.0242
15306W        W32830  15.966  12.341   4.566  0.1332  0.0290  0.0470
15307W        W32831  15.677   6.492  15.294  0.0252  0.0173  0.1851
15308W        W32832  15.598  10.806  11.560 -0.0053 -0.1597  0.0129
15309W        W32833  17.539   0.207  13.194 -0.2219 -0.0863 -0.0871
15310W        W32834   2.208  14.520  10.416 -0.3134  0.0374 -0.2857
15311W        W32835   2.056  15.802   0.663 -0.3495  0.1037  0.2332
15312W        W32836   5.219  14.442   9.870  0.0650  0.2363 -0.1707
15313W        W32837  17.213  11.061   4.933  0.1742 -0.0378 -0.0586
15314W        W32838  17.082  12.296  15.429 -0.2968  0.0920 -0.2514
15315W        W32839  13.171   0.301   5.893  0.0715  0.2741  0.0360
15316W        W32840  14.560   6.955  12.191  0.0121 -0.0156  0.0891
15317W        W32841  11.649  14.091  15.107  0.0578 -0.0769 -0.0682
15318W        W32842   0.419   0.796   0.250 -0.0170  0.0354  0.1735
15319W        W32843   1.561   4.463   3.868  0.1627 -0.0298  0.2337
15320W        W32844   7.233   6.935   0.786  0.1698  0.0929  0.0804
15321W        W32845   4.354  16.459  11.017  0.1046 -0.0699  0.0006
15322W        W32846   9.722   8.531  11.434 -0.1772  0.3743  0.0466
15323W        W32847   6.649   8.708   0.670 -0.0308 -0.0602  0.2696
15324W        W32848   9.291  17.259   1.060 -0.0542  0.1462  0.0702
15325W        W32849   1.044  11.418  12.101 -0.0833 -0.2584  0.0270
15326W        W32850  13.878   1.357  12.883 -0.0217 -0.1053 -0.0192
15327W        W32851  17.429   4.001  14.793 -0.0320  0.2189  0.0048
15328W        W32852  12.528   0.430  10.798  0.0396 -0.3661  0.1801
15329W        W32853  18.275   2.440   2.565  0.3099  0.1161 -0.0736
15330W        W32854   9.531   2.499  14.848  0.2635 -0.1992 -0.1121
15331W        W32855  14.835   2.234  13.927 -0.0514 -0.1245  0.0733
15332W        W32856   2.124  15.239  12.689  0.1008 -0.1098 -0.0669
15333W        W32857  15.676   6.957  11.452 -0.0106 -0.0307  0.0031
15334W        W32858   9.019  14.742  12.350 -0.0822  0.0601  0.0155
15335W        W32859   2.378   8.273  13.431  0.0460  0.2756  0.0914
15336W        W32860   1.320   1.779  14.488 -0.0277  0.3146  0.0639
15337W        W32861   5.608   2.358   4.695  0.4035  0.1650 -0.0653
15338W        W32862  15.217   2.660  14.797 -0.1138  0.0903 -0.1785
15339W        W32863  14.258  18.326   3.221  0.2310  0.0714  0.1510
15340W        W32864   5.904   4.776   1.031  0.0039  0.1290  0.0195
15341W        W32865   6.154   4.130   1.448  0.3803  0.2966  0.2269
15342W        W32866  11.090  17.117   1.402  0.3085  0.1608  0.1001
15343W        W32867   9.049   3.882  13.293 -0.0938  0.1228 -0.0644
15344W        W32868  18.257  12.054  12.724 -0.0626 -0.0823  0.0610
15345W        W32869  15.206  12.287  11.885  0.3833 -0.0466  0.1474
15346W        W32870   7.843   9.712  11.552  0.3085 -0.0837  0.0086
15347W        W32871   6.445  14.663   2.858 -0.1203  0.2587 -0.1673
15348W        W32872  12.543  12.286   2.003  0.1282 -0.3866 -0.3367
15349W        W32873   2.943  17.394  12.665  0.1512 -0.3915  0.2297
15350W        W32874  10.133   3.149   4.714  0.1180 -0.0868  0.0149
15351W        W32875   7.970   8.597  15.101 -0.0307 -0.1615  0.0904
15352W        W32876   3.797  13.238  14.192  0.2869 -0.1494  0.1238
15353W        W32877  13.114   6.179  11.634  0.0959  0.0746 -0.3985
15354W        W32878   0.804   6.266   0.777  0.0693  0.2508  0.0793
15355W        W32879  17.357   7.324  11.943  0.0546 -0.1029  0.2182
15356W        W32880   1.630   2.735  15.368 -0.0181  0.1013 -0.0605
15357W        W32881   5.811  17.988   3.186 -0.0755 -0.3021 -0.0589
15358W        W32882   2.665   1.348  11.783  0.2135  0.3541 -0.2589
15359W        W32883   7.880  12.681   2.815 -0.1618 -0.0337 -0.2924
15360W        W32884   7.413   7.972   2.598  0.2106  0.0390  0.0220
15361W        W32885   7.394   9.859  13.324 -0.0083 -0.2767 -0.0765
15362W        W32886   7.444   1.811  14.139 -0.0970 -0.2756 -0.1711
15363W        W32887  10.866   2.068   3.117  0.0772  0.1678  0.0884
15364W        W32888   5.408   7.493   2.849 -0.1536  0.1088 -0.2720
15365W        W32889  10.011  14.202   2.313 -0.1926  0.1032  0.2494
15366W        W32890   4.223  18.266   3.344 -0.2191 -0.0005  0.6126
15367W        W32891   0.113   9.510  14.688  0.1283  0.2664 -0.2987
15368W        W32892   4.247   5.495  13.211 -0.2057 -0.3918  0.1857
15369W        W32893  10.627   3.043   3.319 -0.1106  0.1831  0.1385
15370W        W32894   4.270   6.814   4.187  0.0563  0.1483 -0.2394
15371W        W32895   3.028  10.124  10.177  0.1452  0.0960 -0.3100
15372W        W32896   7.474  12.751  13.379 -0.1138  0.2946 -0.2220
15373W        W32897   7.376   7.735  14.319  0.3689  0.1867  0.0099
15374W        W32898  15.262  16.231   4.166  0.2656 -0.0963 -0.0353
15375W        W32899   9.576  13.290   0.380  0.0482  0.0704 -0.0826
15376W        W32900   6.225  14.378   1.568  0.0208 -0.0455  0.0914
15377W        W32901  13.727  17.799  11.999 -0.2889 -0.1604 -0.1207
15378W        W32902  14.794  17.477   3.048  0.1722 -0.3667 -0.0696
15379W        W32903  18.119   0.738   4.356 -0.2958  0.0004 -0.0358
15380W        W32904  16.866   5.099   1.777  0.0847 -0.2641  0.0937
15381W        W32905   6.347   9.565   3.808  0.0085 -0.1098 -0.0364
15382W        W32906  15.629   8.446   1.450 -0.2817  0.0465 -0.2638
15383W        W32907   9.228  12.084   1.263  0.0710  0.0099 -0.0421
15384W        W32908  11.996   4.122   2.774  0.0014  0.2355 -0.5934
15385W        W32909   1.796  16.062  15.529 -0.0467 -0.0582  0.1291
15386W        W32910  17.695   6.762  15.067  0.3377  0.1101 -0.0380
15387W        W32911   2.366  10.810  13.622  0.1793 -0.2019 -0.4372
15388W        W32912  13.862  17.422   1.343  0.1579 -0.0408 -0.1123
15389W        W32913   2.208  13.846   4.155  0.3018 -0.0438 -0.3162
15390W        W32914   1.761  18.099  10.771 -0.0191  0.0368  0.0593
15391W        W32915   5.993  18.365  12.922  0.0539  0.1644  0.0489
15392W        W32916   8.776  13.461  15.060  0.2580  0.0645 -0.1412
15393W        W32917  17.146  11.997   2.293 -0.2366 -0.0724 -0.0149
15394W        W32918   7.517  15.772  14.261  0.0292 -0.2507 -0.4411
15395W        W32919  16.149   5.064  15.119  0.5281  0.2057  0.0918
15396W        W32920  13.958   2.292  11.091 -0.2748 -0.0103 -0.1641
15397W        W32921  13.900  18.190  13.357  0.1295 -0.1638  0.1008
15398W        W32922   9.116  17.738   0.284  0.2600  0.1506 -0.0875
15399W        W32923  17.004   8.394  13.129  0.2379  0.2150 -0.1017
15400W        W32924   5.976   8.983  13.952 -0.0021 -0.0141 -0.4496
15401W        W32925   0.659   6.734  14.737 -0.2646 -0.1191  0.2698
15402W        W32926  13.330   9.756   2.652 -0.1527  0.2378 -0.2712
15403W        W32927   9.737  10.888  11.580 -0.3884 -0.2809  0.0406
15404W        W32928   1.574   7.543   3.742  0.0143 -0.0453  0.1389
15405W        W32929  10.570  13.586  15.017 -0.4597  0.2283 -0.0335
15406W        W32930  15.116   6.651   3.267 -0.1981 -0.0109 -0.0356
15407W        W32931   0.191   2.611   1.580 -0.2044 -0.0852 -0.0572
15408W        W32932   4.867   5.831   4.249  0.0928  0.0729 -0.1543
15409W        W32933  12.320   4.582  13.808  0.0666 -0.0848  0.2732
15410W        W32934  15.651  12.245   2.905  0.0442  0.0104 -0.2611
15411W        W32935  16.692   9.196   3.932 -0.0164 -0.0555 -0.0556
15412W        W32936  11.684  10.086  11.850 -0.2624 -0.0433  0.1509
15413W        W32937   8.810   2.329   4.751 -0.0359  0.0664 -0.1183
15414W        W32938  13.802  16.009   1.380 -0.2789  0.1732  0.1227
15415W        W32939   7.881   6.697  11.313  0.3109 -0.0574  0.0812
15416W        W32940  17.501   4.466   2.143  0.0384  0.1839  0.0949
15417W        W32941  14.598   0.705   0.797 -0.0118 -0.0130  0.1054
15418W        W32942  18.255  16.707  12.350  0.1124  0.0190  0.0324
15419W        W32943  16.764   1.198   1.724  0.0586  0.1289  0.3152
15420W        W32944  12.716  15.914  14.066  0.3312 -0.3784  0.0475
15421W        W32945  13.445   7.916  12.777 -0.1183 -0.2501  0.4587
15422W        W32946  10.030   4.990   3.220  0.0168 -0.4185 -0.1373
15423W        W32947   2.964  15.538   4.761 -0.2150  0.1764 -0.0495
15424W        W32948   1.499  17.852   5.796 -0.1430 -0.3820 -0.3472
15425W        W32949   5.482   3.198   4.941 -0.2514  0.1551 -0.1067
15426W        W32950  10.164   4.155   5.580  0.0932 -0.2278  0.2810
15427W        W32951   8.389   8.689  14.816 -0.1476 -0.1719 -0.3383
15428W        W32952  12.038   0.034   4.631 -0.2287  0.3149  0.0216
15429W        W32953  13.790  16.703   2.993 -0.1981 -0.3220 -0.0031
15430W        W32954   5.531   9.180   1.796  0.3099  0.0131 -0.0787
15431W        W32955   1.571   8.011   1.132  0.4010 -0.1718  0.1640
15432W        W32956   2.383   1.634  15.436 -0.1008 -0.1579 -0.1612
15433W        W32957  18.152  18.286   1.442  0.0079  0.3279 -0.0587
15434W        W32958   0.671   2.867   0.586 -0.0023 -0.2031 -0.0278
15435W        W32959   4.152   7.137  15.830 -0.2010 -0.2081 -0.3903
15436W        W32960   5.494   7.014  12.734  0.0338  0.0939  0.2166
15437W        W32961  13.576  17.673  14.115 -0.0091 -0.2112 -0.0583
15438W        W32962   2.189   1.528  13.563 -0.2333  0.1153 -0.1451
15439W        W32963   3.101  12.910   5.513 -0.1208 -0.1435 -0.0291
15440W        W32964   4.136   0.627   6.029 -0.2666  0.1190  0.2358
15441W        W32965  15.645   5.615  13.349  0.0452 -0.1624  0.3063
15442W        W32966   0.947  17.903   1.737  0.0399  0.0307  0.1204
15443W        W32967   3.526  13.809   4.177  0.0080 -0.0431  0.0214
15444W        W32968  10.012   4.379  11.099  0.2253 -0.1890  0.0819
15445W        W32969  15.155   4.124   1.064 -0.0134 -0.4342  0.4253
15446W        W32970   8.222  15.066  13.993 -0.1011  0.1147 -0.1580
15447W        W32971  11.570  17.201  12.529 -0.2305 -0.1984  0.2052
15448W        W32972   8.413  17.597   4.426 -0.0949 -0.0766 -0.2104
15449W        W32973  11.161   0.766  15.247 -0.2370  0.0059 -0.0823
15450W        W32974  17.336   8.860  12.918  0.0958  0.3875 -0.0227
15451W        W32975   7.619   1.787  15.387  0.1592 -0.0482 -0.1195
15452W        W32976  10.473  16.565  12.079 -0.1354 -0.0158 -0.1011
15453W        W32977   0.940   7.130  10.299 -0.0412 -0.2866  0.0698
15454W        W32978   4.835   2.543   0.188  0.3268  0.0751 -0.2101
15455W        W32979   7.668   5.176  11.007 -0.0159  0.1167  0.1595
15456W        W32980  15.267   7.544   1.152  0.1120 -0.2627  0.1583
15457W        W32981  15.140  16.412   5.084 -0.2400  0.3387 -0.0750
15458W        W32982   8.059  13.345  12.906 -0.2539  0.2006  0.2821
15459W        W32983   7.857   7.649  11.190  0.2089 -0.1532  0.1077
15460W        W32984   9.696  16.525  15.083  0.1611  0.0751 -0.0935
15461W        W32985   7.409  11.812  12.270 -0.2021  0.2095 -0.0306
15462W        W32986  15.974   7.145  11.024  0.1930 -0.1510 -0.0240
15463W        W32987   8.965   0.448  12.380  0.2037 -0.0449  0.0534
15464W        W32988  15.481   6.686   4.443 -0.1680  0.0482 -0.2273
15465W        W32989   2.695  17.083   3.513 -0.2632  0.0848 -0.2932
15466W        W32990   2.242   0.528  14.539  0.2698 -0.1479 -0.0035
15467W        W32991   9.237  17.241  12.608  0.0678  0.0360 -0.2500
15468W        W32992   0.098  14.020   3.699 -0.2714  0.2001  0.0857
15469W        W32993   6.881   4.801  12.963  0.0533 -0.3866 -0.1089
15470W        W32994   3.901   7.375   2.822  0.1558 -0.0119 -0.0119
15471W        W32995   0.464  13.153   0.326 -0.0082  0.0105 -0.2202
15472W        W32996  17.701  11.582  13.357 -0.0110  0.4041  0.0458
15473W        W32997   2.709   0.460   3.100  0.1760  0.2307  0.3203
15474W        W32998   3.034  15.999  14.980 -0.0928  0.2887  0.0701
15475W        W32999  15.965   5.068  11.865 -0.0383 -0.2687 -0.3066
15476W        W33000   6.179  11.476  10.359 -0.0867 -0.0670  0.0606
15477W        W33001   4.809   9.771   4.272  0.5184  0.1699 -0.0073
15478W        W33002  10.181  13.781  14.163 -0.2069  0.1881 -0.1580
15479W        W33003   2.055  14.240   1.264  0.0970  0.0936 -0.0437
15480W        W33004   4.439   4.065  13.257 -0.2438 -0.1423  0.1589
15481W        W33005  15.637   8.443  13.164 -0.1605  0.2126  0.2685
15482W        W33006   4.903  12.782  12.661  0.0828  0.2409  0.2398
15483W        W33007  13.475   4.336   2.460 -0.1440 -0.0117  0.1910
15484W        W33008   7.238  13.864  12.382  0.0151  0.1025  0.0582
15485W        W33009  16.761   1.070  14.287  0.0665 -0.0757  0.0619
15486W        W33010  11.584   7.339   1.556 -0.1721  0.2105 -0.0412
15487W        W33011   9.437   7.322   5.778 -0.3389  0.0392 -0.1778
15488W        W33012  13.433   0.056   4.576 -0.2527  0.0836 -0.3923
15489W        W33013   9.239  13.137  14.218  0.0288  0.2657  0.2369
15490W        W33014  13.908  15.510  12.957  0.0675 -0.1742  0.1178
15491W        W33015   7.043  11.021  12.371 -0.0114  0.0581  0.0552
15492W        W33016  11.667   8.241   4.073  0.1546  0.1582 -0.0262
15493W        W33017   9.508   0.285  14.632  0.1061  0.1530 -0.0823
15494W        W33018   9.947   9.128  13.752 -0.1306 -0.3972 -0.1808
15495W        W33019   2.363   4.610   0.030  0.2713  0.1413 -0.1094
15496W        W33020  11.424   8.328  12.073 -0.0546 -0.0154 -0.3408
15497W        W33021   2.966   6.105  11.061 -0.0656  0.1292  0.1244
15498W        W33022   9.773  12.780   4.066  0.2045  0.1474 -0.0075
15499W        W33023  12.067  12.442  15.433 -0.0488  0.1336  0.2251
15500W        W33024  10.680   1.401   3.305 -0.0874 -0.3002  0.0081
15501W        W33025   7.967   0.970   4.114  0.1629 -0.2429  0.0708
15502W        W33026   4.214  12.453  13.275  0.0239  0.0813 -0.0666
15503W        W33027  17.750  11.082   5.018  0.1842 -0.0341 -0.0073
15504W        W33028  14.754   8.582   4.623  0.1450 -0.1736 -0.2420
15505W        W33029  14.532   6.613   2.532 -0.0683 -0.0063  0.0598
15506W        W33030   5.165  17.864   4.940 -0.2403  0.1303 -0.0374
15507W        W33031  15.907  14.157  14.203  0.1812 -0.2650  0.1221
15508W        W33032   2.484   7.074  10.901  0.0052 -0.1757 -0.0656
15509W        W33033  14.917   0.539   4.063 -0.0241 -0.1169  0.0116
15510W        W33034   8.218   4.675   2.290  0.1703 -0.0077 -0.0465
15511W        W33035  10.502  14.232  14.829  0.3270 -0.2676 -0.0155
15512W        W33036   6.002  14.588   3.089  0.5194  0.3750 -0.2500
15513W        W33037   0.097  18.020  13.665 -0.1369 -0.4646  0.0686
15514W        W33038  11.418  12.732   2.914 -0.0624 -0.0134 -0.1464
15515W        W33039  11.614  13.606   5.012  0.1261 -0.1236  0.0252
15516W        W33040  12.532  17.945  12.385 -0.0513  0.0530 -0.0984
15517W        W33041  14.823  15.991   4.951 -0.0947  0.0612 -0.2372
15518W        W33042   2.523  13.430   2.970 -0.1354  0.1470  0.1117
15519W        W33043   5.527   1.599  14.916  0.0117  0.2965  0.1693
15520W        W33044  15.556  10.448   2.696  0.0349  0.0968  0.0642
15521W        W33045  12.837   7.538  15.209  0.0491 -0.1230  0.0710
15522W        W33046  10.271   4.063   2.335  0.0037  0.0613 -0.1795
15523W        W33047  13.591  16.796  14.003  0.1917  0.2468  0.0692
15524W        W33048  16.281   6.769  14.209  0.1134  0.3604  0.1919
15525W        W33049   0.722   1.597  12.280 -0.1203  0.1900 -0.2501
15526W        W33050   7.921  15.708  13.254  0.0422  0.0317  0.0528
15527W        W33051  10.476  16.279  11.633 -0.0338  0.1520  0.0694
15528W        W33052  17.979  12.666  15.297  0.1237 -0.2455 -0.1247
15529W        W33053  12.696   0.739  15.167 -0.1621  0.1035 -0.0642
15530W        W33054  13.784  14.151   2.700 -0.2359 -0.1104  0.1252
15531W        W33055   8.737  16.794  11.488  0.2315  0.0450 -0.0579
15532W        W33056   7.556   0.819  10.634  0.1117 -0.0846  0.1241
15533W        W33057  12.059   4.103  15.546  0.0548  0.0609 -0.1762
15534W        W33058  10.834  10.955   4.218  0.0813  0.0949  0.0410
15535W        W33059  11.303   2.221   4.091  0.2584  0.1257 -0.1933
15536W        W33060  11.232  17.983   1.348 -0.2022 -0.1798  0.1084
15537W        W33061   2.718   3.196  14.051  0.2596 -0.0158 -0.0831
15538W        W33062  16.172   0.172  14.521  0.0328  0.1220 -0.1489
15539W        W33063  12.053   1.501   0.492  0.0192 -0.0627 -0.0450
15540W        W33064   0.158   6.974  14.654 -0.3485  0.2496 -0.0897
15541W        W33065   4.373   4.569   2.502 -0.0599  0.0231 -0.1285
15542W        W33066  17.631  11.235   3.562 -0.7445 -0.2177  0.1418
15543W        W33067  17.280   6.562   1.440  0.0202  0.2262  0.2837
15544W        W33068   3.068  11.825   1.895 -0.0046  0.2953  0.3541
15545W        W33069   0.332  13.675   2.901 -0.0784 -0.0478 -0.1043
15546W        W33070   9.089   0.072  14.930  0.0722  0.0799 -0.1119
15547W        W33071   2.374  13.324   0.923 -0.1437 -0.1612  0.0011
15548W        W33072   0.948   2.290  12.966  0.1440 -0.0228 -0.0384
15549W        W33073   0.366   2.575  11.218 -0.1557 -0.0802 -0.1727
15550W        W33074  13.464   8.953  14.929 -0.2727 -0.0901  0.0506
15551W        W33075   7.534   3.272   2.700  0.0399 -0.2032  0.1347
15552W        W33076   4.774   5.732   3.300  0.2837 -0.1496  0.0823
15553W        W33077  16.251  13.114  10.669  0.2947 -0.0154 -0.0753
15554W        W33078  16.917  13.158   1.258 -0.0756  0.1849  0.3870
15555W        W33079   7.702  17.594   4.168  0.0825  0.0441 -0.0553
15556W        W33080  11.694   7.438   2.941  0.0092 -0.2662  0.2086
15557W        W33081  14.671  15.110   4.573 -0.1397 -0.0187 -0.2661
15558W        W33082  12.695   4.817  13.297 -0.0844 -0.2635 -0.0479
15559W        W33083  12.586   3.842   0.950  0.0133 -0.4216 -0.1556
15560W        W33084  17.702   8.321  14.212 -0.1110  0.0732  0.1681
15561W        W33085   5.624   0.009  14.181 -0.1415  0.3783  0.0855
15562W        W33086   7.125  17.256   4.223  0.1168  0.0024 -0.1719
15563W        W33087  14.410  16.618   2.840  0.1244 -0.0923 -0.1542
15564W        W33088  16.182   5.265  12.289 -0.2281  0.0489  0.0975
15565W        W33089  15.425   2.909  11.308 -0.2894 -0.1394 -0.0091
15566W        W33090   4.651  11.384   3.241 -0.1192 -0.2055  0.0331
15567W        W33091  13.951   6.470   2.971  0.0133  0.1863 -0.0471
15568W        W33092  12.983   5.434  12.075  0.1501  0.0083  0.2529
15569W        W33093  16.455  14.604  11.061  0.0980 -0.0688 -0.1226
15570W        W33094  15.005  10.951   3.276 -0.1127  0.1064  0.0873
15571W        W33095  13.261  12.146   1.070  0.0106  0.0106 -0.0883
15572W        W33096  17.774  10.793  14.156 -0.1763  0.1201  0.1316
15573W        W33097  14.042   9.595  11.354  0.0428 -0.2093 -0.0878
15574W        W33098   4.704  12.752   3.309 -0.1196 -0.0439  0.0667
15575W        W33099  10.580  11.459  15.798  0.2479 -0.2069 -0.1179
15576W        W33100  13.086  13.252   3.720 -0.3264 -0.0883 -0.0499
15577W        W33101  13.790  12.495  13.565  0.0146  0.1089 -0.1476
15578W        W33102   0.055  17.008   3.900 -0.0802  0.0254  0.0068
15579W        W33103  14.121   4.793  13.376 -0.1615 -0.0054 -0.0397
15580W        W33104   2.837  16.922   3.069  0.0780 -0.1062 -0.2686
15581W        W33105   0.745  15.908   4.030  0.0527  0.0037  0.0398
15582W        W33106  13.393  14.256  11.410  0.0568  0.0074  0.2419
15583W        W33107   7.619   7.249   1.995  0.1876  0.2094 -0.1359
15584W        W33108   3.620   5.284   9.998  0.1063  0.1129  0.2401
15585W        W33109   6.057   5.687   2.578 -0.0323  0.0117 -0.0808
15586W        W33110   3.368   2.678  13.263  0.0925  0.0027 -0.0039
15587W        W33111   3.234   6.017   1.365  0.2631  0.2270  0.1302
15588W        W33112  17.745  12.102   3.232 -0.1570  0.1419  0.3442
15589W        W33113   3.103  17.941   4.042 -0.4032 -0.2018  0.0710
15590W        W33114  13.327  11.717  12.318  0.1712 -0.1959  0.0728
15591W        W33115  15.985   3.511   1.248  0.2585  0.0186 -0.1041
15592W        W33116   3.618  10.957   4.494  0.0879  0.2066 -0.1395
15593W        W33117   2.733   5.081   1.736 -0.1694  0.3869  0.2497
15594W        W33118   4.989  12.676   3.669  0.1619 -0.1817 -0.0153
15595W        W33119   7.352   6.687   1.241 -0.0298 -0.1116 -0.3512
15596W        W33120   8.965  10.862  13.717 -0.2505  0.0227 -0.0118
15597W        W33121  10.717   9.892   4.374 -0.1755  0.2068 -0.0277
15598W        W33122  11.956  15.474   2.767 -0.1689 -0.3170  0.3591
15599W        W33123   0.999  17.528  11.361  0.4492  0.0300 -0.1165
15600W        W33124  13.841  11.831  12.312  0.1016  0.1085  0.0714
15601W        W33125   5.397   8.132   3.675  0.0360  0.2136  0.0061
15602W        W33126  14.374  14.107   5.226  0.0763 -0.3694  0.2056
15603W        W33127  12.507   7.301  13.284  0.0682 -0.0016  0.4170
15604W        W33128  15.563   5.397   1.513 -0.1308 -0.2078  0.0949
15605W        W33129   0.348  14.594  11.684  0.0089 -0.2609 -0.1801
15606W        W33130   1.358   8.664   4.409  0.2829 -0.0203 -0.0327
15607W        W33131  17.312  11.815   3.086 -0.0437 -0.0921  0.0550
15608W        W33132   8.273   4.216  13.704 -0.2057 -0.1081  0.0232
15609W        W33133  12.289   1.433  15.383  0.3944 -0.1476  0.1283
15610W        W33134  12.069   8.062   4.419 -0.0367  0.1008  0.2179
15611W        W33135   1.405   5.101   2.212  0.4303 -0.0157 -0.1461
15612W        W33136  15.333  14.206  15.614 -0.0771 -0.1548  0.1853
15613W        W33137  12.296   3.369   3.838  0.1399  0.1020  0.1150
15614W        W33138  12.906   3.519  15.265  0.0099  0.0434 -0.2267
15615W        W33139   7.249   8.220   2.187  0.0244 -0.1957 -0.0067
15616W        W33140  17.035   5.778   2.322  0.0251 -0.0887  0.1148
15617W        W33141   4.280  17.279  15.820  0.2949 -0.1958  0.2040
15618W        W33142   3.996   5.806   9.923  0.0381  0.0016  0.0598
15619W        W33143   9.790   0.617  13.076 -0.1709 -0.0270 -0.0954
15620W        W33144  14.132  13.368  14.640  0.0018 -0.0773  0.2072
15621W        W33145   2.366  11.507   3.531  0.0846  0.0372  0.1604
15622W        W33146   2.349  18.098  15.672  0.0084 -0.2579 -0.1573
15623W        W33147   4.292   8.020   2.001  0.0184  0.0630 -0.0738
15624W        W33148   1.303   0.894  14.995 -0.0160 -0.0285 -0.1929
15625W        W33149   7.284   3.423   0.357 -0.1840 -0.0195 -0.2797
15626W        W33150   7.595  16.840  13.336 -0.0542 -0.0341  0.2352
15627W        W33151   0.460   2.860   3.343  0.0082 -0.0041  0.4527
15628W        W33152   7.831  11.578  13.596  0.0062 -0.0302  0.3277
15629W        W33153  12.113  14.588  11.426  0.2007 -0.0307  0.2563
15630W        W33154  10.483   3.011   4.252 -0.4477  0.3458  0.1586
15631W        W33155  15.747   7.481   1.271  0.0399 -0.0551  0.0718
15632W        W33156  17.569   3.988   2.062 -0.0344 -0.2251 -0.1832
15633W        W33157   3.120   0.439  15.222  0.2618 -0.1047 -0.2196
15634W        W33158   7.677  13.306   2.183 -0.0500  0.0745  0.1007
15635W        W33159  12.878   0.378  14.929 -0.1776 -0.0728 -0.0138
15636W        W33160   1.248   2.612  11.734  0.0867  0.1570  0.1375
15637W        W33161   2.688  10.666   1.785  0.1905  0.1104  0.1231
15638W        W33162  15.815  13.966   2.438  0.2541 -0.2236 -0.3404
15639W        W33163   8.029  16.868   1.890  0.0866  0.1516 -0.3256
15640W        W33164   6.469   2.284   0.945 -0.0743 -0.2376  0.1968
15641W        W33165   6.461   1.966   2.034 -0.0916 -0.1413  0.0666
15642W        W33166  15.077  16.438  13.607 -0.1598 -0.0397 -0.1136
15643W        W33167  11.016   3.211  13.984  0.1330  0.1522 -0.1957
15644W        W33168   0.080   1.403   1.717  0.3766 -0.0495  0.0394
15645W        W33169  15.810   6.732  14.349 -0.0378  0.0222 -0.1792
15646W        W33170   1.763  16.022   2.494  0.4871 -0.1073  0.1035
15647W        W33171   4.388   2.294   1.450  0.1229 -0.0726 -0.0087
15648W        W33172  18.282   9.194  12.887  0.1690 -0.1798 -0.0709
15649W        W33173  15.718  12.092  10.246 -0.0317 -0.1639 -0.1718
15650W        W33174   4.916   4.638   3.825 -0.1216 -0.3479  0.0886
15651W        W33175  15.369  13.057  12.880 -0.1299  0.3424  0.2210
15652W        W33176   3.561   8.910  13.272  0.2594 -0.1274 -0.1232
15653W        W33177  11.290  15.078   0.583 -0.1628 -0.0710  0.0488
15654W        W33178  11.813   3.404   0.163  0.4353  0.0132  0.0840
15655W        W33179   8.447   8.753   3.577  0.1114  0.0434  0.2088
15656W        W33180   9.983  12.927  12.318 -0.1618 -0.2162  0.1060
15657W        W33181   1.230   5.744   3.952 -0.0614 -0.2131 -0.0155
15658W        W33182  15.285   1.957   1.477  0.1329  0.0952 -0.0026
15659W        W33183  13.854   7.461  11.571 -0.1523 -0.2289  0.3798
15660W        W33184   7.566   1.364  11.752 -0.2326  0.0778 -0.0891
15661W        W33185  10.554  10.983  15.004 -0.2727  0.0159 -0.0135
15662W        W33186   1.352  12.864   2.333  0.3688 -0.0708 -0.0129
15663W        W33187   3.532  14.586   0.353 -0.1546  0.1114  0.2583
15664W        W33188   5.665  16.094   2.546  0.0701  0.3564  0.2947
15665W        W33189  13.574   0.898   1.383  0.6417 -0.4511  0.4099
15666W        W33190  12.883  14.719   3.424  0.0946  0.0374 -0.0464
15667W        W33191  11.965  18.368   3.288 -0.0458  0.0875  0.0163
15668W        W33192  12.157   4.098  12.421 -0.0950 -0.0799 -0.1757
15669W        W33193  16.965   2.646   0.681  0.0217  0.1835 -0.0533
15670W        W33194  17.852   5.046  12.995  0.1172 -0.1501  0.1095
15671W        W33195   2.693   2.642  13.969  0.0924 -0.0972 -0.1526
15672W        W33196   5.526  15.344   1.331 -0.0193 -0.2638 -0.2373
15673W        W33197  16.117  16.530   3.246 -0.0045  0.0161 -0.2754
15674W        W33198   3.559  12.944   2.307 -0.0979  0.0523  0.1466
15675W        W33199  12.307  13.657   0.794  0.1594  0.0805 -0.0433
15676W        W33200   3.983  12.987   4.488  0.3210 -0.1641 -0.1876
15677W        W33201   9.149  17.587  11.337  0.1072 -0.0795  0.0629
15678W        W33202   9.871   9.714   1.189 -0.1821  0.2155 -0.1823
15679W        W33203   9.100  11.980  12.237 -0.1404  0.3306 -0.1903
15680W        W33204   8.556   2.067   3.040 -0.0773  0.0742  0.0524
15681W        W33205  15.992  12.521   2.066 -0.1200 -0.1333 -0.0103
15682W        W33206   4.617  11.385   1.891  0.0365  0.1363 -0.1767
15683W        W33207  11.891   1.933   1.743 -0.0325 -0.2740 -0.0092
15684W        W33208   7.295   0.225  15.585 -0.2399  0.7602  0.2036
15685W        W33209  12.418   0.857   0.988 -0.3998 -0.0381 -0.1529
15686W        W33210   5.892   0.130  13.726 -0.0290  0.1272 -0.0254
15687W        W33211  12.795   7.355   1.395 -0.0458 -0.1567  0.2218
15688W        W33212  17.335   5.429  12.073 -0.3670  0.0121 -0.1435
15689W        W33213   0.879   4.813   2.111 -0.1207  0.2977 -0.1212
15690W        W33214   9.121   1.946   1.224 -0.0382 -0.1559  0.1411
15691W        W33215  10.212   0.882  11.209 -0.1095  0.1923 -0.3536
15692W        W33216   1.600   1.779  13.509  0.2963  0.0324 -0.2071
15693W        W33217   0.890   5.376   3.671  0.0573  0.1049 -0.4276
15694W        W33218  14.671  16.266  10.393 -0.0429  0.1693 -0.0642
15695W        W33219  12.179   7.286  12.876  0.1722 -0.3089  0.4949
15696W        W33220  16.004   1.645   4.479  0.1848  0.1361 -0.1229
15697W        W33221  10.033   6.127  13.681  0.3118  0.2166 -0.4188
15698W        W33222   0.306  14.331   2.380 -0.0752  0.3077 -0.2386
15699W        W33223   0.714  16.623  12.405  0.0822 -0.2592 -0.3462
15700W        W33224   6.197   3.990  14.219 -0.2435  0.2275 -0.2145
15701W        W33225   0.132   3.711  13.510 -0.0751  0.2900  0.0659
15702W        W33226  16.123  16.343   4.170 -0.0080 -0.3554 -0.2882
15703W        W33227  18.054   4.541   3.562  0.2809  0.0370 -0.2086
15704W        W33228  13.943  16.121   4.829 -0.4041 -0.0980  0.2021
15705W        W33229   4.074   6.679   1.152 -0.0698 -0.0343  0.1981
15706W        W33230  11.686   3.611   4.064  0.1696  0.0141 -0.1223
15707W        W33231  14.724  11.445  14.542  0.0667  0.0044  0.1022
15708W        W33232   8.426  13.153  14.858 -0.2221 -0.2029  0.4195
15709W        W33233  13.322  14.157  12.490 -0.2981 -0.0908  0.3603
15710W        W33234   6.355  12.237  15.410 -0.4750 -0.1446  0.3988
15711W        W33235   6.537  13.301   2.815 -0.1142 -0.1623 -0.0828
15712W        W33236   3.163   1.312  11.739  0.4880 -0.2564 -0.0125
15713W        W33237  15.707   6.302   4.683 -0.1358  0.0258  0.1559
15714W        W33238  17.744  14.709   3.166  0.4918  0.0341  0.1711
15715W        W33239   6.651   6.775   2.207  0.0914  0.0907  0.0271
15716W        W33240  13.680   3.773  15.465 -0.2651 -0.2032 -0.1392
15717W        W33241  16.253  18.059  14.368  0.4418 -0.2881 -0.0112
15718W        W33242   1.171   4.609   1.009 -0.1099  0.1662 -0.0586
15719W        W33243   0.643  12.810  11.673  0.1121 -0.1433  0.3753
15720W        W33244   2.670   4.151  14.635  0.0130 -0.1973 -0.2314
15721W        W33245  13.632   1.434  13.725 -0.2029  0.3295  0.0773
15722W        W33246   1.487   7.037  15.065 -0.2216 -0.2516  0.0326
15723W        W33247  12.359  10.053  14.684 -0.0594  0.0829 -0.0065
15724W        W33248   1.012  14.651  15.415 -0.1908 -0.3054  0.4224
15725W        W33249   8.349   4.637   4.674 -0.1604  0.2276  0.0640
15726W        W33250  11.087   3.821  14.442  0.0704  0.2943 -0.1771
15727W        W33251   4.076  15.600  11.603  0.3689 -0.3239  0.1278
15728W        W33252   7.128  10.855   2.132 -0.0647 -0.1588  0.2353
15729W        W33253   6.001   1.678  14.203  0.1101 -0.2360  0.1310
15730W        W33254   5.565   7.915   4.087  0.2324 -0.0458  0.0220
15731W        W33255   6.389   5.758  11.521 -0.2770 -0.1291  0.2222
15732W        W33256   4.678   1.192   0.590 -0.2502  0.3650 -0.0868
15733W        W33257   0.342   8.114  11.998 -0.0370  0.0396  0.0266
15734W        W33258  13.326   3.790   3.524  0.1494 -0.2347 -0.1608
15735W        W33259  13.584   9.787  10.519  0.1455  0.1359 -0.0361
15736W        W33260   5.446  13.777  14.864 -0.1700 -0.0175  0.2488
15737W        W33261   4.883   7.815  15.765 -0.0970  0.3001  0.2917
15738W        W33262   3.344   2.257  11.732  0.2200 -0.0662  0.2231
15739W        W33263   6.261  10.079  14.740  0.2042  0.1051 -0.2860
15740W        W33264   5.796   7.118   3.691 -0.3754  0.4651  0.1227
15741W        W33265   0.812  14.239  14.626  0.0385 -0.0559 -0.0667
15742W        W33266   3.185   7.988  14.794  0.3399 -0.3056 -0.0531
15743W        W33267   8.118   9.645   2.904  0.0438  0.0155 -0.1056
15744W        W33268   3.885   5.810  11.210  0.0516  0.1447  0.3297
15745W        W33269  17.347  16.313  12.006  0.0434 -0.1209  0.0474
15746W        W33270  12.843  13.875  14.295  0.1069  0.0511 -0.1284
15747W        W33271  12.009   9.653  11.710  0.0193  0.1358  0.0003
15748W        W33272  16.737   4.930  12.867 -0.1937  0.0242  0.0639
15749W        W33273   6.613  15.594  12.294 -0.1837 -0.1780  0.1950
15750W        W33274  14.458  13.751   1.126 -0.2159  0.0140 -0.3619
15751W        W33275   8.266   4.644  12.352 -0.2736  0.2573 -0.1583
15752W        W33276   0.534  14.652   4.727 -0.0312 -0.1235  0.2613
15753W        W33277   1.972   6.457  11.864  0.1962  0.0366 -0.1502
15754W        W33278   7.795  10.986   2.707  0.0995 -0.0400  0.3314
15755W        W33279   6.050   5.539  10.365 -0.1296 -0.0035 -0.1025
15756W        W33280  14.698  17.587  14.322  0.0014  0.4701 -0.2840
15757W        W33281  14.251   4.248   0.655 -0.1370 -0.2337 -0.0013
15758W        W33282   2.536  11.166   2.235 -0.1344 -0.3042  0.0717
15759W        W33283  15.520   5.702  11.146 -0.0137  0.0518  0.0131
15760W        W33284  13.591   7.161   4.328 -0.0866  0.0004 -0.3343
15761W        W33285   4.834   6.974  12.131 -0.1884 -0.0607 -0.0654
15762W        W33286   1.992  18.200   1.207 -0.0283 -0.0921  0.1211
15763W        W33287  17.025  18.147  14.151 -0.1887  0.1381  0.2059
15764W        W33288  17.853   6.668   2.166 -0.0809  0.2038  0.5169
15765W        W33289  10.349   6.189   2.781  0.0191  0.1767 -0.2887
15766W        W33290   2.512  15.838   0.393 -0.2139 -0.1312 -0.0909
15767W        W33291   2.881  15.956  13.656  0.1102 -0.0236  0.1335
15768W        W33292  16.002   4.431   1.038 -0.1921 -0.0610  0.3645
15769W        W33293  16.853   2.005  14.325 -0.2207 -0.0312 -0.0590
15770W        W33294  16.968  10.519   5.099 -0.2213  0.1043 -0.2543
15771W        W33295   9.599  13.886   2.366  0.0009 -0.2123  0.1372
15772W        W33296  16.689   4.844   3.742  0.0465 -0.1699  0.2119
15773W        W33297  16.512   0.329   3.737  0.0114  0.0611  0.0230
15774W        W33298  12.214   0.140   1.084 -0.1233 -0.4475 -0.1766
15775W        W33299  15.069   3.787  10.829  0.2816  0.2307  0.0900
15776W        W33300   1.518  12.874  12.878 -0.0868  0.1416 -0.2909
15777W        W33301   5.511  10.893  11.504  0.2305  0.0574  0.1612
15778W        W33302   8.190   8.300   0.574  0.0302  0.1154  0.0299
15779W        W33303   2.702  16.512  12.364  0.0906  0.0371 -0.2226
15780W        W33304   2.573   3.187  14.525  0.1519  0.1631 -0.0039
15781W        W33305  10.363   9.046   1.577  0.1851 -0.2078 -0.0589
15782W        W33306   2.484  15.705   0.837 -0.1639  0.3141 -0.2405
15783W        W33307  10.228  14.527   4.339 -0.1818  0.0824 -0.0965
15784W        W33308   3.276  12.541  13.953  0.2670  0.0006 -0.3040
15785W        W33309  11.083  17.868   2.360 -0.1153 -0.0087  0.0469
15786W        W33310  15.178   3.993  11.714  0.1830 -0.0678 -0.1917
15787W        W33311  16.656   2.171   2.027 -0.3303 -0.2383  0.0822
15788W        W33312  10.948   9.412   0.947  0.0204 -0.0089 -0.2688
15789W        W33313   5.648  17.184  12.567 -0.2641  0.2567 -0.0729
15790W        W33314   7.153   7.642   4.647 -0.4114  0.0293  0.1277
15791W        W33315   1.548   0.856   4.684 -0.3497  0.0443 -0.2424
15792W        W33316  16.101  11.461  13.970  0.3393  0.0902  0.3200
15793W        W33317   7.224   8.766   4.088 -0.0209  0.1678  0.0203
15794W        W33318   9.800  14.491  10.173 -0.1135  0.1939  0.1765
15795W        W33319  17.958  15.724   0.778  0.1199 -0.1961 -0.0555
15796W        W33320   3.680   8.688   1.937  0.2165 -0.0238 -0.0481
15797W        W33321   9.421  14.170  10.574  0.0869  0.0909 -0.1847
15798W        W33322  15.235   9.750  15.023  0.0743  0.3319 -0.0519
15799W        W33323  13.604   9.200  12.338  0.1831  0.0574 -0.1458
15800W        W33324   3.525  14.480  14.265 -0.3196 -0.1968 -0.2848
15801W        W33325  10.512  13.183   3.131 -0.2880 -0.0209 -0.3080
15802W        W33326  18.040  10.409  13.984  0.0649 -0.3366  0.0544
15803W        W33327   0.587   6.282   1.290 -0.2383 -0.0696 -0.0567
15804W        W33328   2.236   3.620   2.145 -0.2557  0.0354  0.1357
15805W        W33329   9.062   6.404  14.208  0.3294  0.3545 -0.1741
15806W        W33330  16.447   6.038  11.990 -0.2848  0.1395  0.2348
15807W        W33331   3.997  13.208  15.853  0.0991  0.1000 -0.0956
15808W        W33332  13.908   2.665  12.778 -0.2094 -0.0289 -0.1333
15809W        W33333   5.619  11.278  13.161 -0.0055  0.2529 -0.2390
15810W        W33334   1.111   0.494   2.641  0.1940  0.1021 -0.1795
15811W        W33335   7.020   2.733  14.705 -0.0053 -0.0704 -0.1005
15812W        W33336   5.356  13.317  13.075  0.4278 -0.0621 -0.0886
15813W        W33337   9.247  16.949  13.157  0.5483 -0.1049  0.0083
15814W        W33338   3.042   4.593  12.731 -0.0904 -0.1708  0.3034
15815W        W33339  14.776   4.401   5.174  0.1203  0.0153 -0.0271
15816W        W33340  13.742   7.678   2.381  0.2392  0.1416  0.1339
15817W        W33341  16.323  11.694  14.327 -0.3626 -0.1027 -0.0770
15818W        W33342   4.403   5.682  13.772 -0.1120 -0.2729  0.1536
15819W        W33343   4.013   5.467  15.038 -0.1260 -0.1551  0.0542
15820W        W33344  10.178   2.872  15.097 -0.1817  0.1668  0.3539
15821W        W33345  11.777   6.252  11.268  0.0925  0.2330  0.1621
15822W        W33346   2.845   6.182   1.025  0.0318 -0.2108 -0.1205
15823W        W33347   3.528   6.881  15.110  0.5692  0.0598  0.2349
15824W        W33348   8.854  10.130   1.216  0.1980  0.1398  0.1436
15825W        W33349  17.052   8.989   4.382  0.1389 -0.0643  0.2178
15826W        W33350  11.542   1.432  14.664 -0.1452 -0.1458  0.0837
15827W        W33351   3.218  17.586   4.462  0.0242  0.0798 -0.0244
15828W        W33352   5.280  12.280  12.068 -0.0662 -0.0029  0.1162
15829W        W33353  16.145   6.766   1.797 -0.2493  0.1019  0.1337
15830W        W33354   5.106  13.234   2.432  0.0796  0.3560 -0.1130
15831W        W33355  15.604   1.624  13.670 -0.0227 -0.1192 -0.3286
15832W        W33356   9.067   9.723   4.578 -0.3607 -0.1169  0.3731
15833W        W33357  17.381   8.001  13.155  0.1336  0.2045 -0.1813
15834W        W33358   2.262   7.086   1.801 -0.3626 -0.0868 -0.3133
15835W        W33359   2.348  14.118  14.911  0.4680  0.3444  0.1587
15836W        W33360  16.992  13.184   4.496  0.4054  0.2339 -0.2491
15837W        W33361  16.425  13.018  12.506  0.1027  0.1742 -0.1413
15838W        W33362  10.728  11.563   0.766 -0.4140 -0.3168  0.1440
15839W        W33363  13.268   9.020   3.658 -0.1267 -0.1394  0.1672
15840W        W33364   8.929  13.460   4.096  0.0458 -0.0484  0.1778
15841W        W33365  12.687  15.734  12.030 -0.0317 -0.2898 -0.1059
15842W        W33366  13.599   6.170  11.868  0.1402 -0.1616 -0.3284
15843W        W33367  12.750  12.346   4.813 -0.1107  0.3161 -0.0864
15844W        W33368   4.819   1.998  11.255 -0.1123  0.0286  0.0616
15845W        W33369   0.207  14.866   3.586 -0.0134 -0.2458  0.0893
15846W        W33370  14.164  10.170   4.869 -0.3695  0.1926  0.1524
15847W        W33371  15.234   6.896  13.995  0.0748  0.2104  0.2843
15848W        W33372   2.424  13.942  13.159  0.0135  0.1790  0.0671
15849W        W33373   5.943  11.827  14.824 -0.3173 -0.1455  0.2455
15850W        W33374   5.884   6.514   5.008 -0.1703 -0.0540 -0.3265
15851W        W33375  10.642   7.011   3.775 -0.0401 -0.0609 -0.0208
15852W        W33376  11.502   7.267   3.453  0.2116 -0.2243 -0.2359
15853W        W33377   8.504   5.958   5.048  0.2450  0.0283  0.2374
15854W        W33378  16.920   6.270   5.239 -0.1908 -0.2645  0.0039
15855W        W33379   8.204  15.938   4.378 -0.0675  0.1978 -0.0462
15856W        W33380  11.526  16.510  14.438 -0.0314 -0.0490 -0.0371
15857W        W33381  16.483   0.269   1.161  0.0913  0.1359  0.3694
15858W        W33382   0.653  15.780  13.603 -0.0527  0.2788  0.2451
15859W        W33383  16.273   4.483   3.563 -0.0130 -0.0369  0.0485
15860W        W33384  12.169   5.956   1.839  0.2390  0.2477 -0.2156
15861W        W33385   7.947  12.002  15.429 -0.1846  0.2330 -0.0458
15862W        W33386   1.231  16.183  10.981 -0.1845 -0.1611  0.2779
15863W        W33387  16.721  10.602   2.717  0.0384 -0.0958  0.1322
15864W        W33388  14.145  17.803  15.623  0.2106 -0.3586 -0.0842
15865W        W33389   6.205  14.686  12.436  0.3483 -0.0189 -0.2276
15866W        W33390   7.886  11.802   0.599 -0.4713  0.0259  0.1334
15867W        W33391   9.725   0.580   4.372 -0.3452 -0.1913  0.1620
15868W        W33392  13.635  12.795  13.252 -0.1478  0.0360 -0.1693
15869W        W33393   1.229  18.275   3.246  0.0009 -0.1199  0.2099
15870W        W33394   4.855   4.366  12.963 -0.0342 -0.0835  0.2563
15871W        W33395  14.215  17.794  11.742  0.1675  0.0972 -0.0145
15872W        W33396  16.780   0.549  13.560  0.1038 -0.0010 -0.1593
15873W        W33397  13.333   5.449   1.507 -0.0626  0.1272  0.0774
15874W        W33398   6.691  12.191  12.953 -0.0134  0.2428 -0.3460
15875W        W33399   0.972   6.123   2.093 -0.0000 -0.1256  0.0375
15876W        W33400  16.825   6.618   4.161 -0.0228  0.1116  0.1435
15877W        W33401   1.419  10.538  14.710  0.0999  0.0814 -0.3400
15878W        W33402  17.049   3.126   3.188  0.2016  0.0033  0.3973
15879W        W33403  10.025  10.214   1.989 -0.1648  0.2799 -0.0903
15880W        W33404  16.671  14.153   1.188 -0.5285  0.0946  0.2450
15881W        W33405  11.759   0.267   1.019  0.1413 -0.2580  0.3034
15882W        W33406   0.938   7.189   0.606  0.1271 -0.3418 -0.1426
15883W        W33407   6.232  16.355  14.714  0.0705  0.3491 -0.0001
15884W        W33408  14.092  15.432  13.416 -0.1751  0.1700 -0.3772
15885W        W33409  11.759  14.370   1.781  0.4403 -0.0468 -0.1221
15886W        W33410   5.556   6.869   1.448  0.1072  0.1061  0.1316
15887W        W33411   6.331   0.703  14.194 -0.0482  0.4207  0.1235
15888W        W33412   0.959   6.013  13.549 -0.1021  0.0532  0.2881
15889W        W33413   1.424  12.550  13.787  0.2869  0.2643 -0.2599
15890W        W33414  12.468  13.962  10.756  0.1063  0.0093 -0.0796
15891W        W33415   1.499   1.353  14.274 -0.0153  0.0583 -0.1870
15892W        W33416   3.692   3.982  15.502  0.0830 -0.1057  0.2362
15893W        W33417   4.905  11.460  12.009  0.0764 -0.1290 -0.1494
15894W        W33418   7.535  14.465  11.777  0.1211  0.0371 -0.2977
15895W        W33419  13.639  14.368   6.011  0.1092 -0.0850 -0.1288
15896W        W33420   0.251   2.278   3.311  0.0834  0.0943  0.0893
15897W        W33421  16.462  12.243   3.287 -0.1324  0.1346  0.0335
15898W        W33422  17.228  14.173  15.689  0.2477 -0.4364  0.2732
15899W        W33423  18.325  12.316   0.073  0.1999  0.2259 -0.0133
15900W        W33424   9.518  11.784  13.097 -0.2140 -0.2869  0.0957
15901W        W33425  12.736  11.858   5.337 -0.2347  0.1058  0.2621
15902W        W33426  11.901  15.723   1.872 -0.2799  0.0142  0.1917
15903W        W33427  16.319   4.180  13.990  0.1621 -0.2273  0.2275
15904W        W33428  18.229   8.987  12.351  0.0098  0.1372 -0.0012
15905W        W33429   1.321   8.838  15.665  0.1500  0.1298  0.0521
15906W        W33430   6.225   0.939   3.019 -0.1066  0.1564 -0.0373
15907W        W33431   7.028  18.384   3.698 -0.3269 -0.1478 -0.1936
15908W        W33432  15.490   1.013  13.784  0.2563  0.0556 -0.0739
15909W        W33433  15.985  10.657  13.536  0.1678  0.2809  0.0158
15910W        W33434   3.076   6.462  11.401 -0.2250  0.0426 -0.0337
15911W        W33435   6.777  13.876   4.821  0.0313 -0.1345  0.0484
15912W        W33436  14.504   9.122   4.275 -0.1094 -0.1222  0.2596
15913W        W33437   8.057  13.764  14.613 -0.0912 -0.0710  0.0498
15914W        W33438   3.273   1.129   4.420 -0.2414  0.0925 -0.2369
15915W        W33439  16.738  17.798   5.213  0.2271 -0.0096 -0.1841
15916W        W33440   2.000  16.610  11.044  0.0476  0.0208 -0.2935
15917W        W33441   1.421  11.028  12.424 -0.1180  0.1748 -0.2507
15918W        W33442   7.081  14.134   0.652 -0.2234 -0.0850 -0.0876
15919W        W33443   7.812  15.037   3.510  0.2484  0.1286  0.2433
15920W        W33444  11.081  13.760  12.411 -0.1082  0.5193  0.1477
15921W        W33445   1.644   4.874  11.300 -0.1498  0.0950  0.0766
15922W        W33446  18.379  17.376   2.895 -0.1122 -0.2201  0.0349
15923W        W33447  15.424   2.562  13.709  0.1486  0.1534  0.1272
15924W        W33448  12.359   2.246   0.905 -0.1923  0.1444  0.3875
15925W        W33449  12.278  11.990  12.112 -0.0600 -0.2816 -0.0446
15926W        W33450   6.202   7.458  12.292  0.1190 -0.0767  0.2433
15927W        W33451   2.205  16.575   3.693 -0.0329  0.0375 -0.3206
15928W        W33452   9.071  14.568   1.371 -0.0358  0.2992  0.3463
15929W        W33453  17.823   0.233  11.743  0.2128 -0.1287  0.1207
15930W        W33454  12.896   4.200  14.494  0.1247 -0.1065 -0.0625
15931W        W33455   9.874  10.214  15.179 -0.1846 -0.1690  0.2728
15932W        W33456   8.984   4.277   2.349  0.0298  0.0110 -0.0129
15933W        W33457  10.746  11.706   4.779 -0.1035 -0.1552 -0.0590
15934W        W33458  15.045   1.495  11.851 -0.0007  0.0843  0.2956
15935W        W33459   5.119  11.546   2.991 -0.1256  0.1173  0.0593
15936W        W33460  14.438   0.208   4.287 -0.3744 -0.0696  0.0405
15937W        W33461   6.526   4.786   1.978 -0.0853 -0.2943  0.0136
15938W        W33462   0.425   8.898  13.537  0.1161  0.1490  0.1672
15939W        W33463   3.331   8.095   2.148 -0.0764  0.2860 -0.2625
15940W        W33464   4.493  12.850  12.402 -0.0209 -0.0073  0.0214
15941W        W33465   1.980  17.801  15.497 -0.0601  0.2529  0.1363
15942W        W33466   3.055   5.566  11.891  0.1248 -0.0736 -0.1069
15943W        W33467   4.453  15.922   3.299 -0.0578  0.3319 -0.1633
15944W        W33468   4.024  16.625   1.846 -0.1566 -0.5494  0.2508
15945W        W33469   6.177   1.278   4.895 -0.2547  0.0446 -0.1989
15946W        W33470  15.764   6.330   1.236 -0.0576 -0.0501 -0.0791
15947W        W33471   3.067   9.994  15.167 -0.1831  0.1564  0.1084
15948W        W33472  17.217  16.291   3.084  0.1457 -0.0471  0.1054
15949W        W33473  17.304   2.232   3.094 -0.1575 -0.0209 -0.1171
15950W        W33474   2.863  15.701  15.723  0.1743  0.1307  0.3078
15951W        W33475   0.712  14.220  11.722  0.3738  0.3033  0.0494
15952W        W33476  11.766   1.008  14.415  0.0850 -0.1278  0.0995
15953W        W33477   4.969   8.975   0.225  0.1330 -0.1476  0.0435
15954W        W33478   5.653   0.925   2.957  0.2305 -0.0470  0.0997
15955W        W33479   2.433   0.958  14.392 -0.0536  0.0465 -0.2464
15956W        W33480   2.042  16.120  11.127 -0.1937  0.0532 -0.1291
15957W        W33481  16.905   9.996   2.142 -0.1340 -0.0926 -0.3728
15958W        W33482   2.244   1.075   2.322 -0.0832  0.1808  0.3150
15959W        W33483  15.255   9.878   0.985 -0.0532  0.0985  0.2166
15960W        W33484  17.102   2.482   2.726  0.2907 -0.1965 -0.0717
15961W        W33485   2.964   7.533  15.681  0.0138  0.0037 -0.3639
15962W        W33486  10.866   6.977  11.651 -0.1448  0.0072  0.0277
15963W        W33487  11.927  10.259   1.280  0.1267  0.1893  0.2901
15964W        W33488  15.910  17.584   0.265  0.4650 -0.2764  0.3755
15965W        W33489   4.469  16.183  13.070 -0.3292  0.0094 -0.2304
15966W        W33490  13.456  14.048  14.867 -0.0712  0.0816  0.0679
15967W        W33491   1.795   6.375   1.832 -0.1567  0.0138  0.0452
15968W        W33492  10.365   2.173   3.694  0.0149 -0.0094  0.0956
15969W        W33493   7.763  16.442   1.915  0.1211 -0.1428  0.0420
15970W        W33494   3.603  13.582  14.520 -0.0178  0.0432  0.2833
15971W        W33495  10.582  13.690   5.053 -0.1371 -0.2056  0.0698
15972W        W33496   9.909  15.591   2.393  0.1588  0.2287  0.0142
15973W        W33497  12.213  17.868  12.826  0.0422  0.0341 -0.1338
15974W        W33498   4.347  13.314  10.592  0.0784  0.0003  0.2677
15975W        W33499  13.372  15.792   4.778  0.0459 -0.0841 -0.2766
15976W        W33500  16.259  15.069   4.234 -0.0350 -0.0449  0.2177
15977W        W33501  13.443   5.163   3.040  0.1051  0.0440 -0.0398
15978W        W33502  14.364   4.251  15.078 -0.0429 -0.2078  0.1182
15979W        W33503   5.425   0.740   0.832 -0.1254 -0.3027 -0.1909
15980W        W33504   8.865   0.423  13.128 -0.3737  0.1506 -0.1675
15981W        W33505   6.030   6.063   2.909  0.2939 -0.1912  0.1459
15982W        W33506  17.392   1.609  13.126 -0.1226 -0.0229 -0.1132
15983W        W33507   3.549  17.549  10.820 -0.2047 -0.0068  0.2644
15984W        W33508   5.608  16.767  11.828 -0.0686  0.0546 -0.5208
15985W        W33509  14.592   2.776  12.273  0.0220 -0.1791  0.2554
15986W        W33510  13.275  11.733  15.381  0.1848  0.5051 -0.1437
15987W        W33511   6.420  12.599   3.644  0.1571 -0.0178  0.1599
15988W        W33512   7.419  14.524   2.275 -0.0300 -0.1746 -0.1515
15989W        W33513   1.551  18.216   0.930  0.0744 -0.0713 -0.0431
15990W        W33514  10.964   4.275  14.251 -0.0174  0.0201  0.2761
15991W        W33515  11.974   1.526   3.800 -0.1616 -0.0812  0.2210
15992W        W33516   2.568  12.893   2.991 -0.0129 -0.1857  0.1906
15993W        W33517  14.097   9.177  12.128  0.0163 -0.1115 -0.2566
15994W        W33518  12.959  15.120   4.269  0.1408  0.0610 -0.1447
15995W        W33519  14.648  12.879  12.861 -0.0277  0.2658  0.2268
15996W        W33520   8.244   1.091  15.269  0.0068  0.5141 -0.0493
15997W        W33521  16.104  16.199  15.409  0.1513  0.1384 -0.2198
15998W        W33522   9.867  13.768   3.678 -0.3825  0.0623 -0.0562
15999W        W33523  11.540  17.574   2.555 -0.2255 -0.1744 -0.2480
16000W        W33524   5.878  13.854  13.306 -0.1261  0.0393 -0.2480
16001W        W33525   0.266  17.361   0.613 -0.0488 -0.0585  0.2873
16002W        W33526  10.487   8.059  15.809 -0.1785 -0.0127 -0.3555
16003W        W33527  10.135  13.528  15.506 -0.2716 -0.3426  0.1776
16004W        W33528  12.597  18.406   1.404  0.1984 -0.0315  0.0260
16005W        W33529  10.494  11.803   2.537  0.0061 -0.3518 -0.5224
16006W        W33530  16.648   1.988  12.443 -0.3544 -0.1971 -0.1908
16007W        W33531  13.398   9.010  14.419 -0.1653 -0.2330 -0.0438
16008W        W33532  11.272   4.861  13.182 -0.0035  0.1467 -0.1918
16009W        W33533  12.949   1.622   1.741  0.1309 -0.1033 -0.0710
16010W        W33534   0.509  17.115   1.597 -0.1750  0.1044  0.1844
16011W        W33535   4.701  16.351   3.209  0.0373 -0.1526  0.0611
16012W        W33536   9.146  14.372  15.199  0.3301 -0.1303 -0.0346
16013W        W33537  13.842  11.128   2.395  0.1001  0.5468  0.0556
16014W        W33538  16.318  17.629  14.560 -0.0966  0.0389  0.0486
16015W        W33539  15.517   9.531  15.369 -0.0681 -0.0451 -0.1693
16016W        W33540  17.340   5.272  11.428 -0.3629  0.0585 -0.1823
16017W        W33541   3.591   0.681   3.249  0.2053 -0.1514 -0.1617
16018W        W33542   3.313  14.976  13.501 -0.0701  0.3066 -0.2106
16019W        W33543   5.747  12.718   1.920 -0.0182 -0.0910  0.2754
16020W        W33544   2.448  12.887  14.473 -0.3138  0.3085  0.0575
16021W        W33545  10.362  14.723   0.619  0.2775  0.1243  0.0521
16022W        W33546   9.401  12.091   3.932 -0.0237 -0.0431  0.1789
16023W        W33547   3.593  10.203   3.457 -0.0420  0.0916  0.0596
16024W        W33548   0.397  16.607   3.861 -0.1383  0.0626 -0.1892
16025W        W33549   7.221   1.458  14.825 -0.1675  0.0298  0.2349
16026W        W33550   3.318  17.702   3.530  0.0698  0.0893 -0.0442
16027W        W33551   0.607  14.339   0.281 -0.4610  0.3066  0.0245
16028W        W33552  18.326   5.408   1.122 -0.0720 -0.1327 -0.1552
16029W        W33553   3.671  11.556   3.170  0.1247  0.0936  0.0247
16030W        W33554  11.452   3.004  14.167 -0.2656  0.0596  0.1188
16031W        W33555  12.513  14.977  14.534  0.3557  0.4185 -0.1042
16032W        W33556   4.098  17.948  12.063  0.1057  0.0581 -0.0470
16033W        W33557  15.531  11.375  11.477  0.1466 -0.1827  0.2839
16034W        W33558   4.229   1.559  13.282 -0.0608  0.2891  0.0591
16035W        W33559  17.534   6.146  15.578 -0.3929  0.1425  0.1457
16036W        W33560   7.544   5.212  14.642  0.1089  0.0495  0.1381
16037W        W33561  14.409   9.462  11.828  0.1136 -0.0331  0.2662
16038W        W33562   9.784   8.673  14.325 -0.1899  0.2933 -0.2764
16039W        W33563  13.315   3.203  14.279 -0.0301  0.0175 -0.0813
16040W        W33564  17.975  17.805  11.436  0.0360  0.1710 -0.0888
16041W        W33565   8.730   9.500  12.633  0.3468 -0.2260 -0.0837
16042W        W33566  10.254   7.568   0.222 -0.0505  0.0091 -0.3506
16043W        W33567   4.529  10.325   3.602 -0.0747  0.1212  0.1256
16044W        W33568   1.981   2.085   4.320  0.1205  0.1285  0.2509
16045W        W33569  18.317   5.142   2.079 -0.1056  0.2899  0.0937
16046W        W33570   0.457  11.509  10.982  0.0846 -0.1739 -0.0165
16047W        W33571  13.412  13.970  11.003  0.1530 -0.0248 -0.1407
16048W        W33572  15.772  14.910   1.663  0.0361 -0.0883 -0.0668
16049W        W33573  13.143   4.337   3.336 -0.0396  0.1293 -0.1845
16050W        W33574  13.133  12.257   6.161 -0.3933 -0.1908 -0.2259
16051W        W33575  15.671  15.262   3.210  0.2150 -0.0372  0.3324
16052W        W33576  17.233   4.249   0.848  0.0618 -0.0724 -0.0278
16053W        W33577  15.769   3.426   2.264 -0.2067 -0.2306  0.2498
16054W        W33578  15.149   3.957   4.070  0.1054 -0.0751 -0.2303
16055W        W33579  13.902   4.759   1.191 -0.0328  0.1294 -0.1424
16056W        W33580   1.695   0.688   1.600 -0.0417 -0.1872  0.0194
16057W        W33581  16.384   9.395  14.948 -0.1681 -0.0225  0.1993
16058W        W33582  11.612  14.996   4.274  0.5270 -0.3831 -0.0484
16059W        W33583  15.770   0.698   3.426 -0.1307  0.1293  0.3467
16060W        W33584   3.708  18.100  14.965 -0.3027  0.2050  0.2784
16061W        W33585  18.397  18.258   3.178 -0.1785  0.0548 -0.0728
16062W        W33586  15.594   3.019  13.899 -0.0175 -0.0725  0.2477
16063W        W33587   7.854   7.748   1.602 -0.2654  0.3252  0.3317
16064W        W33588   0.108  12.999  13.998  0.0463 -0.0073  0.1417
16065W        W33589   9.368  16.066  13.569  0.0618 -0.0269 -0.0365
16066W        W33590  14.279  15.791  13.990  0.0949  0.1279 -0.1480
16067W        W33591  11.644  12.977   3.304  0.1286 -0.0026 -0.0443
16068W        W33592   9.426  15.099   2.260  0.1099  0.0656 -0.3184
16069W        W33593  17.920   3.968  15.151  0.0851 -0.0380  0.0642
16070W        W33594  17.408  15.933   4.039 -0.1785  0.1771  0.1649
16071W        W33595   6.100  14.624  12.939  0.4316 -0.4011  0.0430
16072W        W33596   4.143   8.636  12.081  0.1266  0.1828 -0.0482
16073W        W33597  12.869  14.242   5.021  0.0433 -0.1756  0.0050
16074W        W33598  12.197  15.761   0.056  0.1521 -0.0589  0.1818
16075W        W33599  17.698   5.750  11.466 -0.1510  0.0016 -0.1921
16076W        W33600   7.009   7.250   3.068  0.1525 -0.1150 -0.1027
16077W        W33601  13.615  12.993   0.877 -0.3200 -0.0896 -0.2908
16078W        W33602  11.357  10.778   0.689 -0.2604  0.1266  0.0507
16079W        W33603  17.191  15.545   1.400  0.0415  0.2557 -0.0568
16080W        W33604   4.769   9.469   2.155  0.2597  0.0556 -0.1216
16081W        W33605  13.073   7.812   1.445  0.2192  0.2342 -0.1035
16082W        W33606   4.016  10.830  13.257 -0.0293  0.2157 -0.0203
16083W        W33607   0.508   5.191  15.329 -0.0503  0.1554  0.2870
16084W        W33608  11.431   1.714   5.443 -0.0184 -0.0334  0.2345
16085W        W33609  13.353   3.480  15.080 -0.1918  0.1190  0.0937
16086W        W33610   6.364  10.488  14.530 -0.0025  0.0843 -0.0812
16087W        W33611  15.523   8.799   0.004  0.0331 -0.0744 -0.1768
16088W        W33612   1.416   4.627   2.465 -0.1793  0.0443  0.3572
16089W        W33613   7.247   4.805  14.643  0.1850  0.1452 -0.2240
16090W        W33614   6.289   5.898  15.416  0.0192 -0.0668  0.1307
16091W        W33615   3.212  14.192   3.829  0.2211 -0.1747  0.0453
16092W        W33616   6.906  12.379  12.551 -0.0994  0.0435 -0.1961
16093W        W33617  12.300   0.499   1.441 -0.2131  0.2110  0.2423
16094W        W33618  13.022   4.069  11.868 -0.0894  0.0452  0.1750
16095W        W33619   2.058   7.292  14.373 -0.2822 -0.0952  0.7032
16096W        W33620   5.189  16.533   2.022 -0.2239  0.0133  0.3599
16097W        W33621   3.252  12.287   2.663  0.0974  0.1330  0.0497
16098W        W33622  15.055   8.669  13.948 -0.3815  0.3469  0.0128
16099W        W33623   3.581   1.665  15.048 -0.0387  0.3271 -0.1912
16100W        W33624  16.213  15.801   2.820  0.0936  0.0508 -0.1076
16101W        W33625  14.770  13.233   2.477 -0.0671 -0.0102 -0.1239
16102W        W33626   3.972  13.521   1.694  0.2381  0.0377 -0.2789
16103W        W33627  15.073   5.625  15.526 -0.1761  0.3911  0.1521
16104W        W33628   8.081  17.327   1.284  0.2309 -0.0047  0.0628
16105W        W33629   6.353   9.057   3.592  0.1341 -0.2400  0.0278
16106W        W33630   6.273  17.798   1.276 -0.2235 -0.0487 -0.0233
16107W        W33631  13.525  15.973  15.147  0.2008  0.0102 -0.0744
16108W        W33632   8.254   4.664  11.547  0.0699  0.3283 -0.2075
16109W        W33633   9.069  10.313  12.408 -0.2339 -0.2320  0.3654
16110W        W33634   5.826  17.719   1.010 -0.0308  0.1316  0.0163
16111W        W33635   6.340  10.718  11.123  0.1635  0.2076 -0.0483
16112W        W33636   4.858  13.846   1.806  0.0367 -0.0465 -0.2191
16113W        W33637  15.388   5.170  11.279  0.2406 -0.3517 -0.1505
16114W        W33638   6.035   1.015   2.033 -0.1232 -0.0557  0.1059
16115W        W33639   3.055   9.860   2.996 -0.0292 -0.0190 -0.2164
16116W        W33640  17.648   0.675  11.955  0.1900 -0.0000  0.1678
16117W        W33641   4.136  13.763  12.146  0.1690  0.0028  0.1015
16118W        W33642  14.392   8.815  13.417 -0.0197  0.0381 -0.1946
16119W        W33643   2.321   7.301   2.984 -0.0612  0.2178  0.0212
16120W        W33644   9.154   6.032   1.456  0.3646 -0.0205  0.1646
16121W        W33645  16.378   7.061  12.952  0.0966  0.0624 -0.2671
16122W        W33646  17.167  14.150  13.961 -0.2429  0.0642  0.1613
16123W        W33647  16.501   6.148  10.759 -0.0335 -0.1574 -0.3577
16124W        W33648  11.532  17.873   0.592  0.0515 -0.7319 -0.0475
16125W        W33649  15.443   6.579  12.101  0.4051  0.0571 -0.1879
16126W        W33650   1.759  10.777  12.167 -0.3538 -0.0593  0.2058
16127W        W33651  18.248   2.769   1.868  0.0388 -0.3517 -0.0134
16128W        W33652  18.071   7.817  15.232 -0.2349 -0.0901  0.1549
16129W        W33653   4.354   5.080  14.762 -0.0972 -0.1985  0.0141
16130W        W33654   2.101  11.572  14.553 -0.0423  0.2392 -0.0781
16131W        W33655  16.690  15.028   0.687 -0.0676  0.4708 -0.0783
16132W        W33656   8.238   0.065   4.703 -0.1127  0.0690 -0.0669
16133W        W33657   8.128   7.393   2.872  0.1846  0.1237  0.1556
16134W        W33658  13.673  12.376  14.751  0.0390 -0.1436  0.0288
16135W        W33659  10.558   3.314   1.694  0.3112 -0.2061  0.1242
16136W        W33660   9.497   4.508  11.918 -0.0256 -0.0458  0.0490
16137W        W33661  15.152   5.176  12.272  0.1072  0.0037 -0.0168
16138W        W33662  17.312  11.398   1.617  0.1229 -0.0765 -0.2142
16139W        W33663   9.089  10.664  10.448  0.1345  0.2730 -0.1221
16140W        W33664  14.949   5.702   3.000  0.1121 -0.0920  0.1459
16141W        W33665   2.197  16.763   0.940  0.1688  0.0481  0.5373
16142W        W33666  15.492  11.400  15.571  0.0434  0.1931  0.0628
16143W        W33667   8.306   2.626  12.332 -0.0343  0.1520 -0.0658
16144W        W33668  17.130  12.515   4.362  0.3759  0.1603 -0.0460
16145W        W33669  15.483  16.198   0.742 -0.3475 -0.1070  0.1455
16146W        W33670  14.427  11.652  12.134 -0.0530 -0.0944  0.2430
16147W        W33671   1.799   7.836  12.525  0.1424  0.0286  0.1507
16148W        W33672   3.668   2.414   2.057 -0.0279  0.2545  0.1164
16149W        W33673   6.776   1.943   3.577 -0.1807  0.0028 -0.0940
16150W        W33674   3.139  10.553   0.077  0.1216 -0.1007 -0.1581
16151W        W33675  10.696  10.367  15.248 -0.0315  0.0947 -0.0135
16152W        W33676   3.523  10.227  10.894 -0.0585  0.1425 -0.2013
16153W        W33677  10.654   0.062  15.437  0.1747  0.1541  0.2533
16154W        W33678   1.915  18.408   0.600 -0.2162  0.0786 -0.1606
16155W        W33679  11.743  11.325   3.027 -0.3146 -0.3438 -0.0993
16156W        W33680   1.691   0.419   2.419 -0.0616  0.0417 -0.2696
16157W        W33681   6.385   0.777   0.026 -0.0898 -0.2041  0.0860
16158W        W33682   4.949   5.977   4.755 -0.0277  0.1934 -0.0491
16159W        W33683  17.292   8.906   1.059  0.1507 -0.0568 -0.2993
16160W        W33684   9.688   6.948  11.817 -0.1897  0.0265  0.2847
16161W        W33685  17.427   3.487   0.501 -0.0406  0.0599 -0.2878
16162W        W33686   5.544  16.382  13.891 -0.0801  0.2822 -0.0309
16163W        W33687  11.743   1.303   1.078 -0.1917 -0.2036 -0.0943
16164W        W33688   5.745  17.762  10.872 -0.2007 -0.1653  0.4175
16165W        W33689   8.989  17.077  14.497 -0.1825 -0.0109 -0.0480
16166W        W33690   2.717   7.939  14.964 -0.2933 -0.0272  0.3116
16167W        W33691  13.444   9.249  15.580 -0.0962 -0.1275 -0.1683
16168W        W33692  16.484   3.632   0.204 -0.0410 -0.2338  0.1597
16169W        W33693  10.948   9.934  15.614  0.0651  0.3073 -0.2453
16170W        W33694   0.307   1.985   2.935 -0.3916 -0.2942  0.0758
16171W        W33695  14.040  18.020   3.593  0.0556  0.1981  0.0659
16172W        W33696   5.891   5.767   3.423  0.0151  0.1767 -0.0481
16173W        W33697   2.301   4.709  15.323  0.3360 -0.3125  0.0407
16174W        W33698  16.033   3.315   1.724 -0.0405 -0.0901 -0.3053
16175W        W33699  14.418   3.836   4.504 -0.5777  0.1228  0.0418
16176W        W33700  12.617   6.000  14.637  0.1651 -0.0815  0.1254
16177W        W33701   4.725  11.822  11.668 -0.1498 -0.0412  0.2574
16178W        W33702  11.714  17.553  11.738 -0.2794  0.0143  0.1943
16179W        W33703  12.855   8.364  12.874 -0.2003 -0.2110 -0.0278
16180W        W33704  10.140   8.466  15.833  0.0197  0.0908 -0.0909
16181W        W33705   7.475   6.500   0.747  0.1590  0.1157  0.0223
16182W        W33706   9.072  12.765  11.827  0.2885  0.4147 -0.1494
16183W        W33707  16.788   7.165   0.565  0.1810  0.1713 -0.5237
16184W        W33708   8.421  13.712   1.974 -0.0715 -0.1362 -0.0679
16185W        W33709   2.813   0.369   1.276 -0.0705 -0.0061 -0.1002
16186W        W33710   8.982   3.271  15.027 -0.0405 -0.0099 -0.2246
16187W        W33711  14.051   8.596   3.901  0.0482 -0.2345 -0.2628
16188W        W33712   6.536   6.502  14.720 -0.1944 -0.0878 -0.3525
16189W        W33713   6.338  17.473  15.138  0.1105 -0.0092 -0.1626
16190W        W33714   6.231   1.168  14.112  0.0083  0.0260 -0.0485
16191W        W33715  17.239   6.556   4.460  0.1412 -0.4164  0.4119
16192W        W33716   5.578   7.977   2.622  0.2550 -0.0042 -0.3214
16193W        W33717   1.499  13.186   3.692 -0.0748 -0.0059 -0.0359
16194W        W33718  17.672   7.920  12.745  0.1290 -0.0921 -0.0093
16195W        W33719   5.584  11.922   3.826 -0.0357  0.0274  0.0185
16196W        W33720   5.232   5.580   2.382  0.0256 -0.1223 -0.1774
16197W        W33721  12.460  17.807  11.834 -0.0653 -0.3335  0.1324
16198W        W33722  14.081   8.677   1.577 -0.2329 -0.1849 -0.1333
16199W        W33723  15.833   6.110   4.291  0.0338 -0.0147 -0.1128
16200W        W33724   8.916   5.838   4.820 -0.1485  0.3894  0.1520
16201W        W33725   3.971  18.094   1.424 -0.0331  0.0744 -0.0494
16202W        W33726  12.137   7.701   3.535  0.1833  0.1412 -0.2527
16203W        W33727   3.055  13.032  15.091 -0.1200 -0.0963 -0.0080
16204W        W33728  15.818  12.945   3.472 -0.4896  0.1543 -0.4063
16205W        W33729   6.352  14.022  14.714  0.2567 -0.0489 -0.1900
16206W        W33730  11.255   9.433  11.798 -0.1050 -0.1228 -0.2268
16207W        W33731   3.035  14.969  10.814  0.3584  0.3831 -0.4086
16208W        W33732  11.780  13.448   6.305  0.0261  0.0957 -0.2507
16209W        W33733  12.652   3.977  12.216  0.4917 -0.0112 -0.1102
16210W        W33734   1.904   1.508  12.673 -0.0669 -0.0210  0.0036
16211W        W33735  12.499   6.918  14.676 -0.0271  0.0822  0.0683
16212W        W33736  18.083   4.566   4.561  0.0237  0.1799 -0.1411
16213W        W33737   7.976   9.725  15.853 -0.0867 -0.1215 -0.0609
16214W        W33738   9.159   2.277  13.135  0.2602 -0.1527  0.0036
16215W        W33739  10.001  10.204  13.038 -0.2261  0.0427 -0.1406
16216W        W33740  18.174   0.469  10.918 -0.2465  0.3049  0.4499
16217W        W33741  15.032  14.770   0.337 -0.1232  0.1388  0.1916
16218W        W33742  15.026  17.771  15.049 -0.0763  0.0926  0.0344
16219W        W33743   5.669  14.464   0.139 -0.2906  0.3486 -0.3534
16220W        W33744   9.550  12.640   1.615  0.2665 -0.1235 -0.4214
16221W        W33745  15.370   5.625   1.971  0.1946 -0.0243 -0.2637
16222W        W33746   5.423   9.694  15.215 -0.0264  0.3270 -0.0358
16223W        W33747   2.156   7.977  11.192  0.3839  0.0955  0.1156
16224W        W33748  12.792  11.519  12.922 -0.2252 -0.1868  0.1009
16225W        W33749   3.868  13.687  14.977  0.0638  0.0292  0.0333
16226W        W33750  10.490   5.919  15.850  0.4092 -0.3174  0.1938
16227W        W33751   2.841  13.464  15.259 -0.0005 -0.0250  0.1573
16228W        W33752  15.075   9.865   2.915 -0.0406  0.2791  0.1278
16229W        W33753  13.916  13.002  13.705 -0.0645 -0.0404 -0.0223
16230W        W33754   3.744   8.689  15.283  0.0035 -0.1846 -0.1359
16231W        W33755   7.359   5.896   3.933 -0.0657 -0.1914  0.0225
16232W        W33756  15.943  13.499  14.181 -0.2892 -0.1430 -0.1391
16233W        W33757  14.862  10.289   4.991  0.1407  0.3309 -0.2496
16234W        W33758   2.860   3.418  15.600 -0.3217  0.2479 -0.3805
16235W        W33759   6.303  15.473  14.715 -0.1633  0.0204 -0.2877
16236W        W33760   8.282   3.071  11.830 -0.4377  0.1245  0.1435
16237W        W33761   6.403  10.101   2.042  0.1364  0.0210 -0.0291
16238W        W33762  17.368   5.751   0.045  0.0977  0.1310 -0.0056
16239W        W33763   7.297  17.600  14.071 -0.2161  0.2275  0.3584
16240W        W33764   1.193   2.368  14.803  0.0827 -0.2388 -0.1823
16241W        W33765  16.281  10.471   4.372 -0.1852  0.0296  0.0082
16242W        W33766   8.067   0.972  13.242 -0.1980  0.0500 -0.3928
16243W        W33767  11.816   0.395   3.675  0.1053 -0.1322 -0.1331
16244W        W33768   5.299   6.373   2.853  0.0686  0.2029  0.2823
16245W        W33769  12.093  16.224   1.926  0.1213 -0.0973 -0.0288
16246W        W33770   5.106  11.290  14.749  0.4214  0.3396 -0.2386
16247W        W33771   6.388  10.992   1.477 -0.1930 -0.1295  0.1166
16248W        W33772   6.901   0.494   2.364 -0.2574  0.2105 -0.2686
16249W        W33773  18.004  11.814  14.317 -0.2089 -0.1676 -0.0846
16250W        W33774   0.423   9.848   3.794  0.4892  0.0721 -0.1484
16251W        W33775   2.613  16.796   5.152 -0.0357  0.1695 -0.0161
16252W        W33776  15.151   6.506  10.941 -0.3601  0.0477  0.2653
16253W        W33777   9.310   3.827  13.725  0.1493 -0.2460 -0.1557
16254W        W33778   4.868   1.368   3.028 -0.2676  0.0492 -0.2115
16255W        W33779  15.542   0.429   0.146 -0.1361 -0.0532  0.1239
16256W        W33780   6.740   3.305  11.961  0.1007  0.0891  0.1140
16257W        W33781   4.839   6.730  12.565  0.1797 -0.1105  0.1726
16258W        W33782  11.430  13.493  12.641 -0.1566  0.2491  0.0997
16259W        W33783  13.515  13.916   3.582 -0.0191  0.0911 -0.0745
16260W        W33784   0.676   5.480   1.793  0.1771  0.1767  0.2666
16261W        W33785  12.100   0.549  14.293  0.0548  0.0457 -0.2210
16262W        W33786   5.743  14.476   1.622 -0.4428 -0.3404  0.1500
16263W        W33787   8.791  14.875  11.670  0.0984  0.1162  0.1514
16264W        W33788   8.173   4.802   3.384 -0.0730 -0.0747 -0.3451
16265W        W33789   5.818  12.526   0.315  0.1143  0.3164 -0.2307
16266W        W33790  18.124  18.277  11.635 -0.0101  0.1449  0.0145
16267W        W33791   8.624  13.345   0.272  0.0614  0.2081 -0.0982
16268W        W33792  16.959   1.107   3.749  0.0422  0.0785 -0.0892
16269W        W33793  13.894  14.685  15.607 -0.0121 -0.1016 -0.0869
16270W        W33794  16.152  11.370  15.074  0.0284 -0.0768  0.0821
16271W        W33795  14.120  12.589  15.516 -0.1826 -0.0518 -0.0047
16272W        W33796  14.492   5.853   3.290 -0.2663 -0.1005  0.0537
16273W        W33797  14.234  11.018  11.977 -0.1748 -0.1789  0.3538
16274W        W33798   9.748   5.702  14.542  0.1991 -0.3154 -0.1204
16275W        W33799   0.660   5.108  11.959  0.0048 -0.1883  0.2531
16276W        W33800   2.164   2.352   0.202  0.0027  0.2336  0.2452
16277W        W33801  18.049   1.655   2.391 -0.4321  0.0545  0.0825
16278W        W33802  17.425   4.034   4.012  0.1904 -0.1562 -0.0162
16279W        W33803   4.499   4.572   0.221 -0.2234 -0.0280 -0.5135
16280W        W33804   1.153   3.424  11.259  0.0252  0.2749 -0.1748
16281W        W33805   4.145   7.776  12.828 -0.1218 -0.1585  0.0803
16282W        W33806   9.453   4.266   4.014 -0.4725 -0.1284  0.1478
16283W        W33807  12.110   5.220  11.126  0.1665 -0.1136  0.3907
16284W        W33808   0.993  17.904   0.021  0.1291 -0.2126 -0.0742
16285W        W33809   6.595  12.986   0.343  0.1228 -0.0771 -0.0504
16286W        W33810   5.046  14.437  10.823  0.1395 -0.0438  0.1367
16287W        W33811  14.377  10.507  11.556  0.0720 -0.0477 -0.0911
16288W        W33812   9.147  11.453   2.716  0.2459  0.1321  0.4647
16289W        W33813  13.227  10.099   1.403 -0.2544  0.0154  0.0113
16290W        W33814   3.441  12.457  12.641  0.1523 -0.3259  0.4227
16291W        W33815   2.983   6.377   4.503  0.4917  0.1354 -0.0660
16292W        W33816  14.618   4.921  14.311 -0.1767  0.0770  0.1187
16293W        W33817   0.692   9.041   0.858 -0.0415 -0.2760 -0.0894
16294W        W33818  10.972  10.575   2.103 -0.3886  0.0091  0.1407
16295W        W33819   4.704   2.546  15.541  0.0108 -0.1740  0.1553
16296W        W33820   9.876   5.489   3.375 -0.1443  0.1995 -0.1813
16297W        W33821   6.446   0.834  11.870  0.2151 -0.0741  0.2097
16298W        W33822   9.221   6.241  10.768  0.2194 -0.0842 -0.2018
16299W        W33823  13.444   4.820   3.510  0.2007  0.4072 -0.3331
16300W        W33824   1.107  12.036   4.853  0.0857 -0.3693 -0.0067
16301W        W33825   6.618  15.285  10.148 -0.1479 -0.1799 -0.0645
16302W        W33826  11.365   5.143  12.820 -0.1109 -0.1355  0.2152
16303W        W33827   2.333  17.508   3.392 -0.1159 -0.0932  0.0683
16304W        W33828   4.223   1.059   1.816  0.4071  0.0032  0.2409
16305W        W33829  17.582  17.417  13.925  0.0730  0.0175 -0.1923
16306W        W33830   6.759   3.775  11.133 -0.0339  0.0260 -0.3289
16307W        W33831   8.433   5.093  12.408 -0.2422 -0.0461  0.1822
16308W        W33832  13.255   6.185  13.243 -0.2254 -0.1242  0.0558
16309W        W33833  18.002  12.950   1.543  0.2381 -0.0178  0.0674
16310W        W33834   4.980   9.229  13.391  0.2583  0.0260 -0.2115
16311W        W33835   9.666  13.269   2.801 -0.1422 -0.2330  0.1139
16312W        W33836   6.997  11.625  14.989 -0.1400  0.0291  0.1131
16313W        W33837  12.707   8.478   2.979  0.2343 -0.2022  0.1427
16314W        W33838   5.652   6.288  11.542 -0.0460  0.0763  0.3584
16315W        W33839  16.330   1.400   0.789  0.1712 -0.0165  0.2077
16316W        W33840   2.392  14.913   4.835  0.1756 -0.2352 -0.0941
16317W        W33841  11.818  15.422  12.279 -0.1680  0.0247  0.2584
16318W        W33842   7.893  12.979   0.922 -0.1795  0.1485 -0.0776
16319W        W33843   4.116  15.077  12.492  0.0890  0.4449 -0.1847
16320W        W33844  15.876  12.901   4.568 -0.1183  0.1155  0.1002
16321W        W33845   3.530   6.028  12.912  0.0326  0.2408  0.2196
16322W        W33846   0.570   0.609   1.558  0.0435  0.0468 -0.1092
16323W        W33847  13.805   5.275  15.760 -0.0656  0.1526 -0.2142
16324W        W33848   8.289  14.205  15.673  0.1408  0.0745  0.1195
16325W        W33849   4.052  17.149  11.385 -0.1136  0.0440  0.2401
16326W        W33850  15.378  14.214   4.454 -0.3908  0.1659 -0.0616
16327W        W33851  17.242   7.679   4.222 -0.0562 -0.0255 -0.2410
16328W        W33852  14.418   6.415   4.489  0.0474  0.0485  0.0066
16329W        W33853  17.024   8.404   1.003  0.1115 -0.0817  0.0922
16330W        W33854   5.237   2.656   3.080 -0.1427 -0.2123 -0.3779
16331W        W33855  10.648  11.781   0.344  0.1345 -0.0047  0.0294
16332W        W33856   3.588   0.412   4.967 -0.1025 -0.0238 -0.1793
16333W        W33857   9.487   9.771  11.869  0.5441  0.2078 -0.0073
16334W        W33858  10.577  16.129   1.294  0.1091 -0.0769 -0.3413
16335W        W33859   6.729   5.608  13.104 -0.1261  0.2738  0.1216
16336W        W33860   8.446   6.447   1.053  0.4663 -0.1189  0.0900
16337W        W33861  15.181   6.609   4.042  0.2571  0.1405 -0.0026
16338W        W33862   8.577   4.459   1.550  0.1833 -0.2890 -0.2554
16339W        W33863   8.989   6.409   1.036 -0.0744 -0.1913 -0.1043
16340W        W33864  17.852  11.039  14.945 -0.4106  0.3934  0.1212
16341W        W33865   3.479  16.119   3.739 -0.3737 -0.0863 -0.2173
16342W        W33866   2.519   1.194  12.334 -0.0578 -0.1110  0.0410
16343W        W33867   5.634   6.467  15.527  0.2343  0.1209 -0.1872
16344W        W33868  17.195   2.730   4.919 -0.0714 -0.1151 -0.0084
16345W        W33869  17.140  13.296  14.218 -0.0986 -0.1264  0.1057
16346W        W33870  13.966  16.324  13.306 -0.0104  0.0681  0.0259
16347W        W33871  14.473   8.872   2.794  0.0251 -0.0719  0.3327
16348W        W33872   2.988   0.012  13.906 -0.2267  0.2408  0.0145
16349W        W33873   0.055  11.763   4.688 -0.1505  0.2247  0.4413
16350W        W33874  10.661  16.537  13.743 -0.0217 -0.2604 -0.3351
16351W        W33875   0.987  16.399   3.633  0.0216  0.0439  0.0971
16352W        W33876  15.558   8.852  14.984  0.0544 -0.0453 -0.1676
16353W        W33877   2.283   8.002  15.818 -0.3079 -0.1239  0.2736
16354W        W33878   1.454  18.355  14.326 -0.3267  0.0488 -0.3009
16355W        W33879   7.474  12.984   3.154 -0.2588 -0.0081  0.1560
16356W        W33880   8.842   4.161   0.766 -0.1636  0.0657 -0.1639
16357W        W33881  15.484   2.849  12.841  0.0967 -0.0749  0.3803
16358W        W33882  11.267   7.985  12.958  0.2185 -0.2455 -0.2210
16359W        W33883  16.586  12.558  13.329 -0.3111 -0.3190  0.0758
16360W        W33884   5.882  12.658  11.515 -0.0710  0.1382  0.0083
16361W        W33885  16.155   5.915   2.479  0.1982  0.4662 -0.0771
16362W        W33886   3.637   4.843   4.522  0.1898 -0.1683 -0.1160
16363W        W33887   4.296   4.949   4.946 -0.0965 -0.1250 -0.2915
16364W        W33888   0.746   7.122  11.339 -0.1642 -0.4613 -0.0921
16365W        W33889  11.464   8.319   3.097 -0.2524  0.0434 -0.0713
16366W        W33890   6.703  16.016  12.057  0.0174  0.1293  0.1147
16367W        W33891   6.225  15.965   3.981 -0.0025  0.0775  0.3168
16368W        W33892   8.711   6.958  10.765  0.2188 -0.0488  0.0473
16369W        W33893   9.719  16.737   1.845  0.1791  0.1115  0.1665
16370W        W33894  17.394   0.397  11.575 -0.0366 -0.0146  0.1018
16371W        W33895  14.204  13.078  11.659  0.2448  0.2456  0.2340
16372W        W33896  15.381   5.586   3.253 -0.0891 -0.2600  0.0051
16373W        W33897   3.591  15.290  11.710  0.1139 -0.0433  0.1097
16374W        W33898   4.975   8.744  15.118  0.0274  0.0560 -0.1265
16375W        W33899   9.454   6.230   3.628  0.0666  0.2468 -0.1017
16376W        W33900   4.517   3.972  14.572 -0.0308 -0.2094  0.0786
16377W        W33901   3.631   7.848  14.987  0.0929  0.1495 -0.0123
16378W        W33902   2.121   4.864  11.638  0.1522  0.0638  0.1864
16379W        W33903   3.858   0.195   2.064  0.1877 -0.0941 -0.2233
16380W        W33904   3.594  15.374  10.881 -0.0376  0.0918  0.2837
16381W        W33905  12.398  17.730  13.948 -0.1935 -0.1537 -0.0019
16382W        W33906   8.408   0.087  13.140 -0.2381 -0.1164  0.2203
16383W        W33907  11.247  11.723   0.787  0.1289  0.3334  0.1842
16384W        W33908  15.805   2.245  12.831  0.1246 -0.1205  0.1065
16385W        W33909   0.326  13.672  14.834  0.0450 -0.0157  0.3266
16386W        W33910   7.449  17.722   0.685 -0.1196 -0.1178 -0.0842
16387W        W33911  11.148   1.488   5.072 -0.0812 -0.1297 -0.3129
16388W        W33912   6.256  10.422   0.741 -0.1615  0.0886  0.0380
16389W        W33913  12.847   2.990  14.369 -0.1996 -0.0923  0.1992
16390W        W33914  17.426   3.148  12.255  0.0034  0.0176 -0.0587
16391W        W33915  14.122   8.143  14.079  0.0389  0.1562 -0.2113
16392W        W33916  14.177   1.626  13.445  0.4394  0.1527  0.2586
16393W        W33917  13.201   8.448   1.366 -0.0950 -0.0701 -0.3854
16394W        W33918   7.444   6.287  15.828  0.0784 -0.0747 -0.0112
16395W        W33919  17.420   9.648  11.090 -0.4205 -0.2089  0.1989
16396W        W33920  13.071  18.127   1.399  0.1879 -0.0760 -0.0277
16397W        W33921   3.776  16.981   3.096 -0.1543 -0.3452  0.2344
16398W        W33922  17.078   6.408   0.018 -0.2611 -0.2699  0.0109
16399W        W33923   9.074   1.712  13.219  0.2632  0.1718 -0.1514
16400W        W33924  18.050   9.916  15.041 -0.1282 -0.0289  0.4603
16401W        W33925  11.766   9.817   0.243  0.0281  0.3063 -0.1420
16402W        W33926   8.786  14.178   1.215 -0.1953 -0.1345  0.0473
16403W        W33927   1.254  15.880   4.389 -0.5845  0.2402 -0.0708
16404W        W33928   0.018  16.565  15.747 -0.2484 -0.1095  0.4030
16405W        W33929   2.091   9.118   1.000  0.0762  0.2265  0.2905
16406W        W33930   0.873  10.925   5.123  0.1173  0.1287  0.0263
16407W        W33931   7.312  15.209   3.763  0.1701 -0.3375 -0.2374
16408W        W33932  12.942  17.373   2.605 -0.1202 -0.0591  0.1887
16409W        W33933  15.779   1.593  12.557  0.2682 -0.3462  0.0001
16410W        W33934   0.968  16.154  13.730 -0.0239  0.1320 -0.2079
16411W        W33935   9.460   7.497   1.052 -0.1573  0.2562 -0.1258
16412W        W33936  17.920  17.379  10.942  0.2017 -0.0567 -0.1678
16413W        W33937   3.333  14.783  12.961 -0.0048  0.1061 -0.1402
16414W        W33938  14.480  13.525  12.085 -0.3987 -0.1193 -0.0349
16415W        W33939   1.543  17.551   2.239  0.2000 -0.0138  0.0964
16416W        W33940  11.507   2.432   2.188 -0.0438 -0.0828  0.0975
16417W        W33941   8.880  10.491   2.180 -0.0055 -0.1337  0.0053
16418W        W33942   7.061   2.610   1.688 -0.0009 -0.0408  0.0643
16419W        W33943   2.889  11.203   2.688 -0.0590 -0.1562 -0.0856
16420W        W33944   5.572  17.838  12.230 -0.2109 -0.0648 -0.0908
16421W        W33945   2.583   5.276  11.939  0.1777  0.0437 -0.3239
16422W        W33946  13.166   6.288   3.882 -0.2785  0.5077 -0.2060
16423W        W33947  10.242   1.297  11.573  0.4835  0.1661 -0.1574
16424W        W33948   4.405   3.675  11.778 -0.0041  0.2040  0.0594
16425W        W33949   1.499   9.060  12.557 -0.3151 -0.1237  0.1319
16426W        W33950   5.747  14.763  14.318  0.2269 -0.0503  0.0064
16427W        W33951  15.955   2.836   4.366  0.0490  0.3599  0.0827
16428W        W33952  18.176   0.944  12.145  0.1231 -0.3107 -0.2611
16429W        W33953   0.166  12.185   3.420 -0.0665  0.1430  0.1534
16430W        W33954   9.871   4.421   3.739 -0.2193  0.0329  0.0647
16431W        W33955  10.290   8.931   4.384 -0.0317 -0.0008  0.0071
16432W        W33956   4.672   5.373   0.886 -0.1296  0.0580  0.2290
16433W        W33957   6.781  10.616  10.401  0.0975 -0.1684 -0.2169
16434W        W33958  12.156  13.128   2.966 -0.1107 -0.2020  0.1314
16435W        W33959   5.143  14.301   0.347 -0.1590  0.0201  0.0202
16436W        W33960  10.459   5.182   3.989 -0.3171 -0.1740 -0.1292
16437W        W33961   2.405  15.472   4.398  0.0079 -0.0049  0.0508
16438W        W33962   8.253   6.374   2.761  0.1612 -0.0677  0.0334
16439W        W33963   2.926  15.996   4.628 -0.3818 -0.0159  0.1219
16440W        W33964  15.204   5.687  12.091 -0.0585  0.1610  0.0631
16441W        W33965   2.677   1.676  14.369  0.1215  0.3944 -0.3415
16442W        W33966   5.992   4.072   4.351  0.2606  0.1849 -0.1377
16443W        W33967  12.889   0.655  15.630 -0.2474 -0.1184 -0.1048
16444W        W33968  10.216  16.781   2.406 -0.3727  0.2328  0.1251
16445W        W33969  10.752   7.378   4.587 -0.2039 -0.0526  0.1269
16446W        W33970   5.828  16.820  12.271 -0.3194  0.0333 -0.2116
16447W        W33971  12.133   4.650   1.634 -0.1695 -0.2125 -0.1112
16448W        W33972   9.944   8.823  14.862  0.3066  0.2984 -0.3346
16449W        W33973   1.331   9.690  10.355  0.1847  0.1472  0.0400
16450W        W33974  14.392  10.794  12.509  0.0040  0.3924  0.1341
16451W        W33975  11.882   0.389  13.145  0.1905  0.3460  0.3285
16452W        W33976  14.134   9.373   1.072  0.0820  0.1772  0.0119
16453W        W33977   7.789   2.227  10.659 -0.0212 -0.2989 -0.0439
16454W        W33978   4.115   9.863  14.879  0.0998 -0.1234  0.2229
16455W        W33979   3.173  16.611   5.857  0.4084 -0.0003  0.1159
16456W        W33980   7.374  10.384  13.207 -0.1375 -0.1497 -0.3132
16457W        W33981   8.709   0.299   2.206  0.2204  0.0754  0.2965
16458W        W33982   8.510  14.299  14.267  0.0736 -0.1536 -0.3373
16459W        W33983  14.088  11.753  14.386 -0.0987  0.2873  0.3752
16460W        W33984   3.517  10.954  12.434 -0.0482 -0.0030  0.1352
16461W        W33985   9.024  11.081   4.040 -0.1232  0.4222  0.0620
16462W        W33986   0.762  13.865   0.311 -0.2164  0.3060 -0.0631
16463W        W33987  10.280  11.569  14.074 -0.1782  0.3633  0.4738
16464W        W33988   8.889   0.353   2.684 -0.1331 -0.0475 -0.5361
16465W        W33989   3.723   5.893  10.705  0.0285 -0.0830  0.1909
16466W        W33990  10.899  12.959   4.793  0.0306 -0.4597  0.4403
16467W        W33991  17.390   7.127  15.274 -0.1653  0.0707 -0.1079
16468W        W33992   9.935  11.335  11.338  0.0599 -0.2856 -0.2641
16469W        W33993  13.372   2.265   2.047  0.0771  0.1249  0.3653
16470W        W33994  12.573  16.334  13.885 -0.0580  0.1015 -0.0191
16471W        W33995   0.700  18.147  14.179  0.1920 -0.1072  0.1017
16472W        W33996   7.277   4.196   4.262  0.1359  0.0985 -0.3963
16473W        W33997  17.587   3.247   3.997  0.0677 -0.0452  0.1091
16474W        W33998   9.008   7.962  11.679 -0.0094 -0.4436 -0.0515
16475W        W33999  12.745   9.343   0.465  0.1212  0.1795  0.2999
16476W        W34000  17.618  18.345  10.819 -0.1537  0.2060 -0.0066
16477W        W34001   6.623   6.707  15.440  0.1979  0.0044  0.2207
16478W        W34002  14.821   8.044   3.554  0.2794  0.0201 -0.2275
16479W        W34003   7.814   9.577  14.636 -0.0049 -0.1173 -0.0163
16480W        W34004   7.528  16.989  12.212  0.1560  0.2144  0.1425
16481W        W34005   3.588   3.646  14.386  0.0474 -0.0135  0.2500
16482W        W34006  15.524   4.738  12.415 -0.0360 -0.2148  0.1081
16483W        W34007   1.285   1.527  11.842  0.2737 -0.0627 -0.0633
16484W        W34008   8.772  16.117   3.222 -0.1139 -0.1189  0.0844
16485W        W34009   5.743   0.911  12.835  0.1049 -0.1142 -0.3376
16486W        W34010   5.900  11.740   3.528 -0.0803 -0.2483 -0.5823
16487W        W34011  10.734  13.014   1.014 -0.1992 -0.2269  0.0940
16488W        W34012  17.739   8.912   2.931  0.2285  0.0905 -0.1490
16489W        W34013  14.117   1.336   2.794  0.0906 -0.3186 -0.1170
16490W        W34014   3.892   9.748  12.655 -0.1295  0.0048 -0.0640
16491W        W34015  16.035  17.236  14.276 -0.3455 -0.1302 -0.0439
16492W        W34016  11.191   9.514  13.433 -0.0303 -0.0348 -0.2136
16493W        W34017   8.049  15.429  13.676  0.0058  0.0658  0.1596
16494W        W34018   2.345  10.888  15.299 -0.0544  0.3157 -0.0307
16495W        W34019  14.369   2.814   3.102 -0.1885  0.2727 -0.0153
16496W        W34020  14.208  15.416  15.347 -0.1944  0.1569  0.1921
16497W        W34021   8.549   6.455  13.952 -0.1294  0.1229  0.3127
16498W        W34022   5.093  14.259   2.708 -0.1857  0.0529 -0.2305
16499W        W34023   0.981   0.025  14.479  0.1538 -0.1213 -0.3783
16500W        W34024   1.824   5.179  14.787 -0.1505 -0.1468 -0.0283
16501W        W34025   5.306   1.727  12.622  0.3754  0.0397 -0.1318
16502W        W34026  17.727  13.387   1.045  0.1520  0.1161  0.0782
16503W        W34027  13.732   1.276   5.116 -0.0324  0.0214  0.0023
16504W        W34028  13.042  16.077   3.237 -0.2816 -0.1219  0.0752
16505W        W34029   3.941  13.754   0.772  0.0411 -0.1179 -0.1266
16506W        W34030  17.782  11.088  11.346 -0.2814  0.1787 -0.0415
16507W        W34031  10.418  16.002  12.220  0.0242 -0.3443 -0.0816
16508W        W34032  12.698  12.029  13.719  0.0824 -0.1650 -0.0002
16509W        W34033   5.176  17.077   2.088  0.4530  0.1434 -0.0010
16510W        W34034   8.950   9.191  13.481 -0.1881  0.3333  0.1143
16511W        W34035   3.424  13.631   2.999  0.2113 -0.0255  0.0521
16512W        W34036   1.139   4.147  11.721 -0.0181 -0.2048  0.0681
16513W        W34037   4.372  15.847   4.275  0.1010 -0.3886 -0.0619
16514W        W34038  17.768  13.565   4.070 -0.0597 -0.0740 -0.1811
16515W        W34039   1.892   9.405  14.161  0.1503 -0.5662  0.3404
16516W        W34040   8.542  13.963  14.659  0.1166  0.0239 -0.1231
16517W        W34041  13.993  16.274   0.899 -0.4045  0.0407  0.1567
16518W        W34042   6.436   2.097  12.505 -0.1722  0.0123 -0.1596
16519W        W34043  13.313   1.330  12.239 -0.2223  0.0560 -0.2453
16520W        W34044  16.223   1.686   4.919 -0.0554 -0.1378  0.2483
16521W        W34045  11.928   9.398  13.892 -0.2043 -0.1582  0.1303
16522W        W34046   4.761  16.259  11.142 -0.1176  0.3822 -0.0920
16523W        W34047  10.712   7.201  13.035 -0.2806 -0.0691  0.2457
16524W        W34048   9.024  13.578   3.310  0.0757  0.0505 -0.1183
16525W        W34049  14.068   5.956   3.655 -0.3406  0.0650 -0.1214
16526W        W34050   6.078  10.233   5.010 -0.2838  0.1859  0.1284
16527W        W34051   7.502  18.071   2.006 -0.0049 -0.0102 -0.2935
16528W        W34052  13.070   3.218  11.988 -0.0352  0.2071 -0.5755
16529W        W34053  13.819  17.551   2.779 -0.3263  0.1045  0.0608
16530W        W34054   1.156  15.683   1.885 -0.3432  0.0952 -0.0409
16531W        W34055  12.186   0.741  12.977 -0.3129  0.1154 -0.0268
16532W        W34056   6.869  10.435  13.085 -0.1503 -0.0802 -0.0600
16533W        W34057  12.209   4.091   0.677 -0.3925 -0.1198 -0.1701
16534W        W34058  18.138   0.265  13.982  0.0512 -0.1757  0.2235
16535W        W34059   4.737  16.909  12.400 -0.0991 -0.1359 -0.0256
16536W        W34060   0.742  15.947   1.033  0.1796  0.0740  0.1770
16537W        W34061   2.572   6.697  14.168 -0.0303  0.1642 -0.2247
16538W        W34062   6.366  17.697  14.089  0.3704 -0.3884 -0.2520
16539W        W34063   2.051   8.943  14.139  0.1540 -0.1762 -0.2202
16540W        W34064   8.024  15.548  15.561 -0.0368  0.0206  0.0383
16541W        W34065   5.593  14.860  12.161 -0.0332  0.0989 -0.0166
16542W        W34066  11.050  12.094   0.303 -0.2290  0.1792  0.0588
16543W        W34067   3.268   4.107   4.137  0.3073  0.2187  0.0711
16544W        W34068   3.070   5.771  15.316  0.0898  0.0672  0.1257
16545W        W34069   6.280  12.322  13.809  0.0140 -0.3749  0.2716
16546W        W34070  17.717   1.417   0.668  0.4434 -0.3605 -0.2930
16547W        W34071   7.221   3.290  15.691  0.1133  0.2658 -0.3367
16548W        W34072   0.097  10.631   5.144  0.1111 -0.0966  0.0692
16549W        W34073   6.663   1.139   3.202 -0.0086  0.0126 -0.3487
16550W        W34074   9.082  16.067   5.427 -0.2339 -0.2050 -0.0488
16551W        W34075   6.639  13.884   1.411 -0.0060 -0.2745 -0.1585
16552W        W34076  10.914   7.659   2.640 -0.1119  0.0062 -0.1056
16553W        W34077   9.802   0.906   0.133  0.0069  0.0441 -0.0643
16554W        W34078   3.330   6.027   3.148 -0.1554 -0.0108  0.0762
16555W        W34079   6.702  16.831   0.940 -0.0159 -0.0137 -0.2772
16556W        W34080   9.390   0.297   2.793  0.0399 -0.0916  0.1872
16557W        W34081  15.622  11.221   1.860 -0.2691  0.1348  0.0930
16558W        W34082  10.157  15.195  14.152 -0.0724 -0.2992  0.0887
16559W        W34083  10.789  16.912  14.544 -0.4231  0.0384  0.3207
16560W        W34084  16.959   2.451   1.712  0.2973  0.1080  0.1703
16561W        W34085  11.408   4.828   2.589  0.1207  0.1587 -0.2954
16562W        W34086   2.634   2.410   0.036 -0.1279 -0.2411  0.0061
16563W        W34087   1.569   3.241   1.494 -0.4794  0.0784  0.0749
16564W        W34088  15.547  16.978   2.566 -0.1454  0.0994 -0.2506
16565W        W34089  16.543  16.262  15.703  0.1315 -0.0284 -0.3579
16566W        W34090   0.484   3.104   4.335  0.2315 -0.0436  0.2574
16567W        W34091   0.671  15.741   3.466  0.0285  0.0158 -0.0849
16568W        W34092  10.257  16.924   4.332 -0.1535 -0.0896  0.1663
16569W        W34093   5.918  13.546   0.560 -0.4217 -0.1187 -0.2015
16570W        W34094   4.425   8.229   2.983 -0.1318  0.0273  0.0080
16571W        W34095  13.840  10.667  15.729  0.2371 -0.0126  0.0449
16572W        W34096   2.208  14.029   1.994  0.0953  0.6429 -0.1097
16573W        W34097   0.400   1.500  15.061  0.1556 -0.1316 -0.0358
16574W        W34098  15.847   0.473   0.605 -0.1952 -0.0616 -0.2760
16575W        W34099   7.571  15.506  11.336 -0.0949  0.1930  0.1228
16576W        W34100   3.616  13.852  13.287 -0.1609  0.0583 -0.2547
16577W        W34101   9.759   7.429  13.577 -0.1290 -0.1381  0.1848
16578W        W34102   6.095  12.966  11.157 -0.1183  0.0102 -0.3617
16579W        W34103   1.028  14.302   1.202  0.2168 -0.3865 -0.0162
16580W        W34104  16.903  16.822  14.517  0.0235  0.1025 -0.1129
16581W        W34105   2.321   9.772   1.952 -0.2979 -0.3745 -0.1442
16582W        W34106   3.494   0.301   3.635 -0.1394  0.1171  0.1698
16583W        W34107  17.016   0.635  14.173 -0.2879  0.2040  0.1498
16584W        W34108   9.777  12.977  13.980  0.3262 -0.1126  0.2252
16585W        W34109  16.338   7.137  11.363  0.2040  0.2977 -0.0013
16586W        W34110  15.215   4.279   0.525  0.0561  0.0404  0.2266
16587W        W34111  14.544  10.070  12.005 -0.0242 -0.1206 -0.2717
16588W        W34112  18.124   7.309  12.862 -0.2587  0.0243 -0.0405
16589W        W34113   3.067   5.884   1.839  0.2089 -0.0351 -0.1355
16590W        W34114  10.936  17.692   3.616  0.0596 -0.2387  0.0605
16591W        W34115   9.133   5.359  11.098 -0.0484 -0.0363 -0.0685
16592W        W34116  10.546   1.474   0.906 -0.0586 -0.1671 -0.4298
16593W        W34117  16.724   1.625  12.986 -0.1081 -0.3779 -0.2476
16594W        W34118  13.640  10.400  11.880 -0.0958  0.1549 -0.1180
16595W        W34119  14.803  13.168   1.879 -0.0201  0.1510 -0.0903
16596W        W34120  13.627   3.823   0.564 -0.0073 -0.2223  0.2425
16597W        W34121   4.647   8.262  13.410 -0.0376 -0.1152 -0.0803
16598W        W34122   9.549   1.295   0.941  0.0519 -0.1363  0.1427
16599W        W34123   2.759   9.643   2.640 -0.1371 -0.0384  0.1753
16600W        W34124   5.291   8.846  14.635  0.2155 -0.1357  0.1555
16601W        W34125   5.226   9.130  14.266 -0.1075  0.1917 -0.3230
16602W        W34126  14.632  16.802  10.298 -0.0761 -0.1623  0.0755
16603W        W34127   7.216   9.402   0.576  0.0076 -0.0924 -0.0670
16604W        W34128   9.178   3.424   2.515  0.0639 -0.0516  0.2076
16605W        W34129   1.690  14.238  14.154 -0.0956  0.2065 -0.1788
16606W        W34130   1.379   3.259   0.916 -0.2311 -0.2450 -0.1312
16607W        W34131   4.506  10.211  13.789  0.0656 -0.0269 -0.0222
16608W        W34132   2.885   7.431  11.577  0.1069 -0.1577 -0.2147
16609W        W34133   5.972  13.175   2.174 -0.3055 -0.0531 -0.3445
16610W        W34134   3.936   0.850  14.581  0.0312 -0.2049  0.2023
16611W        W34135   0.566   1.604   0.916  0.0287 -0.0951  0.0420
16612W        W34136  16.706  17.223   5.055 -0.2217 -0.0790  0.2733
16613W        W34137   2.921   6.005  12.153 -0.1309  0.0333 -0.0652
16614W        W34138   9.938   0.683  15.586 -0.1557  0.0532 -0.2659
16615W        W34139   0.093   4.969  13.126  0.0672  0.1820  0.2426
16616W        W34140   4.167   4.259   0.504  0.1312 -0.2512 -0.2683
16617W        W34141   7.236   2.129  12.057 -0.0299 -0.1030  0.0219
16618W        W34142  11.134   9.331  14.392 -0.1396  0.0519  0.2971
16619W        W34143   8.380   2.601  15.721 -0.2773 -0.3718 -0.0049
16620W        W34144   0.605  17.211  15.561 -0.2793  0.0931  0.1172
16621W        W34145   0.950  16.520   4.966  0.0983 -0.3843 -0.0096
16622W        W34146   4.688   5.928   3.775 -0.0085  0.1762  0.0263
16623W        W34147  13.525   0.976  12.509  0.0561 -0.1577 -0.0929
16624W        W34148   9.611  17.343   2.692 -0.1737 -0.2816 -0.4032
16625W        W34149  11.544   5.982   3.935  0.1473  0.2024  0.0746
16626W        W34150   5.411   1.790  13.182 -0.0720 -0.0376  0.0500
16627W        W34151   1.131   3.298   3.496  0.1234 -0.0986 -0.2465
16628W        W34152   3.585  11.165   5.684  0.3449 -0.0760 -0.0389
16629W        W34153  13.040  13.456   2.423  0.2938  0.0519 -0.0730
16630W        W34154   9.339  12.865  12.535 -0.2781  0.1708  0.0298
16631W        W34155  10.271  10.253  11.792 -0.0449 -0.1739 -0.0073
16632W        W34156  10.530  14.223  11.315 -0.0372  0.2486  0.0554
16633W        W34157  15.099  13.470   3.376 -0.0347  0.1597 -0.4241
16634W        W34158  12.532   6.098   1.453  0.0749  0.1833  0.0533
16635W        W34159  15.641  15.758   3.370  0.0351 -0.1400 -0.0615
16636W        W34160   1.604   6.782  15.519  0.0346 -0.1676 -0.0874
16637W        W34161   4.429  12.647  11.133 -0.0668  0.3035 -0.4491
16638W        W34162   8.459   6.668   0.558 -0.0849  0.1566  0.1962
16639W        W34163  16.064   8.191  12.768  0.0067  0.1306  0.2359
16640W        W34164   1.736   1.503   2.701 -0.1685 -0.3489 -0.0200
16641W        W34165   7.988   8.150   0.157 -0.0321  0.0973 -0.0354
16642W        W34166   0.027  10.224  11.964 -0.3526 -0.1472 -0.1159
16643W        W34167   9.629   2.592  12.835 -0.1175  0.2403  0.2030
16644W        W34168   9.333   8.897  10.999 -0.2506 -0.0491 -0.1582
16645W        W34169  15.672   7.856  11.407 -0.0326 -0.2387 -0.0238
16646W        W34170   5.151   9.632   1.911 -0.0010  0.0574 -0.4286
16647W        W34171  10.825  17.361  15.329  0.2242 -0.1135  0.4611
16648W        W34172   3.614   4.943   2.192  0.2531 -0.0115  0.1241
16649W        W34173  17.188   9.907   9.823  0.5150 -0.3378 -0.1471
16650W        W34174  10.972   0.716   0.765  0.3233  0.0646 -0.2411
16651W        W34175   4.435   4.484   4.768  0.5268  0.1401  0.1551
16652W        W34176   8.787   1.006  11.424 -0.0091 -0.1515  0.0005
16653W        W34177   6.772   1.737   5.698 -0.1074 -0.1363  0.1567
16654W        W34178   8.602  14.629   2.755  0.1932 -0.1652  0.1452
16655W        W34179   0.216   3.685   2.275  0.2076 -0.0512  0.3480
16656W        W34180   6.430  13.371   2.280 -0.0708 -0.1469 -0.1334
16657W        W34181   6.072  16.759   2.178  0.2490 -0.1040 -0.1396
16658W        W34182  12.792  18.137   3.060  0.3187 -0.1495  0.2040
16659W        W34183   5.213   4.177   2.238  0.1767 -0.3723 -0.2669
16660W        W34184  11.225  10.730  14.421 -0.3005 -0.2356 -0.0642
16661W        W34185  13.374  12.007  14.669 -0.1156  0.0798  0.0155
16662W        W34186  11.476   8.804   3.426  0.0952  0.0850 -0.1684
16663W        W34187   3.116  14.382   2.027  0.2728 -0.0371 -0.1538
16664W        W34188   8.488   2.228  11.750 -0.1223  0.0787  0.2150
16665W        W34189   2.932   0.044  11.339  0.0293  0.0525  0.3149
16666W        W34190  10.204   9.208  14.226 -0.1759 -0.0701 -0.2409
16667W        W34191   2.176   7.882  14.421  0.1279 -0.1977 -0.1803
16668W        W34192  17.321   1.386   4.040 -0.2448 -0.1476  0.1548
16669W        W34193  10.514   3.179  15.778 -0.3395 -0.2908 -0.2766
16670W        W34194   8.091   0.248   0.509 -0.2084  0.0595  0.1925
16671W        W34195   6.082  17.905  14.936  0.1508 -0.1262  0.0954
16672W        W34196  16.901   5.472  14.772 -0.0040 -0.1342 -0.4811
16673W        W34197   7.157   1.449   2.670 -0.3071  0.1167 -0.1482
16674W        W34198   9.559   8.749   0.399  0.2971 -0.0668  0.0388
16675W        W34199   2.778  12.445  13.233  0.1055  0.1795 -0.1775
16676W        W34200   3.770  11.270   5.251  0.0925 -0.0370  0.1268
16677W        W34201   2.603  11.153   0.920  0.1706 -0.0126 -0.1286
16678W        W34202   1.196   4.114  10.015 -0.2141  0.2039  0.1026
16679W        W34203  11.346  17.187  15.019  0.1119 -0.2010 -0.4509
16680W        W34204  16.627  14.669   1.504  0.5537  0.1580  0.0803
16681W        W34205   9.750  17.802  13.165 -0.1757  0.0593  0.0168
16682W        W34206  11.102   7.074  15.153  0.1771  0.0123  0.2815
16683W        W34207   3.043   8.371   0.009  0.0802  0.1204 -0.1107
16684W        W34208   8.686   0.032  11.465 -0.1100 -0.3439 -0.3956
16685W        W34209   2.461   5.741  12.126  0.3749  0.1008  0.2070
16686W        W34210   2.639  14.890   1.042  0.0628 -0.0857 -0.0797
16687W        W34211  11.462   5.292   4.144 -0.1123 -0.3361 -0.2779
16688W        W34212  10.702   3.993   4.458 -0.0514  0.2319  0.1916
16689W        W34213   4.533  17.255  10.706  0.1201  0.0272 -0.0894
16690W        W34214  11.312  10.914  13.430  0.0368  0.1897 -0.3716
16691W        W34215   9.437  15.890   0.047  0.0321  0.0236  0.0560
16692W        W34216   4.889  13.651  11.375 -0.4095  0.2033  0.0235
16693W        W34217   6.057   4.544   3.148 -0.1466 -0.0147 -0.0884
16694W        W34218  11.453   7.390  14.107 -0.0683  0.3416 -0.1119
16695W        W34219  13.343  13.628  12.345 -0.3077 -0.0921  0.4452
16696W        W34220   8.001   1.326   2.651 -0.1581 -0.3506  0.2146
16697W        W34221   6.882   1.428   2.244  0.0759 -0.0247  0.0860
16698W        W34222  17.834  12.458  11.107  0.4964  0.0200 -0.0170
16699W        W34223   1.444  10.675  11.147 -0.0927 -0.0133  0.1627
16700W        W34224   5.261   2.630  15.448 -0.1130  0.6151  0.1320
16701W        W34225   1.983   3.305  13.306  0.0295  0.2589 -0.3900
16702W        W34226  14.728   0.562  14.283  0.1674 -0.5568  0.0787
16703W        W34227  12.036  13.907   3.427  0.0673 -0.1662 -0.1696
16704W        W34228   6.556  11.515  15.687  0.1986  0.0125 -0.2151
16705W        W34229   1.974  10.528   2.228  0.2834 -0.3697  0.0110
16706W        W34230  10.584   1.445   2.802 -0.0289  0.1838  0.2145
16707W        W34231  17.362  11.273  15.514  0.3005 -0.0990 -0.1138
16708W        W34232  11.399  14.479  15.181  0.3514  0.2219 -0.0358
16709W        W34233   9.459   4.821  14.411  0.1540  0.2193  0.0868
16710W        W34234   1.251   9.873  10.826 -0.0051  0.0354  0.1956
16711W        W34235   6.513  14.147   1.918 -0.0910  0.2636  0.1114
16712W        W34236   9.623  17.238  14.376 -0.1345  0.5943 -0.2480
16713W        W34237   7.750   6.410   0.348  0.0305 -0.0834 -0.1916
16714W        W34238   4.348  12.684   0.216 -0.0450  0.0094 -0.1328
16715W        W34239   0.469  16.214  14.486 -0.1583  0.2651  0.2077
16716W        W34240  12.553   1.599  14.465 -0.2877 -0.1867 -0.0216
16717W        W34241   4.217   3.953  12.615  0.0153  0.0057  0.2528
16718W        W34242   1.153  13.148   4.974 -0.0928 -0.1767 -0.0006
16719W        W34243  16.558  12.260   0.848 -0.1183 -0.1568 -0.1233
16720W        W34244   6.811  15.553   1.205  0.1317  0.3168 -0.2314
16721W        W34245  14.282  14.152   3.526 -0.1598  0.5139 -0.3403
16722W        W34246  17.658   3.919  13.295  0.0368 -0.0882 -0.1136
16723W        W34247   1.762   0.935   2.636 -0.1310  0.2011  0.0418
16724W        W34248   1.263  11.194  14.928 -0.4002  0.0599  0.3329
16725W        W34249  10.574   6.408  12.372  0.0888  0.0947  0.0707
16726W        W34250   6.202  12.089  12.797  0.1941 -0.0254 -0.2971
16727W        W34251   0.611   1.665   1.841  0.3225  0.0437  0.0157
16728W        W34252   1.845  16.580  13.475  0.0981  0.1199  0.2043
16729W        W34253   8.097   3.562   0.248  0.0993 -0.0836 -0.0008
16730W        W34254   0.352   8.431   0.909  0.0217  0.2169 -0.0125
16731W        W34255   2.200  12.715   2.602  0.0009  0.0485  0.2560
16732W        W34256   4.023   3.145   1.277  0.1088 -0.1944  0.2786
16733W        W34257  17.203   6.079   3.365 -0.3126  0.2219 -0.0829
16734W        W34258   1.397   6.740   3.748  0.1056 -0.0903 -0.0581
16735W        W34259  10.965  11.612  11.632  0.2704  0.0215  0.3677
16736W        W34260   4.593  17.167  13.531  0.0073 -0.4527 -0.0328
16737W        W34261  13.273   9.659   4.653 -0.2894  0.2013 -0.0214
16738W        W34262  12.218  15.674  12.401  0.1109  0.2398 -0.3385
16739W        W34263   7.616  15.835   1.616 -0.1247 -0.0407 -0.1322
16740W        W34264  16.284   4.502   2.066 -0.0638  0.1824 -0.0174
16741W        W34265  18.076  16.817  13.281  0.1095  0.0811  0.3691
16742W        W34266  17.463  12.950   4.501  0.2638 -0.0263 -0.3101
16743W        W34267   8.375  11.299   5.766  0.2168  0.0814  0.2477
16744W        W34268   5.159   3.285  13.211 -0.0639  0.0626 -0.1700
16745W        W34269  16.457  10.539  13.307  0.1442 -0.4097 -0.2026
16746W        W34270  13.061  10.028   3.814  0.0153 -0.0218  0.0020
16747W        W34271  13.886   1.203  14.298 -0.0179  0.2569 -0.1005
16748W        W34272   5.523  12.108  13.085 -0.1081 -0.0965 -0.0813
16749W        W34273  11.561   6.652  13.451 -0.0974 -0.2575 -0.1824
16750W        W34274   2.109  16.263   4.674 -0.2831  0.2044  0.0578
16751W        W34275   5.141   0.756  12.104  0.0677  0.2338  0.2050
16752W        W34276   6.896   9.136  13.259  0.2376  0.0517  0.0698
16753W        W34277  14.915   9.908  13.551  0.2411  0.1734 -0.2175
16754W        W34278  14.822   9.930  15.567  0.0828  0.1218  0.0844
16755W        W34279   5.481   8.266   1.344  0.0747  0.1862 -0.2428
16756W        W34280  13.482  16.952   0.721 -0.1759  0.1899  0.1033
16757W        W34281   7.494   1.295   0.305  0.1214  0.0530 -0.0202
16758W        W34282  12.234   5.993   0.189 -0.3673  0.1632 -0.0631
16759W        W34283   1.079   8.505  10.928 -0.0787 -0.0515  0.0077
16760W        W34284   7.204   3.902  12.957 -0.0864 -0.3245 -0.0649
16761W        W34285   4.413   8.223   3.496 -0.2139  0.2204 -0.0681
16762W        W34286   9.410  14.361  12.145 -0.0099 -0.1633  0.3263
16763W        W34287   7.974  17.391  13.270  0.2570 -0.0558 -0.0756
16764W        W34288  11.185   1.361   0.155  0.2876  0.2627 -0.0860
16765W        W34289  17.620   2.438  10.885  0.0569  0.0267 -0.1037
16766W        W34290  12.796   1.549  15.242  0.2149 -0.0081 -0.4549
16767W        W34291   1.479  17.259  10.857 -0.1616  0.0458  0.5668
16768W        W34292  14.144  15.138   4.736 -0.0746 -0.1196  0.0691
16769W        W34293   4.851  15.272  14.214  0.1210 -0.2964  0.3582
16770W        W34294   0.029   5.447  14.377 -0.0797  0.1803 -0.1983
16771W        W34295  17.708  16.777   1.348  0.0062 -0.1038  0.0654
16772W        W34296   9.124   2.017   0.708  0.2822  0.2624  0.1318
16773W        W34297  14.453   4.309  13.077  0.0521 -0.0950 -0.1140
16774W        W34298   0.097  15.400  12.767 -0.6925 -0.0435  0.0984
16775W        W34299  17.908   1.493  15.134  0.2446  0.3793  0.2740
16776W        W34300   6.415   9.181   1.403  0.2865 -0.3129  0.2238
16777W        W34301  14.127   5.598   4.627 -0.1945  0.0713 -0.3012
16778W        W34302  12.277  13.606   3.079  0.4462 -0.1700  0.0226
16779W        W34303  12.028   3.482   3.271  0.0909 -0.3941  0.4938
16780W        W34304   3.762   1.792   4.596 -0.1662 -0.2493 -0.0952
16781W        W34305  12.342  16.177   1.284  0.1786 -0.2802  0.0569
16782W        W34306   4.323   0.683  15.609 -0.0262  0.1568 -0.1169
16783W        W34307   3.219  16.049  15.461  0.1586 -0.1299  0.3414
16784W        W34308   2.649   2.487  12.992 -0.2267 -0.4989 -0.0403
16785W        W34309   3.838  15.194  11.242  0.2321  0.2355 -0.2399
16786W        W34310  14.432  17.877   4.747 -0.0904  0.3478 -0.2598
16787W        W34311   9.547   4.726  12.921  0.0051  0.4269 -0.3288
16788W        W34312   5.627   2.685  12.789 -0.0362 -0.3130  0.0654
16789W        W34313   0.638   5.815   0.541 -0.3571  0.0128 -0.0496
16790W        W34314   2.062  13.954   0.320  0.1058  0.0769 -0.3412
16791W        W34315  12.106   0.250  12.729  0.1107 -0.2089 -0.0188
16792W        W34316  10.117   6.661   4.146 -0.3213 -0.0701  0.2668
16793W        W34317  17.104  11.519   5.055 -0.0414 -0.2889  0.1962
16794W        W34318   7.310   8.871  11.742 -0.1584  0.0742 -0.0695
16795W        W34319   0.227   6.426   4.882  0.1207 -0.0913  0.1401
16796W        W34320  14.816   3.225   2.642  0.0925  0.0922 -0.0522
16797W        W34321   9.145  18.057   0.800  0.1662  0.1343  0.2220
16798W        W34322  15.662   0.343   2.881 -0.1556 -0.0786  0.0225
16799W        W34323   3.620  12.227  13.306 -0.0552 -0.1636 -0.0030
16800W        W34324  17.385  15.823  12.035 -0.1532  0.1223  0.1705
16801W        W34325   6.536  15.312   0.122  0.2346 -0.1853  0.0930
16802W        W34326  13.506  18.159   3.519 -0.1868  0.0407  0.1415
16803W        W34327   0.897   2.926   3.267 -0.2412  0.0292  0.0106
16804W        W34328   6.514  17.232  10.772  0.0426 -0.2868  0.3392
16805W        W34329  17.312   5.142   3.070 -0.1790 -0.2873 -0.0374
16806W        W34330   8.769   4.706   1.148  0.3230  0.2256  0.2706
16807W        W34331   1.256  17.555   4.022 -0.2216 -0.3085 -0.3242
16808W        W34332  16.472  12.531   2.196  0.0339 -0.0901 -0.3519
16809W        W34333   5.615   5.017   3.072  0.1750 -0.0689  0.1007
16810W        W34334   3.351   9.756   3.874 -0.2843 -0.0774  0.0421
16811W        W34335  10.264  16.333   3.958  0.1225 -0.2479  0.3096
16812W        W34336   3.626   1.261  11.561 -0.3640 -0.0024  0.0461
16813W        W34337   2.608   2.855  13.405  0.0075 -0.1428  0.1789
16814W        W34338  16.921   6.291   2.785  0.1552  0.1553  0.3750
16815W        W34339   6.591  12.046  14.095  0.1573  0.0486  0.1851
16816W        W34340   5.212   8.593  12.805  0.1001 -0.1772 -0.2302
16817W        W34341  16.529   5.268   3.455  0.1159  0.0789  0.1002
16818W        W34342   9.093  13.162   0.611 -0.1214  0.0094 -0.1084
16819W        W34343  14.815  17.563   2.571 -0.0394 -0.2784  0.2054
16820W        W34344  12.149   4.198   5.376  0.0769  0.0170  0.1248
16821W        W34345  13.980  18.373  15.759 -0.3013  0.3242 -0.0227
16822W        W34346   7.480  11.515  11.804  0.1766 -0.1096 -0.2303
16823W        W34347   6.555  10.219   0.100 -0.0552 -0.3388  0.1516
16824W        W34348  15.353  10.862  14.118 -0.0548  0.1261  0.1118
16825W        W34349   0.794   8.992  13.208  0.1253 -0.1919  0.2385
16826W        W34350   4.417   0.971   0.989  0.0500  0.0751  0.0532
16827W        W34351   9.419  12.407   0.935  0.0446  0.1702  0.0396
16828W        W34352   8.246  13.011   2.826 -0.1209 -0.1665 -0.0634
16829W        W34353  12.937  13.750  12.787  0.0169  0.1575  0.2625
16830W        W34354  13.737  11.497   4.328 -0.0560  0.0092  0.2854
16831W        W34355  14.256   7.025   1.719  0.2078 -0.0533 -0.3112
16832W        W34356   8.462  13.236   2.385 -0.1441 -0.1452  0.0558
16833W        W34357  16.973   6.441   0.489  0.0471 -0.1817 -0.0015
16834W        W34358  16.348  14.900   3.802  0.0405  0.1188 -0.2589
16835W        W34359   2.788   9.244  13.139  0.0321  0.0654 -0.1454
16836W        W34360  16.042   6.009   3.869  0.2665  0.2616 -0.0325
16837W        W34361  11.990   2.283   2.132  0.1654 -0.3494 -0.1458
16838W        W34362  16.141   1.719  11.602  0.0800 -0.1647  0.0641
16839W        W34363   3.566   3.546   0.463 -0.2480  0.0026 -0.0707
16840W        W34364   3.349  15.004  10.459 -0.1575  0.1829  0.1281
16841W        W34365   3.545  11.749  13.263 -0.0769 -0.2607  0.0916
16842W        W34366   5.955   5.207   2.730  0.1299  0.3315  0.0644
16843W        W34367   6.351   9.529   2.323  0.2054  0.0187  0.1627
16844W        W34368   4.805  10.496  15.845 -0.0682 -0.0912 -0.0431
16845W        W34369   8.984   7.686   1.842  0.1667  0.0172  0.4515
16846W        W34370  13.916   7.154  12.815  0.0393  0.2991 -0.3180
16847W        W34371  12.360   9.978   1.082  0.0049  0.0934  0.3631
16848W        W34372  13.999  10.780  14.663 -0.0979  0.2161 -0.1870
16849W        W34373  12.137   2.803   2.425  0.1566  0.0802  0.0902
16850W        W34374  13.776  15.290   4.237 -0.3236 -0.0814  0.4533
16851W        W34375  17.700   9.728   4.262 -0.0350 -0.1454  0.1328
16852W        W34376  18.283  14.387  10.972 -0.0077  0.3472  0.0677
16853W        W34377  15.187   4.937  10.815  0.1101 -0.0982  0.0894
16854W        W34378  10.807  12.172  11.947  0.1363  0.3270  0.0980
16855W        W34379   6.783  10.272   0.577  0.3255  0.0030  0.1180
16856W        W34380   7.402  18.017   2.641 -0.1159  0.2103 -0.0925
16857W        W34381   0.503   0.151   1.931  0.1034  0.2507 -0.0878
16858W        W34382   8.844  10.596  11.949  0.1091 -0.1916  0.0392
16859W        W34383  12.552  13.222   4.414  0.1988  0.3146 -0.1154
16860W        W34384  10.445  11.526   3.284 -0.0766  0.0053  0.1650
16861W        W34385  12.157  12.706  13.553  0.0487 -0.0310 -0.1411
16862W        W34386   9.724  12.599  13.627  0.2199 -0.1987  0.0417
16863W        W34387   0.709   1.333  11.135 -0.4436 -0.1143 -0.0454
16864W        W34388  16.812   5.140  12.042  0.2091  0.0368  0.0160
16865W        W34389   0.599  12.154  12.339  0.1257 -0.5670  0.1864
16866W        W34390  18.395  12.293   2.622 -0.2545 -0.4602 -0.2979
16867W        W34391  11.516   8.417  10.420 -0.1603  0.0634 -0.1319
16868W        W34392   6.188   1.609  12.256 -0.2843  0.2128 -0.1984
16869W        W34393   3.787  17.406  11.709 -0.0772 -0.6065 -0.1651
16870W        W34394  17.527  10.304   1.238  0.2342 -0.2713 -0.1529
16871W        W34395   9.140  11.606   4.731 -0.0233 -0.2089  0.0094
16872W        W34396  14.395   2.234   0.487  0.1493 -0.3968 -0.0411
16873W        W34397  15.918  14.146  14.860  0.0010  0.4205 -0.2334
16874W        W34398   2.287   3.032   0.794 -0.2341 -0.0164  0.0043
16875W        W34399  14.980   1.651   1.142 -0.0485  0.1989  0.0438
16876W        W34400   7.613   5.980   0.798  0.1205 -0.0024 -0.2614
16877W        W34401   0.890   8.203   1.918  0.1466 -0.0892 -0.1408
16878W        W34402   9.551   1.899  13.409  0.1095 -0.0263  0.1917
16879W        W34403  11.204   3.716   3.840  0.0951  0.1109  0.2358
16880W        W34404   2.135  13.812  14.567 -0.1147 -0.0292  0.3361
16881W        W34405  13.513   7.872   2.745  0.0869  0.3592 -0.2542
16882W        W34406   7.377   6.819  14.506 -0.0329  0.1277 -0.2504
16883W        W34407  11.767   5.609   1.864 -0.3260 -0.1778 -0.1397
16884W        W34408  17.130   9.582  13.283 -0.1322 -0.0092 -0.2070
16885W        W34409   9.960  15.805   6.184  0.2096  0.2025  0.1742
16886W        W34410  11.109  12.968  14.333 -0.0041  0.1328  0.1551
16887W        W34411  10.587  13.649  12.490 -0.3450  0.0839 -0.0364
16888W        W34412   7.837  16.382  15.020  0.1827  0.2291 -0.0435
16889W        W34413  16.182  14.632  14.926 -0.0511  0.2081  0.0017
16890W        W34414  17.530  12.229   4.450  0.0832 -0.0890 -0.0612
16891W        W34415   8.536  13.821  14.160  0.0991 -0.1612 -0.4050
16892W        W34416   8.478   5.143   5.778 -0.2422 -0.1076 -0.0526
16893W        W34417   2.957   4.130   4.952  0.0782  0.2078  0.0706
16894W        W34418   2.234  11.431   4.533  0.0289 -0.0115  0.4656
16895W        W34419   1.047  10.420  14.340  0.0685 -0.0988 -0.2860
16896W        W34420  13.620   6.795  12.673  0.1851  0.1292  0.0289
16897W        W34421   3.200   1.614   1.487 -0.1742  0.0331 -0.2048
16898W        W34422   8.497   0.611   0.003  0.0177  0.1476  0.1029
16899W        W34423   4.523  12.786  15.273 -0.1342  0.3524  0.0097
16900W        W34424   4.657  17.250  14.187  0.0821 -0.0132 -0.0419
16901W        W34425   2.413   4.951   0.873  0.1079  0.0995  0.0530
16902W        W34426   1.578   6.816  14.193  0.2392 -0.1162 -0.1010
16903W        W34427  17.889   6.268  15.115  0.0544  0.1194  0.0004
16904W        W34428  14.913   4.719  14.965  0.3707 -0.1997  0.1256
16905W        W34429  14.173   7.566  10.427 -0.2254  0.0294  0.1611
16906W        W34430   3.523  15.977   1.508  0.1038  0.1800 -0.1233
16907W        W34431   9.694   4.186   4.447  0.1780  0.2923 -0.1781
16908W        W34432  11.828   7.563   5.563 -0.1243 -0.2403  0.0827
16909W        W34433  16.414  14.503  10.510 -0.0239  0.1050 -0.0835
16910W        W34434  11.279  12.360   1.485 -0.0584 -0.0861 -0.2341
16911W        W34435   3.245   6.856   1.578  0.1154  0.3055 -0.0083
16912W        W34436   4.485  16.296  12.185  0.0079  0.2191 -0.0013
16913W        W34437   2.448  14.049   1.504 -0.3918  0.1598 -0.3475
16914W        W34438  16.248   9.986   4.333 -0.2368  0.2833  0.1337
16915W        W34439   9.641  12.266   1.347 -0.1029 -0.2169 -0.0738
16916W        W34440  16.020  18.078   0.259  0.0184 -0.0585 -0.2166
16917W        W34441  18.117   1.387   0.972  0.0871  0.3937  0.0414
16918W        W34442  11.818  12.122  15.805  0.1150 -0.2935 -0.1151
16919W        W34443   3.541  16.397  10.603  0.1478  0.0873 -0.0160
16920W        W34444  15.851  12.918   0.335 -0.0314 -0.3213  0.1164
16921W        W34445  11.698  16.564   0.374  0.1439  0.1588 -0.1559
16922W        W34446   9.754  17.282   3.203  0.1079 -0.0514  0.1952
16923W        W34447   7.187   1.539  13.613  0.2129 -0.1091 -0.0455
16924W        W34448  16.348  11.464   0.478  0.4139 -0.1603  0.1882
16925W        W34449  10.413  16.144   0.653  0.0958  0.2005  0.1432
16926W        W34450  14.789   7.738  14.217  0.0778 -0.0418  0.0202
16927W        W34451  17.965  13.083   2.529  0.2312 -0.0030  0.0985
16928W        W34452  12.016  13.202   4.242 -0.0839 -0.2396 -0.0678
16929W        W34453   5.097   2.936   1.555  0.2440  0.2434  0.1210
16930W        W34454   7.526  17.385   3.125  0.4704  0.3298  0.0529
16931W        W34455   8.027   6.747  11.779 -0.0780 -0.1370  0.1202
16932W        W34456   8.424   6.516  12.525  0.1607  0.0075  0.3394
16933W        W34457  15.328   9.029  13.460  0.2840  0.1204  0.3053
16934W        W34458  17.759   6.780   5.510 -0.3042 -0.4144 -0.0083
16935W        W34459   7.393   7.896   0.516 -0.2887  0.1800  0.1365
16936W        W34460   0.368   5.949   2.493  0.0341 -0.2322 -0.3457
16937W        W34461   8.978   0.050   5.269  0.1273 -0.0032 -0.1805
16938W        W34462  14.403  14.697   4.376 -0.0321 -0.2797  0.0637
16939W        W34463  17.593  15.058   3.530 -0.0744  0.2922  0.0062
16940W        W34464   2.041  17.522  15.049  0.2461 -0.1219 -0.1619
16941W        W34465   2.944   3.355  14.983  0.0649  0.0397 -0.0188
16942W        W34466   8.220  15.332   5.691  0.0593  0.3041 -0.1403
16943W        W34467  15.884  11.569   4.333 -0.4837  0.0519  0.2516
16944W        W34468  14.994  11.472  11.629 -0.0600 -0.0117  0.0936
16945W        W34469  11.765  12.961   0.310 -0.5709  0.1023 -0.0645
16946W        W34470   3.775  11.712   3.678 -0.1463  0.0450 -0.0623
16947W        W34471  10.415   0.022  13.132  0.2529 -0.0701  0.0622
16948W        W34472   8.588  14.104   4.221 -0.2594 -0.0125  0.1993
16949W        W34473   6.809   7.059  15.746 -0.1502  0.1370  0.0635
16950W        W34474  12.084  11.018  15.802  0.1186  0.2495 -0.1150
16951W        W34475   2.363  13.597  13.801 -0.3613  0.0349  0.1848
16952W        W34476   0.478  18.316  13.570  0.0820  0.0914 -0.2992
16953W        W34477  13.654   9.362   3.491  0.1695 -0.3003 -0.2883
16954W        W34478  17.906  13.894   1.041 -0.0174 -0.0069 -0.0166
16955W        W34479  11.226  17.481   3.997  0.2856  0.0889  0.2308
16956W        W34480   1.819   7.511  11.077  0.0759 -0.2997 -0.0151
16957W        W34481   1.649  17.896  11.496 -0.1306 -0.1886  0.1291
16958W        W34482   4.818   7.269   2.519 -0.2340  0.0439  0.0200
16959W        W34483  10.568  11.665   1.229  0.2442  0.0964  0.1640
16960W        W34484  13.778   6.974  11.768 -0.2752  0.1322  0.2229
16961W        W34485  13.992  10.459  12.706  0.0815 -0.3449 -0.1540
16962W        W34486  18.121  17.466  15.355  0.4232 -0.0227 -0.0017
16963W        W34487  10.658  16.499   4.558  0.1808  0.2089 -0.0187
16964W        W34488  15.528  10.206   3.569 -0.1214 -0.5628 -0.1654
16965W        W34489   5.174  14.439   1.836 -0.0669 -0.0024 -0.1353
16966W        W34490  18.196   1.013   5.205 -0.0468 -0.0502 -0.1680
16967W        W34491   1.381  12.502   0.772 -0.1727  0.0938 -0.1002
16968W        W34492   1.510   3.747  10.284 -0.4672  0.0470 -0.1640
16969W        W34493  16.148   3.589  14.103  0.0099  0.2231 -0.0847
16970W        W34494   9.460  15.097   0.402  0.1083  0.0814  0.1876
16971W        W34495   6.740  17.628   4.704 -0.2541 -0.0319 -0.1625
16972W        W34496  11.896  11.804   1.659  0.2431  0.1813  0.0558
16973W        W34497   6.543   7.428   2.875  0.2296  0.0145 -0.0727
16974W        W34498  13.041   7.699   3.450 -0.1503 -0.0054  0.0507
16975W        W34499  11.969   7.251  15.640 -0.4265 -0.0521  0.0006
16976W        W34500  13.972  16.363   2.569  0.5020  0.0239 -0.0924
16977W        W34501   9.208  17.772  15.565  0.2044  0.2537  0.0787
16978W        W34502   5.870   9.997   2.110 -0.3601 -0.4343 -0.1387
16979W        W34503   6.966  12.987  11.202 -0.1456  0.1859  0.2189
16980W        W34504  12.393   9.295   3.240  0.1580 -0.0670 -0.3291
16981W        W34505  13.656  17.825  15.434 -0.1763  0.0097  0.1509
16982W        W34506   0.375  12.494  14.840  0.3155 -0.3023 -0.3343
16983W        W34507  15.613   7.520  12.698 -0.1150  0.1492  0.3600
16984W        W34508  14.886   0.366  10.404  0.1462  0.0722  0.2280
16985W        W34509   7.830   9.196   4.672  0.0656 -0.2187 -0.1525
16986W        W34510   7.881   0.560  12.366 -0.0412  0.0017 -0.1223
16987W        W34511   8.224  16.699   0.209  0.3195 -0.2105  0.0420
16988W        W34512  11.562  14.529   2.638  0.2271  0.3407  0.2053
16989W        W34513  12.804  15.089   0.654  0.1438 -0.0245 -0.2153
16990W        W34514  18.276   8.790  11.039 -0.0919  0.4696  0.0454
16991W        W34515  17.358  15.253  14.730  0.2014 -0.1172  0.1929
16992W        W34516   6.889   2.472  11.884  0.0355 -0.0278 -0.1876
16993W        W34517   9.870   3.155   0.170  0.2894  0.0299 -0.0879
16994W        W34518  11.662   0.500  12.680  0.2595  0.0572 -0.1745
16995W        W34519  13.213   5.132  12.552 -0.0862 -0.2282  0.0459
16996W        W34520   0.263  17.630  12.050 -0.0410 -0.1929  0.3188
16997W        W34521  12.392  14.273   0.364  0.0431  0.5229 -0.0684
16998W        W34522   4.832   2.392   2.766  0.1952  0.3234 -0.1653
16999W        W34523   7.204   4.623  11.518 -0.1325 -0.1572 -0.3684
17000W        W34524  16.537   9.748   5.091  0.2474 -0.0218  0.0022
17001W        W34525   4.251   8.003  15.003  0.0876  0.2043 -0.1621
17002W        W34526   4.980   1.185   4.258  0.0904  0.0275  0.3277
17003W        W34527   4.111  13.924  13.052 -0.0875 -0.3928 -0.0109
17004W        W34528  17.826  12.506   0.168  0.0449 -0.0160 -0.0370
17005W        W34529   9.593  17.080   3.951  0.1249  0.2753  0.0988
17006W        W34530  13.745   8.860  11.877 -0.3541  0.1753 -0.0075
17007W        W34531   6.920  15.567   4.444 -0.1810 -0.0877  0.0271
17008W        W34532   3.447   7.984  12.161 -0.2298 -0.2106 -0.2618
17009W        W34533   2.889   3.070   2.700 -0.0281  0.1773  0.1152
17010W        W34534  17.093  16.245   0.664 -0.0420  0.1292  0.4381
17011W        W34535  11.980   9.875  15.652 -0.3700 -0.1800 -0.2113
17012W        W34536   5.465   6.322   3.611 -0.0337  0.1993  0.2487
17013W        W34537   7.597   3.953  12.247 -0.1221  0.2247 -0.0355
17014W        W34538  11.510   4.542  13.477 -0.0177  0.1055  0.1788
17015W        W34539  12.922   2.888   3.099 -0.0076 -0.1882 -0.0717
17016W        W34540  11.472  16.329   5.112 -0.2248  0.2619 -0.0497
17017W        W34541  16.331  13.598  15.542  0.1413  0.2046 -0.1279
17018W        W34542  17.097  14.058   0.951  0.2018 -0.0881  0.1520
17019W        W34543   3.233   3.533   4.376 -0.1319  0.1207 -0.2285
17020W        W34544   0.609  13.666  10.909  0.0669 -0.1084 -0.0936
17021W        W34545   2.054  16.621  13.035  0.2642 -0.1059 -0.0766
17022W        W34546  18.101  18.085   0.980 -0.2506  0.0385  0.0991
17023W        W34547   1.744  18.234  12.459 -0.0496 -0.2963  0.2771
17024W        W34548  13.714  14.138   0.680 -0.1586  0.0419  0.0684
17025W        W34549   5.447  16.797   2.888  0.1667 -0.0413 -0.0950
17026W        W34550   6.376   4.005  11.280  0.1095 -0.4444 -0.1078
17027W        W34551  16.893   2.252  10.215 -0.1538 -0.0124 -0.0112
17028W        W34552  12.303  12.675   3.156 -0.0094  0.1253 -0.3321
17029W        W34553  18.051  12.459   1.436  0.0883 -0.2303  0.2680
17030W        W34554   7.777   2.248   3.335  0.2686  0.4189 -0.2954
17031W        W34555   8.466  12.733   2.421 -0.0197  0.1922  0.1995
17032W        W34556   4.412  10.656   1.140 -0.0065 -0.2874 -0.2823
17033W        W34557   5.598  13.739   1.067 -0.0556 -0.1066 -0.1351
17034W        W34558  16.381   2.778  12.378 -0.2015 -0.2223 -0.0108
17035W        W34559  16.688   5.573  15.617 -0.2207  0.1231  0.0529
17036W        W34560   1.244  14.487  11.886  0.1419  0.0923 -0.1413
17037W        W34561   7.056   6.529  15.668 -0.3347  0.1692 -0.2297
17038W        W34562  11.054   5.247  11.847  0.0282 -0.1424 -0.0826
17039W        W34563   7.074  15.125   4.682  0.4011 -0.1725 -0.0380
17040W        W34564   2.914   5.873   4.637  0.0194  0.0564 -0.0612
17041W        W34565   9.421   2.592  12.384 -0.0887  0.2202  0.1323
17042W        W34566   1.811   4.882  15.233  0.0668 -0.1034 -0.4120
17043W        W34567  13.109  16.290  14.768 -0.0349 -0.0761 -0.2656
17044W        W34568   7.641  15.280  14.143  0.1840  0.3818  0.0778
17045W        W34569  13.621   6.849   3.067  0.0952 -0.0705 -0.1671
17046W        W34570   7.154   4.097   0.262 -0.2078  0.2146  0.0008
17047W        W34571   9.050  14.743   2.283 -0.1977  0.1918 -0.2515
17048W        W34572   3.273   8.135  13.400 -0.1500 -0.1870 -0.3013
17049W        W34573   5.783  14.308   3.662  0.1004  0.2451 -0.2716
17050W        W34574   4.538   8.973  12.243  0.1310  0.0531  0.2113
17051W        W34575  10.698   6.002   5.340 -0.0567  0.1220 -0.2143
17052W        W34576   0.189   0.777   0.710  0.0885 -0.0620 -0.0704
17053W        W34577   3.784  14.103   1.098  0.1267  0.1358  0.3020
17054W        W34578   5.140  16.506  12.542  0.2434 -0.2586  0.3208
17055W        W34579   2.903   6.884  10.639  0.0757  0.2849 -0.1649
17056W        W34580  12.247   4.837   1.197  0.3098  0.0706 -0.1158
17057W        W34581  18.313  10.822  15.698  0.3679  0.0286 -0.1255
17058W        W34582   2.742  17.473   4.709 -0.0778 -0.1159 -0.4001
17059W        W34583   1.070   0.113   1.028 -0.1480  0.3924  0.1881
17060W        W34584   2.331  11.250   2.710 -0.0522  0.0157 -0.2510
17061W        W34585  16.537   4.213  15.701 -0.2503 -0.2485 -0.1573
17062W        W34586   3.716   0.118  14.641  0.3485  0.0756  0.0689
17063W        W34587   8.125   7.000  15.613  0.0400 -0.3260  0.0182
17064W        W34588   6.665  10.508   4.380  0.1981  0.0965 -0.1843
17065W        W34589  13.747   0.903   2.701  0.2984  0.2246 -0.0104
17066W        W34590  13.751   0.204   1.686 -0.1944 -0.3548 -0.0344
17067W        W34591   9.311   3.613  11.427  0.2097 -0.1387  0.0179
17068W        W34592  11.449   9.691   3.802 -0.0932  0.1190  0.1626
17069W        W34593   3.097  12.019  11.634 -0.3414  0.0331  0.0066
17070W        W34594   4.193   5.196   1.018  0.1453 -0.1776  0.2507
17071W        W34595  14.214  12.683  12.674  0.4327 -0.5171  0.2276
17072W        W34596   0.751  17.689  15.300 -0.2311 -0.3610 -0.1315
17073W        W34597  10.833   6.231  11.128 -0.2939 -0.1594 -0.1192
17074W        W34598   6.029   0.145   2.432  0.1304  0.0532 -0.2303
17075W        W34599   5.395   3.092  14.237  0.4117 -0.3082 -0.3760
17076W        W34600   8.328   4.388  12.774  0.1279  0.1631 -0.1217
17077W        W34601  10.098  16.226  11.330  0.0448  0.1432 -0.1183
17078W        W34602   7.202   9.197   3.263 -0.1034 -0.3247 -0.1620
17079W        W34603   9.107   9.650  13.716  0.0241  0.2998  0.0003
17080W        W34604  10.293   1.473   0.347 -0.3107  0.4437  0.2850
17081W        W34605   6.893   7.538   2.562  0.1016  0.0213 -0.0790
17082W        W34606   8.981   0.693   1.985  0.0338  0.0233 -0.1261
17083W        W34607   7.256   5.024   4.667 -0.1097  0.0344 -0.1265
17084W        W34608  15.090  15.844  13.974 -0.0577  0.0175 -0.1364
17085W        W34609   6.724   1.901   1.121  0.0948 -0.2030 -0.0305
17086W        W34610   6.828   3.368  10.874 -0.0006  0.0750 -0.0054
17087W        W34611  16.290   4.478  11.049  0.0498 -0.0905 -0.3470
17088W        W34612   3.509   3.700   3.947 -0.0086  0.0670  0.1693
17089W        W34613   6.565   0.657   3.980 -0.0854  0.0171 -0.4151
17090W        W34614   7.333   9.325   1.166  0.1195  0.1879  0.1020
17091W        W34615  15.482  17.795  14.011 -0.0772 -0.0736 -0.0145
17092W        W34616  12.862   9.825  14.147  0.0212 -0.0187 -0.2270
17093W        W34617   1.428   6.029  10.950 -0.0284 -0.0391  0.1592
17094W        W34618   9.643   4.576  12.375  0.0480  0.0796  0.0940
17095W        W34619   1.173  14.055  11.482  0.0574  0.2626 -0.2148
17096W        W34620  15.978   0.817  11.660 -0.3577 -0.0229  0.5504
17097W        W34621  17.527  13.758  14.604 -0.0546 -0.1202 -0.3342
17098W        W34622   1.670  12.073   1.341  0.2156 -0.0789 -0.0538
17099W        W34623  14.437  15.200   5.869  0.1356 -0.0263  0.1980
17100W        W34624   0.679   8.897  15.482  0.0727 -0.2219 -0.0343
17101W        W34625  11.975   9.063  14.286  0.2012  0.3669  0.0528
17102W        W34626   8.745   5.328   1.997 -0.1497  0.0638 -0.0252
17103W        W34627   3.038  18.034  12.792 -0.1456 -0.3503  0.0935
17104W        W34628   3.105   4.005   2.602  0.0207  0.0349  0.2961
17105W        W34629   5.438  12.297   4.772 -0.1590 -0.2548  0.1864
17106W        W34630   6.111   2.361   5.631 -0.0292 -0.0009  0.2279
17107W        W34631  12.084   1.601  12.996 -0.1252 -0.1318  0.2838
17108W        W34632  14.396   4.811   1.008  0.0712 -0.1616  0.2217
17109W        W34633  15.704   4.561  13.584  0.0123 -0.1080 -0.1686
17110W        W34634  11.073   5.108   2.379 -0.1799 -0.2495 -0.1155
17111W        W34635   3.573  13.241  15.071  0.1542  0.0636  0.0329
17112W        W34636   2.011   7.120  13.615  0.0740  0.1166  0.1465
17113W        W34637  13.487  15.395  15.179 -0.1923  0.0473  0.2858
17114W        W34638  16.431   5.771  12.404 -0.1666 -0.0534 -0.0827
17115W        W34639   9.822  16.131  14.083  0.1832 -0.0776 -0.0988
17116W        W34640   8.250   7.868   4.699 -0.1500  0.3505 -0.0020
17117W        W34641   2.580  15.705   2.671  0.3391  0.1856 -0.0800
17118W        W34642   4.391  11.256  14.134 -0.2974 -0.1190  0.1927
17119W        W34643   3.493  14.872  13.977  0.3305 -0.4236 -0.0178
17120W        W34644   0.892   9.405  15.322  0.0145 -0.1402  0.3045
17121W        W34645  16.600   4.117  11.245  0.1653 -0.1976  0.1141
17122W        W34646  17.934  15.897   0.313 -0.0153 -0.3504 -0.1952
17123W        W34647   3.043   0.956  13.562  0.1089  0.0532  0.2542
17124W        W34648   3.108   9.007   3.351 -0.0787  0.0250  0.1153
17125W        W34649   2.503   3.504  15.262 -0.0561  0.1049  0.1729
17126W        W34650   2.657   3.697  14.344 -0.0060 -0.0163 -0.1461
17127W        W34651   2.356  14.238  15.815  0.3160  0.1131 -0.1030
17128W        W34652   2.997  14.256  11.973 -0.1020  0.1882  0.0249
17129W        W34653  15.656  17.775   2.672  0.0244 -0.1206 -0.1686
17130W        W34654   7.927   0.817  13.693 -0.1553  0.3444  0.0222
17131W        W34655   5.726   1.462  10.598  0.2302 -0.1996 -0.0243
17132W        W34656   9.520   5.287   1.586  0.4011  0.2122 -0.1284
17133W        W34657  17.726   4.689   4.046 -0.0199  0.0763  0.0616
17134W        W34658  15.609   3.555  13.832  0.0744  0.2179 -0.1244
17135W        W34659   2.594  10.237   3.892  0.0729 -0.4254 -0.0836
17136W        W34660   0.409   8.106   1.765  0.0383 -0.1106  0.0868
17137W        W34661  13.098  13.113  15.498 -0.2090 -0.3287 -0.0058
17138W        W34662  14.307  11.881  13.838  0.0617  0.0824 -0.0375
17139W        W34663  12.133  10.217   3.248  0.2124  0.1487  0.0037
17140W        W34664  17.349   3.294  15.506  0.0564  0.1173  0.0592
17141W        W34665   6.872  11.167  14.742 -0.2287  0.0539  0.2083
17142W        W34666   9.258  16.325  14.948  0.0379  0.1484 -0.2256
17143W        W34667  17.157   5.224  12.904 -0.0962  0.1187 -0.0235
17144W        W34668  10.273  17.684   4.853 -0.3056 -0.0461  0.2428
17145W        W34669  16.868  11.453  13.550  0.1347 -0.2583  0.2110
17146W        W34670  18.054  17.252   5.469  0.2056 -0.1560 -0.0153
17147W        W34671   2.201   5.666   2.481 -0.0159  0.2567 -0.0292
17148W        W34672  16.446   4.214  14.662  0.2017 -0.0592  0.3178
17149W        W34673  15.200   6.004   2.309  0.0381  0.1981 -0.1313
17150W        W34674   2.976   7.351  13.467 -0.2273 -0.0698  0.1244
17151W        W34675   1.203  15.466   2.340  0.0615  0.0973 -0.1562
17152W        W34676   1.449   3.744   1.518 -0.0295  0.2763  0.0662
17153W        W34677   5.900  16.153  11.907 -0.0801 -0.0291 -0.0610
17154W        W34678  10.026   9.916   2.663  0.0298 -0.2066 -0.0277
17155W        W34679  16.577  11.833   1.496  0.2000  0.3407 -0.0280
17156W        W34680   1.530   3.190  14.725 -0.1870  0.1780 -0.1241
17157W        W34681  16.743  14.287  13.692  0.2455  0.2134  0.3929
17158W        W34682  15.536   4.845   4.879  0.2896 -0.1749 -0.2420
17159W        W34683  15.435  11.554   0.508  0.2215 -0.2121  0.0295
17160W        W34684   8.754   7.182  13.757  0.0118 -0.1335 -0.2108
17161W        W34685  11.181  18.006  11.713  0.0864  0.0324  0.0709
17162W        W34686  13.314   1.566  15.054 -0.0490 -0.1660  0.0560
17163W        W34687   1.825   1.424  13.165  0.0347 -0.1625 -0.2051
17164W        W34688   5.449   9.358  15.552 -0.0403  0.2063 -0.2083
17165W        W34689   1.907   4.314  15.063 -0.0723 -0.2451 -0.2903
17166W        W34690  12.420   1.728  14.942  0.0002 -0.1243 -0.1479
17167W        W34691  13.652  11.550  14.592 -0.1864  0.1314  0.0602
17168W        W34692   6.574   4.146  12.257 -0.1442  0.4318  0.2226
17169W        W34693   2.526   8.595   5.837  0.3512  0.2595 -0.2511
17170W        W34694   0.522   1.153  11.551 -0.1831 -0.1402 -0.2047
17171W        W34695   0.175   5.172  15.724 -0.2318  0.0344  0.1656
17172W        W34696   5.015   1.777   0.898  0.0059 -0.0393  0.0663
17173W        W34697  10.690  17.562   4.093  0.1249  0.1860  0.0076
17174W        W34698  11.061  16.670   4.985 -0.0514 -0.2331  0.1644
17175W        W34699   3.057  16.941  11.813 -0.2167  0.2012  0.1524
17176W        W34700   1.553   2.579   0.373 -0.4624  0.1300  0.1632
17177W        W34701   4.013   5.503  14.058 -0.0100  0.2696  0.0406
17178W        W34702  15.464   2.924   4.430 -0.2896 -0.1359  0.1002
17179W        W34703   0.548   3.960  12.249  0.0646 -0.0006 -0.0190
17180W        W34704  10.750   9.940   3.392  0.0244  0.2574 -0.2998
17181W        W34705   4.812   8.183  11.551  0.0755  0.0095 -0.1050
17182W        W34706  12.936   2.566  11.854 -0.0739 -0.0608  0.0087
17183W        W34707  12.410  14.332  12.472  0.0228 -0.0768  0.1463
17184W        W34708  12.796   4.034  13.996  0.0373  0.2864 -0.1891
17185W        W34709   7.083   5.081   3.628  0.0674 -0.1256 -0.1904
17186W        W34710   5.611  14.241   2.543  0.0610  0.2690 -0.0339
17187W        W34711   7.077  12.515  13.097 -0.2164  0.1527 -0.0181
17188W        W34712   7.759  14.882  13.876  0.1029 -0.1593  0.1636
17189W        W34713  15.142  10.715   3.803 -0.1236  0.1591  0.3020
17190W        W34714   8.675   8.902  14.422  0.0410  0.0033 -0.1944
17191W        W34715   1.879  12.600   3.006  0.0329  0.3145 -0.0236
17192W        W34716  16.504  11.098   2.739  0.0655  0.1907  0.0110
17193W        W34717   5.113   7.237   0.778 -0.0882 -0.3952 -0.1647
17194W        W34718  16.565   4.626   0.135  0.2821  0.0191 -0.2167
17195W        W34719  10.654   2.848  11.823  0.0896 -0.2300 -0.0568
17196W        W34720   7.309  10.052   3.940  0.1633  0.1306 -0.1215
17197W        W34721   7.483   5.119  12.268  0.0513  0.0191  0.0992
17198W        W34722   8.417   7.970  15.575  0.0876  0.1593  0.1440
17199W        W34723   7.928  14.422  12.887 -0.0555 -0.0514 -0.1282
17200W        W34724   7.224   7.679  13.833  0.1487 -0.0229 -0.0017
17201W        W34725  13.335  12.672  13.684  0.3024 -0.0842 -0.0892
17202W        W34726   9.677   8.810   5.759  0.0224  0.1384  0.2471
17203W        W34727  10.486  16.994  13.875  0.1244  0.2032 -0.0804
17204W        W34728   4.156   4.069   4.575 -0.1727  0.2073  0.0378
17205W        W34729  17.691   6.309  10.668 -0.3430  0.0544  0.0727
17206W        W34730   9.324   2.561  10.673  0.2546  0.0887 -0.1772
17207W        W34731   7.356  11.714   1.460  0.0969 -0.1710 -0.1607
17208W        W34732   7.384  17.167  12.616 -0.1273 -0.4885  0.0395
17209W        W34733  12.186   1.009   1.442  0.5148 -0.0591 -0.2881
17210W        W34734   2.344   9.270  14.490  0.5675 -0.1182  0.3310
17211W        W34735   2.887  15.567   0.581  0.0609  0.1221  0.2778
17212W        W34736  10.404  10.298   1.388  0.0986  0.2806  0.1176
17213W        W34737  10.343  17.499   1.783 -0.1230  0.1479  0.0185
17214W        W34738  17.262   1.622   0.578  0.0274  0.2188  0.3924
17215W        W34739  15.677  11.392   1.410  0.0845 -0.0790  0.0513
17216W        W34740   8.210   6.744   5.400  0.1022  0.0508  0.1891
17217W        W34741   4.560  13.498  11.772  0.2947 -0.0434 -0.0789
17218W        W34742   2.171  16.151   2.759  0.0284 -0.1050  0.3993
17219W        W34743  11.063  12.467   3.059  0.0034 -0.0787  0.0383
17220W        W34744   0.457   7.130  14.956 -0.1091 -0.0502 -0.0256
17221W        W34745   1.912  13.977  13.230 -0.2330  0.1525 -0.2117
17222W        W34746  13.941  10.713  11.553 -0.0870  0.4228  0.0257
17223W        W34747  12.830  11.476  15.265 -0.0855  0.1145  0.1604
17224W        W34748  12.816  10.994   0.289  0.0225  0.0712  0.1909
17225W        W34749  16.645  13.191  15.769 -0.2514 -0.0694 -0.0351
17226W        W34750   4.628  12.301   2.753  0.0872 -0.0270 -0.2473
17227W        W34751   5.398   1.078   0.401  0.0828  0.4156 -0.1392
17228W        W34752   1.938  15.197   2.301 -0.1983  0.0338 -0.0439
17229W        W34753   5.821   6.979   2.426 -0.0171  0.0635 -0.0692
17230W        W34754  16.984   8.374  11.348 -0.1631  0.2526 -0.1804
17231W        W34755  17.761   5.619  14.202  0.0710 -0.0949 -0.0440
17232W        W34756   6.609  12.541   4.535 -0.0061  0.1197  0.1820
17233W        W34757   8.683   1.844   3.522 -0.1666 -0.0693 -0.1125
17234W        W34758   3.079   2.871   4.910 -0.5293  0.1262  0.0562
17235W        W34759   6.742   3.225  13.490  0.0361  0.1214 -0.0230
17236W        W34760  17.187   4.043  11.134  0.0198  0.0639 -0.2393
17237W        W34761  14.216   1.043  12.210  0.0597  0.1807 -0.0844
17238W        W34762  17.684  11.745  15.468  0.0291 -0.0889  0.1450
17239W        W34763   2.702  13.536   4.297 -0.0578 -0.3428 -0.2161
17240W        W34764  15.296   8.202   2.737 -0.1782 -0.3267 -0.2616
17241W        W34765   7.822  18.378  15.773  0.3647  0.1791  0.1035
17242W        W34766   7.716  11.923  14.660  0.0338 -0.0039  0.0941
17243W        W34767  13.303   2.183  13.401  0.1118  0.1778  0.0454
17244W        W34768  14.198  11.600   2.945  0.0496 -0.1226 -0.4037
17245W        W34769  14.752   7.042   1.476 -0.2617  0.1187 -0.0302
17246W        W34770  13.836   3.180   0.341 -0.0835  0.2528 -0.2747
17247W        W34771  12.128  13.327   1.121 -0.0838 -0.1196  0.1891
17248W        W34772   8.388  10.020   4.872 -0.2808 -0.0760 -0.1131
17249W        W34773   6.962   0.687  12.086  0.3286  0.0483 -0.0028
17250W        W34774  16.250  11.672  15.811  0.1200 -0.0143 -0.0741
17251W        W34775  12.406   7.345  14.323  0.2021 -0.5507  0.1020
17252W        W34776   4.218   5.912   4.141 -0.1309 -0.1564 -0.1049
17253W        W34777  16.223  18.168   1.042 -0.4864  0.1839  0.0768
17254W        W34778   6.421  16.910   3.970 -0.2088  0.0391 -0.1408
17255W        W34779  10.438  11.017  13.925 -0.4433 -0.0371 -0.1484
17256W        W34780  13.690   2.455  15.697 -0.0164 -0.1535 -0.1487
17257W        W34781  11.866   6.556  12.614 -0.3187  0.0766  0.1407
17258W        W34782   5.376  13.395   4.800  0.0082 -0.0139 -0.3211
17259W        W34783  13.125   0.309   0.829  0.2163  0.1648  0.0158
17260W        W34784  13.174  16.081  15.582 -0.2021 -0.0890  0.0941
17261W        W34785   0.939  17.112  12.614 -0.1812 -0.0142 -0.3306
17262W        W34786  12.656  13.487  11.998  0.0337  0.0591  0.2083
17263W        W34787  13.912   1.434   4.657  0.3142  0.2603 -0.0477
17264W        W34788  18.165   5.879  11.617 -0.0011 -0.1925  0.1697
17265W        W34789  10.076  12.485   3.344 -0.1617  0.2120 -0.0268
17266W        W34790   3.765  11.358  14.949  0.2046  0.0439  0.2865
17267W        W34791  18.384  15.104   4.469 -0.3985  0.0339  0.1007
17268W        W34792   2.860   7.983   1.468  0.0276 -0.3704 -0.1763
17269W        W34793   0.200   7.969  12.497  0.0479 -0.2552 -0.2642
17270W        W34794   1.768  17.346   3.239 -0.1403  0.3499  0.2196
17271W        W34795   0.201   8.473  15.566  0.0638  0.1098 -0.2641
17272W        W34796  13.248  18.029  12.420 -0.1960  0.0306  0.1243
17273W        W34797  12.191   3.389   1.622 -0.1388  0.1355  0.2279
17274W        W34798   7.905   2.706   4.439 -0.2799  0.0013  0.0244
17275W        W34799  14.849   9.613   2.564  0.1225  0.0063  0.0083
17276W        W34800  12.813  14.566   3.936  0.0296 -0.0512  0.1910
17277W        W34801  14.090   2.661  14.822 -0.0455 -0.1457  0.1965
17278W        W34802  14.625  10.479   1.680 -0.0003 -0.2603  0.1569
17279W        W34803  17.679  14.359  15.727  0.2421 -0.0437  0.0081
17280W        W34804   8.134   9.182  13.116 -0.0980 -0.0185  0.3443
17281W        W34805  17.035   3.373   0.136 -0.2070  0.3281  0.1628
17282W        W34806  15.724   6.930   3.597  0.2859 -0.0764  0.2536
17283W        W34807  11.236  18.045   2.858  0.2200  0.1101  0.2172
17284W        W34808  13.490   0.820   2.229 -0.2573  0.0047 -0.0263
17285W        W34809  14.086   5.627  14.522  0.0554 -0.1340 -0.1743
17286W        W34810   7.028  11.544  12.081 -0.1582  0.1909  0.0023
17287W        W34811   0.579   6.705  10.914  0.1926 -0.2286 -0.3165
17288W        W34812   3.408  11.611   1.531 -0.1851  0.3586 -0.0573
17289W        W34813   5.762   1.394   2.983  0.1094 -0.1122 -0.1879
17290W        W34814  16.018  13.042  11.553  0.3378  0.1422  0.1753
17291W        W34815   2.900   9.508  15.361  0.0929  0.0489  0.1744
17292W        W34816   9.947  11.779   2.582  0.0593 -0.1085  0.2706
17293W        W34817  12.269  10.551   4.417 -0.2360  0.1429 -0.1861
17294W        W34818  17.663   6.016  13.204  0.0553 -0.1807  0.1260
17295W        W34819   9.090  16.277   1.412  0.2145 -0.0666 -0.2646
17296W        W34820   7.770   7.808   2.119  0.1417  0.0437  0.0508
17297W        W34821  14.524  18.151   4.271 -0.0422  0.5186  0.1676
17298W        W34822   5.241  12.019  13.622 -0.0871  0.3972 -0.2506
17299W        W34823   4.366  16.890   5.060 -0.2181  0.2350 -0.1519
17300W        W34824  15.227  15.940   4.590  0.0827  0.1752  0.1369
17301W        W34825   3.939  17.824   2.577 -0.0337 -0.1248 -0.0371
17302W        W34826   1.826  13.268  11.221  0.3264  0.4170  0.4082
17303W        W34827   9.753  14.922   3.633  0.0465  0.2239 -0.3538
17304W        W34828  11.642   5.449  12.477  0.0962 -0.1400 -0.0391
17305W        W34829   2.812   0.294   0.807  0.1058  0.1368 -0.1811
17306W        W34830   5.582  12.865  13.957 -0.0731  0.1715 -0.0958
17307W        W34831   9.012   2.343  14.789  0.0689 -0.0001 -0.0066
17308W        W34832   2.514   0.304   2.133 -0.2210 -0.1689 -0.0251
17309W        W34833   7.365  18.265  13.575  0.0054 -0.0464 -0.2819
17310W        W34834  10.168   8.127   4.681  0.3761  0.0860 -0.3863
17311W        W34835  14.911  18.001   3.960  0.0053 -0.0140 -0.0891
17312W        W34836   9.716  12.233  11.570  0.1429 -0.0117 -0.1443
17313W        W34837   5.183  13.533   0.791 -0.2553  0.0476  0.0595
17314W        W34838   3.276   3.044   0.596  0.1945 -0.0102  0.0014
17315W        W34839   1.420   2.764  14.484 -0.1571  0.0412  0.0412
17316W        W34840   3.925  10.201   1.064 -0.3200 -0.1950 -0.0431
17317W        W34841   1.539  13.556  13.175  0.1236  0.1515  0.0991
17318W        W34842  17.426   0.949   2.377 -0.3151 -0.1851  0.0683
17319W        W34843  14.029  17.618  14.218 -0.0776  0.1076  0.0350
17320W        W34844  17.452   2.415   2.253 -0.4781 -0.1226  0.0409
17321W        W34845  17.602   1.910  12.738 -0.1434 -0.2932  0.2240
17322W        W34846  14.639   1.513  14.833  0.0105  0.0183  0.0070
17323W        W34847   4.850  16.749  11.243  0.2837  0.0073 -0.2232
17324W        W34848  18.026  16.938  11.813 -0.0252  0.3136  0.2402
17325W        W34849   4.848   5.200  14.605 -0.0308 -0.2885 -0.1026
17326W        W34850   4.900   5.827  15.854  0.2544  0.1952  0.0426
17327W        W34851   1.827   7.372  14.992  0.0143  0.1442  0.5038
17328W        W34852   9.035   1.222  13.433  0.1662 -0.1249 -0.2589
17329W        W34853  15.929   2.771   0.044  0.0704  0.2460 -0.0008
17330W        W34854   8.188   5.700  10.224  0.2526  0.4117 -0.1090
17331W        W34855   7.527  15.965   0.947  0.0303  0.1556  0.0232
17332W        W34856   6.077   3.943  13.352 -0.0630 -0.1293  0.1872
17333W        W34857   3.911   2.455  13.548  0.0201 -0.0978  0.1613
17334W        W34858  12.625  17.505   0.867 -0.1180 -0.0887 -0.1980
17335W        W34859   6.227  11.188  13.936  0.0556  0.1506 -0.1246
17336W        W34860   0.009  12.219   4.398 -0.2657  0.0814  0.1465
17337W        W34861   8.456  15.951  15.134  0.0753 -0.1230 -0.0316
17338W        W34862  17.091  15.744   0.789 -0.3068  0.1052  0.1229
17339W        W34863   4.564  10.202  12.399 -0.2873  0.1046  0.1721
17340W        W34864  12.507   8.508  12.463 -0.3279  0.1585 -0.1761
17341W        W34865  18.117   4.625  13.245 -0.1715  0.3222  0.3462
17342W        W34866  13.422  16.714   3.616 -0.1782  0.1134  0.1508
17343W        W34867  17.143   0.611   3.148 -0.1837 -0.3599  0.1275
17344W        W34868  10.428   6.867   1.551 -0.0863 -0.0441 -0.2785
17345W        W34869   3.673  17.063   3.610  0.0130  0.1805 -0.2025
17346W        W34870   2.459  18.065  12.028 -0.2201 -0.0683  0.3827
17347W        W34871  13.820  16.484  12.647  0.1296  0.3517  0.3900
17348W        W34872  11.312  12.984  12.118  0.3238 -0.4140  0.0291
17349W        W34873  17.794   6.331   2.545 -0.0506 -0.2477 -0.1316
17350W        W34874   3.333   9.075   1.030 -0.3251 -0.1074  0.0606
17351W        W34875   4.003  12.274  11.926 -0.0548  0.0353 -0.0070
17352W        W34876   1.232  13.716   0.526 -0.2776 -0.0043 -0.2488
17353W        W34877   5.513   0.186   1.052  0.1386  0.1935  0.0882
17354W        W34878  14.337   1.356  12.639  0.0147  0.2505 -0.0406
17355W        W34879   7.218  18.169   3.139 -0.0987 -0.0846  0.1209
17356W        W34880   9.677   0.627   3.763 -0.1613 -0.1184  0.0878
17357W        W34881   6.607  16.784   3.488  0.1596  0.1418  0.3250
17358W        W34882   0.482  18.107   1.744  0.1421  0.0529 -0.0038
17359W        W34883   7.521   7.280  14.115  0.1255 -0.3197 -0.2774
17360W        W34884  13.640   8.986   2.005 -0.0338  0.1124  0.1027
17361W        W34885  11.752   2.467   3.150  0.1029  0.0919  0.2635
17362W        W34886  17.752   4.546  14.461  0.0269  0.1287 -0.3309
17363W        W34887   1.637   7.094   4.020 -0.0243 -0.1518  0.0939
17364W        W34888  12.411   1.540  11.247 -0.0741 -0.1039  0.1172
17365W        W34889  16.578   7.911  11.989  0.0715  0.2594 -0.0850
17366W        W34890   5.440  17.244  14.074  0.0423 -0.2920  0.1230
17367W        W34891  14.802   6.231   3.086 -0.2126 -0.0599  0.1920
17368W        W34892   2.154   2.135   2.304 -0.0368 -0.1794  0.0056
17369W        W34893  12.560  16.957  13.208 -0.1463 -0.0663  0.0389
17370W        W34894  11.351   3.275   3.938 -0.1250 -0.2187  0.3845
17371W        W34895   3.806   0.804  11.357  0.1100  0.3046 -0.1496
17372W        W34896  13.149   0.202   1.307  0.1299 -0.2314 -0.0660
17373W        W34897  10.726   1.822  13.654 -0.0063  0.2121  0.0457
17374W        W34898   4.477  14.050   0.181  0.1760  0.0841  0.0830
17375W        W34899   2.934  15.381   5.729  0.1432  0.0478  0.0806
17376W        W34900  16.168   4.282   4.578 -0.1061 -0.2704  0.2424
17377W        W34901   2.113  15.001  10.808 -0.3100 -0.1939  0.2917
17378W        W34902  13.397   1.075  14.085  0.0115  0.0788 -0.0691
17379W        W34903   2.700   0.611   4.181 -0.0811 -0.0512 -0.1041
17380W        W34904   4.623  16.553  13.363 -0.1289 -0.1889 -0.1380
17381W        W34905  13.154  17.174   3.352 -0.1356 -0.1123  0.1297
17382W        W34906  15.916  10.300   0.231 -0.1323 -0.2012 -0.0966
17383W        W34907   9.948  12.893   1.746  0.0580 -0.0060 -0.2487
17384W        W34908   4.216   1.274   0.645 -0.0972 -0.0252  0.1019
17385W        W34909  14.015  16.158  14.921 -0.0839 -0.0377 -0.1491
17386W        W34910   5.725   3.420   4.565 -0.2520  0.2506 -0.3049
17387W        W34911   9.202   7.392  14.313 -0.1420  0.1245  0.2261
17388W        W34912   5.295  17.668  15.031  0.1520  0.1152 -0.2426
17389W        W34913  10.846   2.275   0.810  0.1754 -0.0930  0.2431
17390W        W34914  16.404  16.636  13.503 -0.1761 -0.1810  0.3446
17391W        W34915   6.075   2.385   2.188  0.1007 -0.1127 -0.2599
17392W        W34916  14.737   4.617   2.500  0.2550  0.0393  0.0239
17393W        W34917   4.431   0.542   1.500  0.0451  0.3816 -0.0558
17394W        W34918  14.771   4.740   3.086  0.3015 -0.0943  0.0479
17395W        W34919  15.989   9.954   3.630 -0.0710  0.1374  0.3045
17396W        W34920   3.920   3.548  15.409  0.1410  0.2830 -0.1282
17397W        W34921   0.352  17.152  11.720  0.0897 -0.1258 -0.2604
17398W        W34922   5.002  17.134   2.633 -0.1315 -0.0826  0.6049
17399W        W34923  18.301  16.036   1.049 -0.0232  0.2048  0.2003
17400W        W34924  14.514  11.376  15.636 -0.1288  0.1873 -0.2813
17401W        W34925  14.043  12.944   1.386 -0.1217 -0.1275  0.3188
17402W        W34926  11.925   1.546   2.640 -0.2648 -0.0370  0.0985
17403W        W34927   8.470  18.011   3.541 -0.0690 -0.0130 -0.1839
17404W        W34928   2.997  16.037  11.352  0.2147 -0.1545  0.2832
17405W        W34929  16.232   7.502   2.809  0.0614  0.1693 -0.2548
17406W        W34930   0.083  13.147  13.371  0.2067  0.0709  0.4630
17407W        W34931   8.310   0.115   2.425 -0.1269 -0.1312  0.0536
17408W        W34932  13.751   2.478   1.816 -0.0820 -0.3332  0.1801
17409W        W34933  12.709   2.506   2.857  0.1762  0.2855  0.1495
17410W        W34934   1.050  12.494   2.470 -0.0745 -0.0495  0.0271
17411W        W34935   8.817   2.942  15.486  0.1024 -0.1270 -0.2107
17412W        W34936   1.675  18.063  11.967  0.2110  0.2297 -0.1775
17413W        W34937   0.444  10.949   5.846  0.0922  0.1175 -0.0861
17414W        W34938  16.377   5.613   4.593 -0.0225 -0.0209  0.0839
17415W        W34939   9.470  12.970   0.870 -0.0496 -0.2394  0.1598
17416W        W34940   3.344  18.129   4.498 -0.0954  0.0894 -0.0474
17417W        W34941   4.099   7.881  11.327 -0.1975 -0.2312 -0.0899
17418W        W34942  10.942  10.549  13.268  0.0597 -0.0617 -0.1775
17419W        W34943   2.730  12.687  14.911 -0.0853  0.6708  0.1211
17420W        W34944  10.399  12.982   4.617  0.2465 -0.0641 -0.2800
17421W        W34945   4.554  11.707   0.485  0.2127 -0.1480  0.2298
17422W        W34946  18.165   1.740  10.629 -0.2450 -0.2227  0.1219
17423W        W34947   8.630  15.258   5.341  0.0106  0.1942 -0.0723
17424W        W34948   5.817   0.535  14.035 -0.1286  0.1985  0.0137
17425W        W34949   1.321   5.722  15.457 -0.2104 -0.0821 -0.1914
17426W        W34950  10.399   7.823  11.396  0.0392 -0.0156  0.0878
17427W        W34951  15.704  11.414  13.603  0.0259  0.0656 -0.0526
17428W        W34952   9.524   2.557   6.122 -0.2224 -0.1147 -0.0910
17429W        W34953  18.293   9.857   0.172 -0.0262  0.2967 -0.3177
17430W        W34954  13.137   7.208  14.880  0.0902 -0.5600  0.0704
17431W        W34955   6.546   5.957   2.582 -0.0143 -0.0730 -0.2122
17432W        W34956   0.018   2.960  11.457  0.3879 -0.1745 -0.0058
17433W        W34957  14.198   5.583  10.733  0.0332  0.1880 -0.1550
17434W        W34958   0.096   7.199   0.633  0.0567  0.1481 -0.0315
17435W        W34959   9.139   2.881  14.120 -0.2612 -0.1292  0.2771
17436W        W34960  13.075  15.299   3.209  0.2867 -0.0667  0.0141
17437W        W34961   2.388  11.822   2.603  0.1920  0.1961  0.0440
17438W        W34962  17.908  14.719  14.289 -0.2412 -0.1051  0.0503
17439W        W34963  18.321  17.881  14.757  0.1682 -0.0127 -0.1360
17440W        W34964   1.675  13.273   3.038  0.5221  0.0036  0.1041
17441W        W34965   5.802   3.545  10.770  0.3819  0.1979  0.0927
17442W        W34966  15.376   4.644  14.813  0.5145 -0.1381 -0.2472
17443W        W34967   5.184   1.331   2.273  0.2514 -0.3887  0.2631
17444W        W34968   4.817   1.558  11.462 -0.0402 -0.1000  0.1433
17445W        W34969   4.966   1.177   5.546 -0.0923  0.1862 -0.1064
17446W        W34970   0.642  12.738  12.999  0.1657 -0.2181  0.0672
17447W        W34971  14.755  15.062   3.353  0.3183 -0.2622 -0.2244
17448W        W34972   2.121  10.106   1.350  0.0256  0.1976 -0.2147
17449W        W34973   2.415   4.303  15.117  0.1384 -0.2293 -0.0495
17450W        W34974   8.787  12.315   1.146  0.0189 -0.0153 -0.0289
17451W        W34975   1.613   3.257   0.454 -0.1527  0.0001  0.0645
17452W        W34976  14.750   1.253  11.486  0.2205  0.0383  0.1623
17453W        W34977  13.961   5.764  14.070  0.4044  0.1873 -0.0956
17454W        W34978  12.637  16.657   0.139 -0.1620 -0.2607 -0.0787
17455W        W34979  12.918  18.010  14.534  0.0212 -0.0598 -0.0662
17456W        W34980  15.886  10.358   3.164  0.0105  0.0164 -0.0043
17457W        W34981   1.452  18.193  14.813  0.0913  0.0814 -0.1200
17458W        W34982   6.487  10.414  15.004 -0.1451 -0.0812  0.1052
17459W        W34983  10.000   1.703  15.641 -0.1518 -0.0442  0.3418
17460W        W34984  16.694   0.415   3.273 -0.0990 -0.0124  0.3386
17461W        W34985  14.270   2.565   1.808 -0.0362  0.1274 -0.0880
17462W        W34986  14.462   1.199   2.332  0.0961  0.0402 -0.0930
17463W        W34987  17.445  13.145   3.489 -0.1004 -0.1958  0.0468
17464W        W34988  10.706   7.775  11.809  0.1837 -0.0829  0.2153
17465W        W34989   0.577   4.119  15.764  0.0174 -0.1816 -0.1575
17466W        W34990  13.083   3.249   1.053  0.0216  0.0887  0.2006
17467W        W34991  17.625   8.630  15.706 -0.2707  0.0893  0.0598
17468W        W34992   8.248  10.725   4.468  0.1327  0.4067 -0.0560
17469W        W34993  13.753   1.905  14.785 -0.2723  0.2150  0.2186
17470W        W34994  10.470  15.155   5.276  0.0702 -0.1119  0.1068
17471W        W34995   7.617  11.083   3.674 -0.0926 -0.1371 -0.0689
17472W        W34996   3.742  17.573  14.683 -0.1486  0.1230 -0.0582
17473W        W34997   5.354   9.786   3.374 -0.0608 -0.0393 -0.2711
17474W        W34998   0.965   0.658  12.039  0.1689  0.0704  0.1661
17475W        W34999  16.100  17.525  10.694 -0.1689 -0.1525  0.1704
17476W        W35000   0.332   2.514  12.581 -0.0656  0.1111 -0.1901
17477W        W35001   8.090  14.503   0.418  0.1540 -0.0449 -0.1468
17478W        W35002  16.632   8.388   1.300  0.1683  0.4256 -0.1959
17479W        W35003  12.915   4.294  13.589  0.0677  0.1291 -0.1099
17480W        W35004  13.464   1.835   2.609 -0.1045  0.0060  0.0311
17481W        W35005  11.205  15.826  13.899  0.0774 -0.3349 -0.0781
17482W        W35006  10.080   7.951  11.764 -0.0768 -0.0962 -0.3698
17483W        W35007  12.554   5.740  12.366  0.0841 -0.2923 -0.0031
17484W        W35008   9.028  14.669  13.596  0.0483  0.0800  0.0459
17485W        W35009  17.233  15.365   4.021  0.0233 -0.1470  0.1059
17486W        W35010  14.436   5.821   0.524  0.3296  0.0930  0.1259
17487W        W35011  15.904  14.873   2.262  0.0052 -0.0879 -0.2603
17488W        W35012   0.918   4.499   0.492 -0.2285  0.0077 -0.3115
17489W        W35013   3.789   1.730  11.343  0.0389  0.3617 -0.2677
17490W        W35014  16.291  11.231  13.542 -0.0117 -0.0011 -0.1350
17491W        W35015  15.954   7.818   3.433 -0.1077  0.0248 -0.0529
17492W        W35016  16.036  15.872  13.834  0.2898 -0.0778  0.0303
17493W        W35017   9.322   0.551   4.084  0.1910  0.2624 -0.1744
17494W        W35018  14.919  15.377  10.395  0.3344  0.0115  0.0179
17495W        W35019  12.585   6.293  11.531  0.0744 -0.2824 -0.0966
17496W        W35020   6.556  18.386  13.175 -0.2889  0.0042  0.1791
17497W        W35021   2.094   9.722  13.090 -0.2283 -0.4128  0.0536
17498W        W35022   9.362   7.421  13.224  0.2856 -0.1231  0.3601
17499W        W35023   1.948   5.226  11.093  0.3311 -0.3149 -0.3635
17500W        W35024  12.536  13.495  14.478 -0.0588 -0.0911 -0.3305
17501W        W35025  12.434   1.961   0.180 -0.0442 -0.2098 -0.2057
17502W        W35026  13.558   0.580  13.906 -0.0181 -0.3078 -0.1318
17503W        W35027  18.154  10.618   2.683 -0.1700  0.0304 -0.0934
17504W        W35028  15.465  10.410   1.335 -0.0056  0.0118  0.0084
17505W        W35029   9.313   6.624   2.651  0.1904 -0.3298 -0.0873
17506W        W35030   9.981  14.006   0.446  0.0236  0.0355 -0.2017
17507W        W35031  16.960   8.083   4.321  0.1609  0.1514  0.1126
17508W        W35032  10.560  12.290   2.639  0.0540  0.3479  0.0055
17509W        W35033  12.097  14.350   1.339  0.3145 -0.0029 -0.3587
17510W        W35034  16.201   1.729  15.656  0.1565  0.0484  0.0554
17511W        W35035   6.677   3.115  12.602  0.0058  0.0012  0.1850
17512W        W35036   9.751   2.485   1.687 -0.1370  0.0010  0.0900
17513W        W35037  10.848  13.594   0.824  0.1772  0.2269  0.5399
17514W        W35038   3.684   5.832   0.358 -0.1674 -0.2144  0.0620
17515W        W35039   0.300  10.326  13.661  0.0757  0.0118 -0.0563
17516W        W35040   8.841   2.628  12.469  0.2172 -0.0485 -0.2279
17517W        W35041   4.911  10.921   4.546  0.1826  0.1785  0.0525
17518W        W35042  17.654   2.993  11.073 -0.4483 -0.0611 -0.1040
17519W        W35043  11.270  17.904  13.979 -0.2499 -0.0551  0.2998
17520W        W35044   2.421   5.919   3.778  0.0231 -0.0960  0.4106
17521W        W35045  17.519  11.046   2.401  0.1332 -0.0022 -0.1088
17522W        W35046  17.607  15.477  11.760  0.0730 -0.3432  0.0824
17523W        W35047  15.832  16.136   0.366  0.1826  0.2941  0.0709
17524W        W35048  17.018   9.225   3.550 -0.2689 -0.3873  0.1696
17525W        W35049  12.054  12.247   2.971  0.1313  0.0025 -0.0724
17526W        W35050   5.443  13.636  11.069 -0.1034  0.1325 -0.0357
17527W        W35051   2.006  12.182   4.462  0.0887 -0.1779  0.2604
17528W        W35052   9.127  13.442   1.546 -0.2804 -0.1055 -0.3971
17529W        W35053   4.780   3.688  13.953 -0.2181 -0.2128  0.2446
17530W        W35054  12.225  18.250  11.965  0.0085  0.0456  0.2143
17531W        W35055   8.266  14.154  15.029  0.2454 -0.1444  0.1009
17532W        W35056   6.366   5.295  14.764 -0.1998 -0.0001 -0.0013
17533W        W35057  14.440   0.197   3.687 -0.2315  0.2466  0.1752
17534W        W35058  11.327  17.681  14.727 -0.0356  0.2372  0.1807
17535W        W35059  15.843   2.011   4.783 -0.1611  0.1500  0.1646
17536W        W35060   1.162  10.886   3.935 -0.0301  0.3186 -0.1689
17537W        W35061   5.842  12.549  13.523  0.0188  0.0465 -0.1069
17538W        W35062   4.295  13.418  13.085  0.0435 -0.2126  0.0854
17539W        W35063   0.803  11.026  15.791  0.0069 -0.0627  0.5491
17540W        W35064  15.404  18.069   4.380  0.1884  0.0678 -0.0689
17541W        W35065   3.524   2.856   1.560  0.1094 -0.0655  0.3585
17542W        W35066  10.436  18.274  14.119  0.1352 -0.0317  0.3036
17543W        W35067  10.486  15.830  15.416  0.1749  0.0937 -0.0318
17544W        W35068  15.357   3.345  15.296  0.1070  0.1494 -0.2754
17545W        W35069   0.589   2.837   3.956 -0.0165 -0.0232  0.4749
17546W        W35070   1.611  10.109  10.335  0.2983  0.0755 -0.1890
17547W        W35071   5.240   2.592   2.527  0.0205  0.0454  0.1264
17548W        W35072   4.883   1.184  13.503  0.1181  0.1806 -0.0560
17549W        W35073  15.992   4.493   1.632  0.2610 -0.3415  0.0097
17550W        W35074   8.699   0.161   4.872 -0.2751 -0.2928 -0.1270
17551W        W35075   7.764   2.893  11.760 -0.0282 -0.0194 -0.2515
17552W        W35076   0.617   6.038  14.924 -0.1752 -0.1112  0.2740
17553W        W35077   8.208   8.420  10.806  0.1391  0.1130 -0.0718
17554W        W35078  13.791   9.466  10.005 -0.0220  0.1397 -0.3040
17555W        W35079   1.871  16.949  10.626 -0.2366  0.1245 -0.2734
17556W        W35080  11.935   1.398   4.323 -0.0884  0.4380  0.2767
17557W        W35081  14.215  17.183   1.686 -0.0344  0.1566 -0.0546
17558W        W35082   0.079  13.555  14.372  0.2087 -0.2529  0.1047
17559W        W35083   9.731   9.654   4.582  0.4050  0.0514 -0.1347
17560W        W35084  11.318  15.852   4.837  0.0044  0.2936  0.0399
17561W        W35085  17.298   0.610   0.081  0.4005 -0.3392 -0.0350
17562W        W35086  15.079  18.295  11.146  0.0937 -0.1033 -0.1627
17563W        W35087   8.417  12.937  10.153  0.1770 -0.1384  0.2599
17564W        W35088   9.062  13.769  10.877 -0.0438 -0.1794 -0.0924
17565W        W35089   1.661   3.179  12.316 -0.1349 -0.0133 -0.0713
17566W        W35090  10.463   4.008  12.193  0.2416  0.0905 -0.1618
17567W        W35091   5.105   5.518  11.282  0.0862 -0.0665  0.0753
17568W        W35092  10.953  15.390   0.412  0.0486  0.1556  0.0640
17569W        W35093   9.902  11.702  11.813 -0.0848 -0.0227 -0.0459
17570W        W35094   2.817   6.406   1.903  0.2408  0.0795  0.1798
17571W        W35095   9.121   3.572   3.924 -0.3410  0.1839  0.0025
17572W        W35096   4.032   7.174  11.081 -0.3239  0.2728 -0.1385
17573W        W35097   4.563  14.338  10.599 -0.0683 -0.0669 -0.2027
17574W        W35098   7.644  11.861   2.912 -0.2194  0.0077  0.2842
17575W        W35099   7.755  14.174  12.413 -0.0052  0.1144  0.0813
17576W        W35100  17.897   1.138   4.224 -0.0817 -0.0974 -0.0490
17577W        W35101  14.050   9.033   4.300 -0.2112 -0.1667  0.3015
17578W        W35102  16.944  17.574  13.810 -0.0891 -0.0987  0.0288
17579W        W35103  10.973   4.426  15.069 -0.1467 -0.2519  0.1956
17580W        W35104   6.510  10.501   1.768 -0.2043  0.1514  0.0754
17581W        W35105  11.891   7.040   2.289 -0.2758  0.0937  0.0454
17582W        W35106   5.628   2.190   2.432  0.0405 -0.1334  0.2545
17583W        W35107  10.380   8.694   1.956 -0.1495  0.0045  0.2619
17584W        W35108   6.453  13.779   2.642 -0.1599  0.0285 -0.2158
17585W        W35109  13.106   0.857  13.192 -0.0703 -0.3438 -0.1297
17586W        W35110   7.852  18.159  13.602  0.1721 -0.0693  0.0621
17587W        W35111  12.577  14.450   4.646 -0.1520 -0.1755  0.0903
17588W        W35112   7.760  12.653   4.199 -0.2170 -0.0361 -0.2921
17589W        W35113  10.143   2.994  13.936  0.1192 -0.0372  0.4015
17590W        W35114  11.809   4.823  10.964 -0.1937 -0.0688  0.0249
17591W        W35115  14.473   0.077   0.751 -0.2087 -0.3717 -0.0146
17592W        W35116   6.188  14.317   0.153 -0.1470 -0.2046  0.0878
17593W        W35117  12.316   7.571   4.664  0.0157  0.0348  0.0172
17594W        W35118  13.561  16.633  11.872  0.1851  0.1764  0.1510
17595W        W35119   0.996  15.428  13.187 -0.0479  0.0176 -0.2868
17596W        W35120  14.296   5.340   5.015  0.1804 -0.1213  0.1417
17597W        W35121   1.670  16.924   0.124 -0.0638 -0.0211  0.0618
17598W        W35122  12.360   4.062  13.794 -0.3692 -0.3495  0.2125
17599W        W35123   2.276   2.274  15.565 -0.2083 -0.2308 -0.1120
17600W        W35124   0.191  11.125  10.828  0.0336 -0.1866 -0.1373
17601W        W35125  12.364   1.350  12.046 -0.1347  0.0423  0.1375
17602W        W35126  10.208  14.416  12.554  0.1859 -0.0885  0.0461
17603W        W35127  16.715   5.570  11.860 -0.3554  0.1678 -0.0862
17604W        W35128   5.367   1.690  12.151 -0.0651 -0.0346  0.1822
17605W        W35129   2.231   3.992  14.288 -0.2947  0.0035  0.0950
17606W        W35130   9.375  18.293   3.316 -0.2924  0.2109  0.1305
17607W        W35131   8.428   1.469   4.352 -0.2540  0.1330 -0.0697
17608W        W35132   4.818  18.145   1.758 -0.2267  0.0755  0.0818
17609W        W35133  13.140  10.983  12.219  0.0208  0.0847  0.0413
17610W        W35134   7.089  17.210   5.367 -0.1092  0.0281 -0.0862
17611W        W35135  17.306  12.167   4.025  0.0825  0.1097 -0.1403
17612W        W35136   4.341   5.683   1.330 -0.1741 -0.1617 -0.0930
17613W        W35137  11.339  18.058  12.872  0.0560  0.1784  0.0812
17614W        W35138   0.956   3.696   3.147  0.2187  0.0991  0.0624
17615W        W35139  10.421   4.294  11.416 -0.1014 -0.1954  0.2011
17616W        W35140  12.076   5.650   2.265  0.1757 -0.1037 -0.1367
17617W        W35141   1.575  16.988  13.283 -0.0568 -0.1837 -0.0182
17618W        W35142   5.129  14.949  10.891  0.1133  0.1830 -0.0017
17619W        W35143  10.593  16.502   5.119 -0.1002 -0.0241  0.0378
17620W        W35144   5.978   1.991  11.398  0.2455 -0.3516 -0.0505
17621W        W35145   3.503  10.113  13.466 -0.4114 -0.2681  0.1329
17622W        W35146   1.956   6.558  11.200 -0.1270  0.2364 -0.2879
17623W        W35147  13.243   7.257   0.803  0.1105  0.3019  0.0135
17624W        W35148   4.897  17.957  15.241  0.0267  0.1379  0.0309
17625W        W35149  18.311   6.196  14.079  0.0555  0.2723 -0.1957
17626W        W35150   7.613  14.403   3.578 -0.2466  0.0134  0.1843
17627W        W35151   9.068  18.170  14.509 -0.1539  0.0588 -0.2935
17628W        W35152  14.883   0.634  15.254  0.3619  0.0015  0.1617
17629W        W35153  12.729   7.707  14.163 -0.1741 -0.1444 -0.0682
17630W        W35154  10.683  16.375   3.596  0.2210 -0.1811 -0.1176
17631W        W35155   8.029   3.897   3.875 -0.0748  0.0112 -0.0178
17632W        W35156  11.567   4.549  14.337 -0.3050  0.1433  0.0215
17633W        W35157   1.472  12.959   0.562 -0.0150 -0.1636  0.0600
17634W        W35158   8.279  14.717   4.773  0.0629 -0.0329 -0.4457
17635W        W35159  12.636  14.194   2.578 -0.3835  0.1463 -0.0050
17636W        W35160   5.374   2.428  11.848 -0.2452 -0.0935 -0.0089
17637W        W35161   4.387   1.209   3.445 -0.0965  0.4195  0.4035
17638W        W35162  14.992  11.994   4.258 -0.2260  0.2594  0.0057
17639W        W35163  17.595  15.529   0.506 -0.0887 -0.1125  0.0236
17640W        W35164   3.914   8.903  13.667 -0.2339  0.1755 -0.1109
17641W        W35165  17.077   1.814   0.106  0.1249 -0.1205 -0.2387
17642W        W35166  10.911   6.047   4.024  0.2521  0.2378 -0.2769
17643W        W35167  16.765  14.158   0.227  0.3374 -0.2346  0.0527
17644W        W35168   9.256  10.094   3.856  0.2306 -0.2300  0.3686
17645W        W35169   6.073  16.484   3.976  0.5266 -0.4144  0.0874
17646W        W35170   9.310   1.270  12.993 -0.0874 -0.4211  0.0393
17647W        W35171   5.297   2.190   3.945  0.0414  0.2113  0.1715
17648W        W35172  10.312  17.594   2.625  0.2159  0.1218 -0.0219
17649W        W35173  14.468   8.188   3.203  0.0110  0.1677 -0.2506
17650W        W35174   4.151  13.154  11.043 -0.0258 -0.0451 -0.4935
17651W        W35175   6.827  13.491  12.278 -0.1719 -0.0310  0.2348
17652W        W35176   5.683   7.377   1.497  0.0945 -0.1082 -0.2625
17653W        W35177  16.515  15.165   2.584  0.0777  0.1258  0.1287
17654W        W35178   2.722   4.467  13.616 -0.0099 -0.1084 -0.2595
17655W        W35179   6.146  10.397   4.367 -0.0627  0.1023 -0.0624
17656W        W35180   8.242   2.450  11.307  0.0053 -0.1284  0.0461
17657W        W35181   2.760   5.358   2.595  0.1954  0.2018  0.1208
17658W        W35182   2.816  11.970  12.080 -0.0170  0.1476  0.0898
17659W        W35183  17.045  17.863   0.722  0.2397 -0.0183 -0.0686
17660W        W35184  14.854  10.118   2.366 -0.3336  0.0420 -0.0152
17661W        W35185  11.199  10.358   2.502 -0.3721 -0.0411 -0.1084
17662W        W35186   5.059   4.278   4.210  0.0340 -0.0939  0.0496
17663W        W35187  14.373   6.902  14.472  0.3907  0.1068 -0.0886
17664W        W35188   0.396   6.099   9.738  0.4081  0.1353  0.1111
17665W        W35189  18.307   2.120   1.136 -0.1435 -0.2442  0.0492
17666W        W35190   4.104   9.534   4.963 -0.1310 -0.0642  0.0747
17667W        W35191   6.064  12.844  13.114  0.1065 -0.0555 -0.1588
17668W        W35192   0.390   0.265  10.348 -0.1531  0.0607 -0.1291
17669W        W35193   1.778   9.573  11.661  0.1374  0.1731 -0.0903
17670W        W35194  11.751   1.944  13.271  0.2083 -0.0483  0.0571
17671W        W35195  16.148  16.170  12.659 -0.0304 -0.5261 -0.1101
17672W        W35196  16.421   2.436   5.428  0.0923 -0.1486 -0.0045
17673W        W35197  11.844  14.787   3.468  0.0164  0.0795 -0.0233
17674W        W35198   9.242   2.625   3.693 -0.0696  0.3435  0.1314
17675W        W35199  14.532   9.412   2.929 -0.0714 -0.1266 -0.2912
17676W        W35200  10.940   2.251   4.463  0.2027  0.2865 -0.0308
17677W        W35201  17.875  13.055   2.003  0.0818  0.0334  0.1409
17678W        W35202  14.748  17.145   5.011 -0.1280 -0.0911  0.2171
17679W        W35203   9.701   8.095   3.165  0.1183  0.0981 -0.2236
17680W        W35204  12.416  12.863   1.924  0.0456  0.5336 -0.1219
17681W        W35205  13.019   9.923   2.275  0.0193 -0.1314  0.1043
17682W        W35206  16.849  16.701   1.534  0.0941 -0.1178  0.1136
17683W        W35207  17.283   4.864  11.187 -0.0006 -0.0338 -0.4651
17684W        W35208  10.955  15.433   2.187 -0.2924 -0.0202 -0.1563
17685W        W35209   5.482   4.819  13.570  0.1212 -0.0290  0.1258
17686W        W35210   4.405  16.329   1.595  0.0265  0.1491  0.0183
17687W        W35211   2.486  16.545  14.751 -0.0422 -0.1008  0.0430
17688W        W35212  10.571  13.139   5.105  0.2795 -0.0825 -0.1734
17689W        W35213   8.126  15.579   2.955 -0.0895  0.0221  0.2412
17690W        W35214  16.876   5.211   2.268 -0.0441 -0.2219  0.0470
17691W        W35215   4.796   4.373   1.704  0.1206  0.1213  0.0177
17692W        W35216   7.197  17.325  11.069  0.1582  0.3440  0.2866
17693W        W35217  16.538   7.817   2.576 -0.3271  0.1731  0.1791
17694W        W35218   9.482   7.529   4.219  0.0322 -0.1923 -0.2819
17695W        W35219  16.520  16.828   4.131  0.1992  0.0283 -0.1205
17696W        W35220  14.117   3.940  11.789 -0.1097 -0.0496 -0.0696
17697W        W35221   5.904   3.507  11.268 -0.0892 -0.1894  0.1015
17698W        W35222   9.848   1.215   3.474  0.3325  0.1322  0.2103
17699W        W35223   3.142  17.825  12.355  0.2534 -0.3626  0.0189
17700W        W35224  17.316   7.317  11.440  0.0805  0.0337 -0.0383
17701W        W35225  17.119   7.730  13.753 -0.0169  0.4721  0.1327
17702W        W35226   9.015   9.774   0.152  0.1654  0.0381 -0.1455
17703W        W35227   3.670   3.236   0.878 -0.2708  0.0757  0.2545
17704W        W35228   0.694  15.008  13.818 -0.0143 -0.4259  0.0285
17705W        W35229   3.396   5.617   1.034 -0.0304 -0.1208 -0.1432
17706W        W35230  11.311  12.115   3.453  0.3788  0.0179 -0.1643
17707W        W35231  18.076  13.143  13.751 -0.0341  0.0000  0.3098
17708W        W35232   8.780  13.008   1.475 -0.0148  0.0815  0.2110
17709W        W35233   1.633   4.460  15.450 -0.0079 -0.2086 -0.1067
17710W        W35234   2.555  12.224   2.189 -0.2581  0.0042  0.0470
17711W        W35235  15.790   4.702  15.193 -0.1026  0.0021 -0.3042
17712W        W35236  16.279  16.533   3.747  0.2237  0.2027  0.1575
17713W        W35237  10.377   1.585   1.819  0.0322  0.3518  0.0681
17714W        W35238   1.139   7.268  14.234 -0.3612 -0.4028 -0.1331
17715W        W35239   9.931   7.795   0.532  0.2413 -0.0706 -0.1184
17716W        W35240   9.032   4.646  11.577  0.2705 -0.0459 -0.2425
17717W        W35241   1.020   1.900   1.521  0.0805 -0.1950  0.2589
17718W        W35242  16.818  10.669   2.129 -0.3188 -0.2405 -0.2728
17719W        W35243  16.481   5.575   1.346 -0.0276 -0.0393 -0.3699
17720W        W35244   2.649  18.159  10.938 -0.2289 -0.2516 -0.0119
17721W        W35245  14.016   6.224  15.726  0.1519  0.1385  0.0359
17722W        W35246   1.100   2.538  11.265 -0.2374  0.0403  0.0881
17723W        W35247  15.814  13.373   2.692  0.2799  0.1434 -0.3120
17724W        W35248  11.709   8.008  15.129 -0.2164  0.0252  0.2457
17725W        W35249  17.885   3.083  13.444  0.1505 -0.0445  0.2057
17726W        W35250  12.088  17.068  14.617 -0.0451 -0.1304  0.1548
17727W        W35251  14.718  13.390   4.028  0.1944 -0.2597  0.0420
17728W        W35252  16.103   5.179  10.973 -0.1985 -0.1042 -0.0125
17729W        W35253   6.466  14.580  15.544 -0.3068 -0.1192  0.0050
17730W        W35254   4.310   0.938   4.676  0.2357 -0.0558 -0.0156
17731W        W35255   8.733  16.894   1.709 -0.3453  0.1059  0.0719
17732W        W35256   1.901   0.837  11.528  0.0474 -0.1207 -0.0139
17733W        W35257  13.620   7.903  12.267 -0.3695  0.0029 -0.3198
17734W        W35258  13.162  13.968   2.568 -0.3784 -0.4348 -0.0788
17735W        W35259  17.371   5.455  13.863 -0.1846 -0.3263  0.2354
17736W        W35260  16.619  14.164   3.491 -0.1038  0.1743 -0.3424
17737W        W35261   7.924   2.523  14.729  0.0603 -0.1235 -0.0690
17738W        W35262   4.515   9.115  13.194  0.1117  0.2343  0.0618
17739W        W35263   1.684   1.927   2.421  0.1751  0.3070  0.3605
17740W        W35264   9.665   3.051  13.138 -0.0057  0.1349  0.0814
17741W        W35265   0.280  18.185  14.730  0.1211 -0.2118 -0.0639
17742W        W35266   8.358  15.950   3.766 -0.0819  0.0846  0.0046
17743W        W35267   6.595   8.430  12.927  0.1863 -0.1184 -0.2496
17744W        W35268   6.009  12.799   4.033 -0.2117 -0.2103  0.0144
17745W        W35269  15.131   7.831   4.875  0.1681  0.0275  0.1259
17746W        W35270  10.433   8.559   2.663 -0.0755 -0.0114 -0.1805
17747W        W35271  11.742   4.983   1.298 -0.1487  0.0802 -0.0347
17748W        W35272  12.709   8.162   2.616 -0.0270  0.2307 -0.1820
17749W        W35273  13.970  15.107   5.778  0.1045 -0.1516 -0.1358
17750W        W35274   4.665  16.193   2.061 -0.0678  0.1271  0.3465
17751W        W35275  13.677  10.878   6.221 -0.1044 -0.2451  0.0910
17752W        W35276   7.232   6.134   0.394 -0.2326 -0.3697 -0.0677
17753W        W35277   3.066   3.790   3.825 -0.3857  0.1749  0.2258
17754W        W35278   2.755  18.107   1.830  0.1206 -0.1103 -0.1911
17755W        W35279   2.988  15.659   1.553  0.0687 -0.0962  0.1130
17756W        W35280  14.746   4.047  15.389  0.1059 -0.1510  0.1922
17757W        W35281   4.673   6.783  13.781 -0.0930  0.0608 -0.0417
17758W        W35282   6.516   0.201  15.159 -0.1651  0.1459 -0.2165
17759W        W35283   7.808   8.633   1.523  0.0039 -0.0955 -0.0175
17760W        W35284  17.331   1.945   4.098 -0.1505  0.2999 -0.0271
17761W        W35285   9.540  10.914   4.236  0.0896  0.1940  0.2163
17762W        W35286  18.306   0.394  12.004  0.2260 -0.2409  0.1461
17763W        W35287  17.505  13.825  11.238 -0.3364 -0.2005 -0.0621
17764W        W35288   3.692   6.537   0.795 -0.0805  0.1342 -0.0362
17765W        W35289   5.848  13.571   1.919  0.1498  0.2467  0.2222
17766W        W35290   4.560   8.676   1.342 -0.1542  0.0800 -0.1414
17767W        W35291   9.110   7.720   5.863  0.0825 -0.2416 -0.2762
17768W        W35292  18.051   1.133  11.279  0.2448 -0.1447  0.1805
17769W        W35293   0.827   5.218  10.981  0.4315  0.2431 -0.0979
17770W        W35294   9.110   1.199   1.667  0.0594 -0.0990  0.1056
17771W        W35295  17.877  10.235  10.582 -0.1695  0.1188  0.4658
17772W        W35296  12.832   4.804   0.969 -0.3940  0.0703 -0.0346
17773W        W35297   2.644   7.742   3.304  0.2971 -0.0716  0.3736
17774W        W35298  12.834   9.607   5.059  0.1271  0.2682 -0.2844
17775W        W35299  16.829  15.975   3.000  0.1610 -0.3028 -0.0970
17776W        W35300   7.492  11.812   4.248 -0.0936 -0.2599  0.1934
17777W        W35301  14.438  15.129  11.208  0.0058 -0.1569 -0.0588
17778W        W35302  12.152   1.762  14.191 -0.0105 -0.3276 -0.0742
17779W        W35303  13.785  11.627   2.516 -0.0729 -0.0008  0.3809
17780W        W35304  12.879  17.726   1.239 -0.1492 -0.1072  0.0777
17781W        W35305  10.855   8.786  14.716  0.1142  0.2977  0.2561
17782W        W35306  15.037   3.153  14.989 -0.3472  0.1629  0.1579
17783W        W35307   4.129   7.605   0.773  0.1324  0.0334  0.0787
17784W        W35308  12.639   5.586  15.427  0.0892 -0.1277  0.2074
17785W        W35309  11.249   6.337  13.279  0.3698  0.4026 -0.0847
17786W        W35310  14.676  16.360   1.409  0.0316  0.0975  0.1999
17787W        W35311   8.410   0.010  12.390  0.0111 -0.0814 -0.0706
17788W        W35312  12.909   4.992  11.917  0.3522 -0.0778 -0.1069
17789W        W35313   0.287  14.302  15.472  0.2084 -0.1123 -0.0789
17790W        W35314   6.047   6.906   3.026  0.1602 -0.0470  0.0246
17791W        W35315   2.019  11.176  12.514 -0.1295 -0.2079  0.5131
17792W        W35316   0.049   3.203  14.668  0.0965 -0.1621 -0.0950
17793W        W35317   0.382  13.567   0.646 -0.1646  0.0812  0.2612
17794W        W35318   2.905   9.304  15.780  0.2020 -0.0901  0.5946
17795W        W35319   1.096  12.660  14.420  0.1424 -0.0466  0.0618
17796W        W35320  12.934   7.882   2.969 -0.0560 -0.1246 -0.0297
17797W        W35321   8.739  11.234   1.124 -0.2118  0.0731  0.0414
17798W        W35322   9.912  14.327  12.135 -0.3086  0.1583  0.2881
17799W        W35323   1.092   9.120   1.296  0.0448 -0.2255  0.1054
17800W        W35324  16.941  12.733   2.221  0.0200 -0.0817  0.1599
17801W        W35325   0.097   3.166   3.485  0.1040 -0.3138 -0.1765
17802W        W35326   4.719   6.897   0.704  0.0510 -0.0139  0.1196
17803W        W35327  11.466   8.051   4.519 -0.1489  0.2671  0.0522
17804W        W35328  13.932   6.999  15.591 -0.1626 -0.3889  0.2211
17805W        W35329   6.313  16.098  11.551 -0.0503  0.5173 -0.1106
17806W        W35330  17.315  13.309  12.104 -0.0334 -0.0188 -0.0122
17807W        W35331   1.457  12.917  13.428  0.2537 -0.0218  0.0083
17808W        W35332   1.991   7.694  11.584  0.1541  0.1818  0.3168
17809W        W35333   0.324  15.821   2.629  0.0885  0.0062  0.1244
17810W        W35334   5.540   4.302  10.974  0.0065 -0.0555  0.2560
17811W        W35335   0.518   3.682  12.786 -0.1457 -0.2304  0.0440
17812W        W35336  12.820   0.773  11.661  0.2580  0.2723 -0.0798
17813W        W35337  10.281   8.203   0.914  0.2547  0.1325  0.2204
17814W        W35338   3.444   2.158  14.894  0.2774  0.1513  0.1074
17815W        W35339   3.354   6.575  13.184 -0.0799 -0.1218  0.1255
17816W        W35340  16.739   3.403   2.789  0.2834  0.1138 -0.0737
17817W        W35341   3.801   6.379  15.422 -0.1066  0.1442 -0.1832
17818W        W35342   6.545   0.403  12.277  0.1857  0.1341 -0.1601
17819W        W35343   1.023  12.676   1.330 -0.0712 -0.0788  0.1683
17820W        W35344   4.490   1.249  11.832  0.1172  0.0638 -0.4736
17821W        W35345   5.161  13.115  15.716  0.2231  0.3320  0.0360
17822W        W35346  17.740  15.521  12.923 -0.2467  0.0618 -0.0557
17823W        W35347   4.986  16.860  13.418  0.0093 -0.0135  0.0007
17824W        W35348   6.312  11.175   4.695  0.0542 -0.0177 -0.2322
17825W        W35349  17.885   6.754   4.579 -0.3348  0.1234 -0.2617
17826W        W35350  12.644   1.121  15.576  0.3403 -0.1072  0.1089
17827W        W35351   9.475   9.103  13.522 -0.0977 -0.4328 -0.5732
17828W        W35352   6.239   9.321   0.405 -0.0430 -0.1908 -0.0651
17829W        W35353  13.554   9.814   0.438 -0.1715 -0.0953  0.2757
17830W        W35354  11.357   4.318   4.887  0.2236  0.2335 -0.0854
17831W        W35355   5.401   8.180  11.512  0.1674 -0.3172  0.1257
17832W        W35356  13.545   8.435   4.744 -0.1374  0.0547 -0.1161
17833W        W35357   8.624  12.339  13.015  0.0790 -0.1878 -0.2161
17834W        W35358   7.930   3.280   4.679 -0.0830 -0.2600  0.4621
17835W        W35359   2.736  18.273   1.101 -0.0950  0.0738 -0.0322
17836W        W35360  12.166   7.311  14.732  0.1068 -0.4926 -0.2667
17837W        W35361  12.115  12.971  15.741 -0.1734 -0.4229  0.1177
17838W        W35362  15.119   6.655   1.788  0.1383 -0.0996  0.0196
17839W        W35363   0.637  14.011   2.662 -0.5640  0.0937  0.0236
17840W        W35364   0.446  17.712  14.843 -0.1396  0.0293  0.1961
17841W        W35365   2.898   5.638  10.693  0.2182  0.1789 -0.2354
17842W        W35366   6.595  13.513   3.490 -0.0806 -0.2904 -0.1726
17843W        W35367  17.884  15.121  13.439  0.0264 -0.3140  0.0960
17844W        W35368  15.107   3.251  10.998 -0.0797 -0.3454  0.0974
17845W        W35369  10.588  13.469   4.092 -0.0829  0.2926  0.1620
17846W        W35370   8.105  15.859  12.010 -0.1755 -0.1531  0.0475
17847W        W35371  11.627  18.114  11.971  0.2091  0.3168 -0.4256
17848W        W35372   7.173  12.601   3.166  0.0777  0.1414 -0.3783
17849W        W35373   7.569  10.839  15.220  0.0026 -0.1195 -0.0512
17850W        W35374   5.424  12.695  11.306 -0.0244  0.0441 -0.0459
17851W        W35375   0.107  11.765   0.793 -0.1899 -0.2333 -0.3745
17852W        W35376   3.188   2.547  11.353 -0.3808 -0.2355 -0.0855
17853W        W35377   3.769  15.509  12.766 -0.1725  0.1133  0.0229
17854W        W35378  12.016   1.833  12.261 -0.1290  0.1599 -0.0952
17855W        W35379   8.897   4.063   1.274  0.2524  0.1246 -0.1847
17856W        W35380  13.506   7.841  13.600 -0.1136 -0.1505  0.2210
17857W        W35381  14.722  15.738  15.383 -0.0259  0.5484 -0.0625
17858W        W35382   9.142  17.429   3.284 -0.2448  0.0225 -0.0063
17859W        W35383  13.649  15.883   0.330 -0.0237 -0.3070 -0.1169
17860W        W35384   3.763   9.613   3.479  0.1783  0.1554 -0.0611
17861W        W35385  15.031   7.576  14.617  0.1236 -0.2501  0.0547
17862W        W35386   7.462  17.568   2.085  0.0684 -0.0476 -0.1204
17863W        W35387   3.773  15.385   0.823 -0.1168 -0.1241 -0.0785
17864W        W35388  13.184   9.513   3.644 -0.0846  0.0524  0.1341
17865W        W35389  11.758   5.070  13.311  0.3406  0.0961  0.0049
17866W        W35390   3.865  13.505  15.447 -0.0106  0.1673 -0.1363
17867W        W35391   4.143  16.773   9.841  0.1771 -0.1680 -0.2399
17868W        W35392  15.468   6.159   0.393 -0.2395  0.3545 -0.3220
17869W        W35393   1.166   2.829   2.305 -0.1264  0.3075  0.0793
17870W        W35394  15.028  14.333   4.060 -0.1529 -0.0374  0.1462
17871W        W35395   9.932   2.109  11.272 -0.2507  0.0136 -0.1506
17872W        W35396  12.405  13.737   4.198  0.2110 -0.2407  0.1092
17873W        W35397   1.626   8.459  11.025 -0.0049  0.1973  0.0933
17874W        W35398  16.253  14.434   3.255  0.1197  0.0936  0.1553
17875W        W35399  10.056  14.825   0.233  0.3672 -0.0338  0.2519
17876W        W35400   8.181  17.187   0.298 -0.0870  0.1957  0.3161
17877W        W35401   0.958  11.699  12.615  0.0795 -0.1822  0.2009
17878W        W35402   9.224  13.549   0.009 -0.0419  0.0761  0.0489
17879W        W35403   0.588   0.648  11.686  0.0419 -0.1088  0.1919
17880W        W35404  10.307  16.207  14.288 -0.1610  0.0624 -0.1546
17881W        W35405   1.585  16.841   1.606 -0.0138 -0.2145 -0.0342
17882W        W35406   2.780  10.686  11.190  0.5469 -0.1392  0.2516
17883W        W35407   1.376   4.766  14.956 -0.0802 -0.0490 -0.0675
17884W        W35408   4.546   0.233  12.713  0.3124  0.2402 -0.1836
17885W        W35409   3.165  11.150   3.576  0.0036 -0.1612 -0.1532
17886W        W35410  16.978  15.345   4.711  0.1089  0.3656 -0.1192
17887W        W35411   2.803  13.518   2.465 -0.2474  0.0778  0.3928
17888W        W35412  14.568  10.927   4.591  0.0685  0.1052 -0.0734
17889W        W35413  16.243  14.216   1.473  0.2474 -0.1608 -0.0159
17890W        W35414  12.449  15.349  11.252 -0.1329  0.0188 -0.0734
17891W        W35415   2.524   1.931  15.855 -0.4950  0.1928 -0.0762
17892W        W35416  10.300  15.235   1.598  0.0188 -0.1397 -0.0318
17893W        W35417   6.068   9.628   1.398  0.0443  0.1852  0.1586
17894W        W35418  14.087   4.154  10.838  0.2529 -0.2593 -0.0070
17895W        W35419  14.910  14.369  15.254  0.0417 -0.1138 -0.1010
17896W        W35420  12.207   6.675  13.786 -0.0466  0.0125 -0.0908
17897W        W35421  10.637   8.979   2.307  0.0680  0.0127 -0.0386
17898W        W35422   7.472   9.939  14.148 -0.2322 -0.0139 -0.3187
17899W        W35423  12.722   9.701  12.203  0.1233  0.2266  0.2066
17900W        W35424   8.415   9.575   2.306  0.2609  0.1544  0.2011
17901W        W35425   9.350  13.601   3.796 -0.3016  0.1362 -0.0836
17902W        W35426  11.588   3.576   3.539  0.1210 -0.0512  0.0104
17903W        W35427  14.069   4.668   4.330  0.1442 -0.0634 -0.2030
17904W        W35428   8.910  18.244   0.345 -0.0580 -0.0315 -0.0087
17905W        W35429   5.486  12.567   2.320  0.0361 -0.2710 -0.0835
17906W        W35430  10.152  17.841  15.563  0.2404  0.2390 -0.1551
17907W        W35431   1.434   9.444   1.418  0.0048  0.0600 -0.2244
17908W        W35432   2.365   4.122   0.173  0.2293 -0.0780  0.1163
17909W        W35433   1.224  12.648   1.843  0.2204  0.0211  0.0129
17910W        W35434   2.693   9.240  12.583 -0.2056  0.2415  0.1467
17911W        W35435  16.571   8.941  13.783 -0.1681 -0.4923  0.0662
17912W        W35436  10.703   1.026   1.085 -0.3643  0.3022 -0.2712
17913W        W35437   1.332   4.646  14.428 -0.3136 -0.0985  0.0188
17914W        W35438   3.886  13.610   3.860  0.0123  0.2849 -0.3758
17915W        W35439  14.297  11.280  14.677  0.1062  0.0423 -0.0405
17916W        W35440  10.718   2.252   0.173  0.0013 -0.0204 -0.0812
17917W        W35441  11.465   3.017   3.488  0.3448 -0.0562 -0.4629
17918W        W35442   9.628  15.136   2.736 -0.3764  0.1951  0.1485
17919W        W35443   2.067   8.737   5.215 -0.0202  0.0369 -0.2124
17920W        W35444  13.189   6.640   0.147 -0.1595 -0.3149 -0.0948
17921W        W35445   2.277   8.712   1.746  0.1358  0.0235 -0.0475
17922W        W35446   7.913  13.255  13.742  0.2115  0.1216  0.1929
17923W        W35447   9.404   8.306  14.686 -0.0262 -0.0586  0.1847
17924W        W35448  16.602   7.747  12.904  0.1849 -0.2864 -0.0770
17925W        W35449  14.395  14.368   4.757 -0.2106 -0.0671 -0.2892
17926W        W35450  10.048  14.491   5.274  0.0925 -0.1397  0.0853
17927W        W35451   8.699   0.766   3.003 -0.1129 -0.3072  0.1220
17928W        W35452   3.994  11.188  12.511 -0.4516  0.2514 -0.2022
17929W        W35453  17.711  13.952   1.816  0.2897 -0.1007  0.0697
17930W        W35454  15.023   9.246   4.234  0.0994 -0.2347  0.3215
17931W        W35455  13.803   3.487  10.904  0.1033  0.1283 -0.1672
17932W        W35456  16.122  13.910  13.000  0.2928 -0.4174  0.2867
17933W        W35457  17.186  11.234  11.916 -0.0815 -0.3682  0.1566
17934W        W35458   6.005  16.222   2.257 -0.1745  0.1081 -0.2881
17935W        W35459  10.460   2.554  14.287  0.1258  0.1757 -0.1967
17936W        W35460   1.625  15.388   2.756 -0.0304  0.0138 -0.0899
17937W        W35461  14.443  11.052   4.021 -0.0771  0.1187  0.0076
17938W        W35462   3.948   1.248   3.845  0.1457  0.1391 -0.4353
17939W        W35463   4.308   9.225  11.303 -0.2025  0.0676 -0.0820
17940W        W35464   5.915   6.326  15.055 -0.0424  0.2833 -0.1611
17941W        W35465   9.267  16.659   1.668  0.2510  0.0957  0.0245
17942W        W35466   3.246  11.788  11.252  0.0808  0.0767 -0.2235
17943W        W35467   4.347   4.604   1.429 -0.3348 -0.0813 -0.0377
17944W        W35468   8.182  16.708   3.463  0.1827 -0.0554 -0.0972
17945W        W35469  16.493   8.853   4.231 -0.0828 -0.2279  0.2485
17946W        W35470   6.324   8.127  12.315  0.1142 -0.0877  0.1050
17947W        W35471  17.643  14.742   0.307  0.0896 -0.0615 -0.2109
17948W        W35472  12.102  18.401   1.545  0.1814  0.2638  0.1685
17949W        W35473  18.049   9.318   4.178  0.0410  0.3197  0.2940
17950W        W35474   4.527   9.829  14.527 -0.0076  0.2063 -0.1454
17951W        W35475  16.148  15.892  15.001 -0.2166  0.3501 -0.0474
17952W        W35476   1.347  15.621  14.403 -0.1821 -0.2715  0.0659
17953W        W35477   5.771   8.158  12.036  0.2523 -0.0141  0.2205
17954W        W35478  13.614   3.817  12.098  0.0698 -0.3286 -0.3789
17955W        W35479   9.382  11.312  13.786 -0.4484 -0.1132 -0.1266
17956W        W35480   6.901   3.150   0.568  0.2470  0.0565  0.0177
17957W        W35481   8.128  18.063  12.646 -0.1746 -0.0113 -0.0716
17958W        W35482   4.682   3.756   3.646 -0.2540 -0.0047 -0.1185
17959W        W35483   0.444   8.989   2.309 -0.0782 -0.0598 -0.1408
17960W        W35484  14.616   7.748  11.012 -0.0350  0.1355  0.2294
17961W        W35485   9.954  13.078   3.244 -0.4569  0.1237  0.3319
17962W        W35486   8.433   2.255   3.808 -0.2234  0.1932 -0.1633
17963W        W35487  13.841  13.433  14.170 -0.1911  0.0732 -0.1446
17964W        W35488   7.934  10.574   1.510  0.1459  0.1530 -0.1295
17965W        W35489  12.906   4.969  14.301 -0.1865 -0.2005 -0.1815
17966W        W35490  17.300  10.829  12.714  0.0858  0.0593  0.2206
17967W        W35491   2.861   4.483  11.982 -0.5668 -0.1068 -0.0920
17968W        W35492  11.839   8.609  12.814  0.0101 -0.0984  0.2117
17969W        W35493   7.877   8.279   1.873 -0.0079 -0.3972 -0.0292
17970W        W35494   4.197  10.245  14.590 -0.0165  0.1199  0.4950
17971W        W35495   6.613   7.655  12.923  0.1551 -0.2944  0.2886
17972W        W35496   3.788  15.242  13.432 -0.0279  0.1254  0.1213
17973W        W35497   0.829   2.697  14.889  0.1456 -0.0406 -0.1166
17974W        W35498  11.359  12.288   3.907 -0.0839 -0.3004 -0.1323
17975W        W35499  17.779   0.274   0.083  0.1666  0.2017  0.2411
17976W        W35500   0.630   4.166  13.618  0.4975  0.3829  0.0193
17977W        W35501  13.262   9.133   0.571 -0.1365 -0.0127  0.0365
17978W        W35502  11.192   2.051  13.559  0.1167  0.0990 -0.0301
17979W        W35503   8.768   9.631  14.059  0.2095 -0.0443 -0.2521
17980W        W35504  14.007   8.968   3.092 -0.0136  0.0607  0.0379
17981W        W35505   9.557  12.310   4.865  0.0218 -0.4427  0.0272
17982W        W35506   3.896  16.191  10.858  0.0112 -0.3606 -0.2750
17983W        W35507   2.763  15.669  14.096 -0.1141  0.0993 -0.0487
17984W        W35508  15.923  12.608   5.515 -0.3342 -0.1239 -0.0227
17985W        W35509  12.324  16.213   5.159  0.1793 -0.0774  0.0570
17986W        W35510   3.587   4.731  14.134  0.2439  0.0272 -0.1198
17987W        W35511  17.542   3.586   4.385  0.0148  0.2514 -0.0171
17988W        W35512   0.615   0.738   4.779 -0.0703 -0.2107  0.0706
17989W        W35513   5.692   4.592  12.300 -0.2667 -0.2961 -0.0206
17990W        W35514  13.181   0.261  11.907  0.1147 -0.0952 -0.0658
17991W        W35515  16.127   6.331  15.480 -0.2043  0.3359 -0.1605
17992W        W35516   8.834   1.582   2.012 -0.0304  0.2926  0.2392
17993W        W35517   1.155   5.322  11.355 -0.0771 -0.3443 -0.0337
17994W        W35518  12.768   7.705   1.993 -0.0246  0.3787 -0.1123
17995W        W35519   1.478   0.953   0.293  0.0469 -0.4395 -0.1237
17996W        W35520  16.740  11.596   3.788  0.0031  0.0692  0.0500
17997W        W35521   6.177   7.333   2.102 -0.0358 -0.2519  0.3792
17998W        W35522  10.005   7.925   1.862 -0.2001 -0.0575 -0.1949
17999W        W35523  15.284  17.602   4.574  0.0145  0.4610  0.1916
18000W        W35524   4.818   2.495   2.094  0.1187 -0.2201  0.0058
18001W        W35525   5.844   8.966  15.575  0.1271 -0.2160  0.1041
18002W        W35526   4.441   6.688  11.296 -0.2025 -0.0512  0.1148
18003W        W35527   3.830   1.836  13.500 -0.0387 -0.2073 -0.0001
18004W        W35528   5.931   3.105  10.992 -0.2618 -0.1220 -0.0167
18005W        W35529  16.693  14.560  11.882  0.0877  0.0325 -0.1131
18006W        W35530  14.927   7.911   0.962 -0.2487  0.2249 -0.0474
18007W        W35531  17.446   0.895   4.066 -0.0149  0.0439  0.1887
18008W        W35532   5.813   7.468   4.111 -0.0921 -0.0800  0.0012
18009W        W35533  14.904  13.711  11.822  0.1638  0.0909 -0.0184
18010W        W35534   7.991   3.000   1.336  0.1524 -0.0122  0.0502
18011W        W35535  18.244   2.244   1.613  0.2447  0.0696 -0.3477
18012W        W35536   0.702  10.194  14.613 -0.3765 -0.2376  0.1328
18013W        W35537  14.510  10.035   1.968 -0.1278 -0.3411 -0.5124
18014W        W35538  10.575   9.337  13.894 -0.2248 -0.1310 -0.1840
18015W        W35539  14.438   4.594  12.633  0.0884  0.0250  0.0802
18016W        W35540  18.174   9.504  15.368 -0.2029 -0.2274  0.1032
18017W        W35541  13.373   2.899  12.241 -0.1355  0.0131 -0.0760
18018W        W35542   0.434  17.921  15.591 -0.1797 -0.1462 -0.1554
18019W        W35543   8.177  10.469   4.000 -0.3680  0.0089 -0.0618
18020W        W35544   3.058  10.612  10.741  0.1116  0.0374 -0.3461
18021W        W35545   0.262   4.735  15.858 -0.0536  0.1006  0.0243
18022W        W35546  18.164   5.055  10.972 -0.0359 -0.0697  0.0287
18023W        W35547   6.208  13.618   3.074 -0.2122  0.1131  0.0656
18024W        W35548  15.675   7.824   0.054 -0.1263 -0.3172  0.0254
18025W        W35549   0.339   9.181  14.431 -0.0322  0.0685  0.2847
18026W        W35550   4.772  16.132   4.080  0.0211 -0.1390 -0.1160
18027W        W35551   4.025   3.794  13.062  0.3174 -0.1018  0.0728
18028W        W35552   1.397   8.884  13.430 -0.0896  0.2682 -0.2192
18029W        W35553  13.785   5.509   2.775 -0.1037  0.0259  0.2292
18030W        W35554  14.400   3.965   5.003  0.1820 -0.1345 -0.1273
18031W        W35555  16.028  14.152  11.791 -0.0298 -0.1413  0.1435
18032W        W35556  14.778  18.170   1.624  0.1325  0.0660 -0.2651
18033W        W35557   5.318  15.645   2.544 -0.0103  0.0893 -0.1585
18034W        W35558   7.552   3.375  14.902 -0.0932  0.2017 -0.0486
18035W        W35559  10.923   9.576  15.245  0.1329 -0.0620 -0.2889
18036W        W35560   7.471   8.025  12.899 -0.0562  0.0840 -0.1619
18037W        W35561  11.044  13.374  15.043 -0.1473 -0.0907  0.0492
18038W        W35562  15.392   8.102   0.901 -0.1672 -0.0051  0.2254
18039W        W35563  10.485  13.105  15.211 -0.2776 -0.3227 -0.0200
18040W        W35564  14.283   1.392   4.967 -0.0875 -0.1559  0.1306
18041W        W35565  15.475  16.795   4.088 -0.0381 -0.0005 -0.0688
18042W        W35566   7.568  11.543   4.648 -0.1085 -0.0025 -0.0309
18043W        W35567   9.094   0.761   1.496 -0.2793 -0.2279  0.0155
18044W        W35568   5.732  10.686   4.334 -0.1850 -0.0700  0.2509
18045W        W35569  10.009   2.866   0.539 -0.0858 -0.0879 -0.1780
18046W        W35570  16.855  17.299  14.479  0.0416 -0.2135  0.1569
18047W        W35571   3.770   1.950   2.384  0.1537  0.2451 -0.4126
18048W        W35572   7.066   9.945  11.150 -0.0428 -0.1810  0.2037
18049W        W35573   1.073  13.017  13.077 -0.1194 -0.1333 -0.0748
18050W        W35574  12.608   8.654   1.787 -0.0916  0.0249  0.0119
18051W        W35575   7.376   2.402  14.665  0.0189 -0.1936 -0.2650
18052W        W35576  11.812  10.758  12.888 -0.1546 -0.1049 -0.1385
18053W        W35577   3.508   8.864  15.831 -0.0236  0.0403  0.3503
18054W        W35578   7.340  14.592  15.645 -0.1849  0.1218 -0.0031
18055W        W35579   3.180  18.083   3.075 -0.1143 -0.0187  0.2479
18056W        W35580   2.337  14.710   2.632  0.1412  0.0227 -0.1201
18057W        W35581   4.294  15.815  13.436  0.2073  0.1918  0.1901
18058W        W35582  15.733  14.257   3.300  0.0063 -0.1545  0.0929
18059W        W35583  14.140   0.599   1.456  0.0179  0.0915  0.1518
18060W        W35584  16.719  11.622   0.130  0.0272  0.0289 -0.3356
18061W        W35585   6.456   7.360   1.098  0.1710 -0.0434  0.0337
18062W        W35586  13.120  10.828   1.094 -0.3766  0.0645 -0.1258
18063W        W35587   6.246   0.485  15.491 -0.0804 -0.3884  0.1526
18064W        W35588   0.131   8.293  14.578 -0.2395 -0.3400 -0.0546
18065W        W35589   9.508  11.835  12.550  0.1071 -0.2117  0.0727
18066W        W35590   2.489   8.555  15.099  0.1388  0.2082  0.3415
18067W        W35591  11.633   1.133  11.573  0.0114 -0.0333  0.2413
18068W        W35592  13.840  17.107  11.858  0.2105 -0.2017 -0.3923
18069W        W35593   5.207  11.558  13.825 -0.2272  0.0174 -0.3410
18070W        W35594   1.161  10.216  11.950  0.2121 -0.0061  0.1698
18071W        W35595  16.004  14.572  10.870  0.0179 -0.0461  0.2718
18072W        W35596  13.031   0.624   3.293  0.1670 -0.1973 -0.0822
18073W        W35597   9.399  11.477  14.799 -0.0841  0.1573  0.0574
18074W        W35598   4.255   1.986   2.087  0.3623 -0.0323 -0.0990
18075W        W35599  10.938   1.871   5.346 -0.0452  0.2312  0.0377
18076W        W35600   2.849  14.084   2.474  0.0111 -0.0343  0.1131
18077W        W35601  13.651   4.825   3.980 -0.3254  0.0917  0.0006
18078W        W35602  17.523  10.464  15.414 -0.0637 -0.0359 -0.2075
18079W        W35603   6.916  17.726  11.323 -0.0741 -0.2415  0.1969
18080W        W35604  11.611   3.346   3.044 -0.2292  0.1448 -0.5315
18081W        W35605  13.399   4.583  11.324  0.0246 -0.3913 -0.1210
18082W        W35606   1.382  12.370  13.321 -0.0130  0.0970  0.0220
18083W        W35607  12.268   2.360   0.419 -0.1917  0.1653 -0.0626
18084W        W35608  15.607   3.085   0.366 -0.0240 -0.3671 -0.2229
18085W        W35609  13.598  12.219   2.098  0.2365 -0.0391  0.0631
18086W        W35610   3.083   7.186  12.576  0.1365  0.0959 -0.0244
18087W        W35611  18.038   5.753   4.907  0.2445 -0.1143  0.2297
18088W        W35612   6.547   2.681   4.420 -0.1531 -0.3299  0.0599
18089W        W35613   0.603  16.658  14.949 -0.1409  0.0728 -0.0511
18090W        W35614   7.633  13.604  12.390 -0.2279  0.0015  0.2012
18091W        W35615   6.500   2.571   5.844 -0.1692 -0.0693  0.3102
18092W        W35616   8.825   8.806   3.280  0.0104 -0.1437  0.0106
18093W        W35617  12.812   0.443   2.181  0.1137 -0.2556 -0.1332
18094W        W35618   9.645  16.473   3.214 -0.0612 -0.0846  0.2846
18095W        W35619   7.469   1.940  15.845 -0.2404  0.0626 -0.1471
18096W        W35620   3.010   9.027   2.246  0.0095 -0.3490 -0.1987
18097W        W35621  13.899   8.418  13.109 -0.0981  0.0070 -0.1714
18098W        W35622   9.618   8.030  13.737  0.0234 -0.1366 -0.0080
18099W        W35623  17.385   4.650  15.542 -0.0786 -0.0494 -0.2742
18100W        W35624   7.409  14.917   1.167  0.0909  0.1811  0.0535
18101W        W35625  14.330   1.070   1.772 -0.0783 -0.1142  0.2698
18102W        W35626  16.140   7.307   9.920 -0.0688  0.0260 -0.0082
18103W        W35627   8.887  13.046  13.034 -0.0779 -0.0912  0.0581
18104W        W35628   7.709   9.147   5.430  0.0516 -0.1874 -0.0515
18105W        W35629  13.339   0.507   2.561 -0.0598  0.1169 -0.1207
18106W        W35630   1.125   1.893  14.979  0.3597 -0.1241 -0.1656
18107W        W35631   8.207   4.194  13.208  0.1352  0.1770  0.1310
18108W        W35632   1.757   0.237  13.634 -0.1069  0.0844 -0.2054
18109W        W35633  17.892   6.303  11.533 -0.0615  0.1178 -0.3587
18110W        W35634  17.772   6.984  12.072  0.0701 -0.0347  0.1126
18111W        W35635  14.931  17.213  14.646  0.1521 -0.1256 -0.0228
18112W        W35636   0.683  10.017   2.364  0.1384  0.1575 -0.4867
18113W        W35637  17.062   2.376   1.155  0.1346 -0.1980  0.2637
18114W        W35638   7.093   6.240   4.232  0.0431  0.0329  0.0311
18115W        W35639  13.419   6.556  14.555 -0.2879 -0.1221  0.1233
18116W        W35640   8.326  10.998   0.766 -0.1139  0.1640  0.5073
18117W        W35641   3.086   0.483  13.639  0.1328 -0.0923  0.1178
18118W        W35642  17.262  17.709  12.590 -0.0779 -0.3743  0.2402
18119W        W35643   7.861  17.578   0.460  0.0850  0.0169  0.5349
18120W        W35644   4.415  11.109  12.178  0.0992  0.2310 -0.1825
18121W        W35645   3.983  18.283  15.396 -0.0014 -0.0016  0.1442
18122W        W35646  15.923   0.779   5.042 -0.1656  0.2709 -0.0508
18123W        W35647  14.298  13.222   1.793  0.0356 -0.1697  0.4241
18124W        W35648   4.972   8.622   4.810 -0.0008 -0.0856  0.2061
18125W        W35649   7.892   7.061  13.795 -0.0187  0.1597 -0.0054
18126W        W35650  13.456   5.743   3.060  0.0815  0.0073 -0.2178
18127W        W35651   2.597  17.348  13.708  0.0842 -0.0506 -0.2193
18128W        W35652   4.070   2.413   3.317 -0.0515  0.2032  0.2398
18129W        W35653   6.712  11.205  11.239  0.4250  0.1120 -0.1494
18130W        W35654   6.028   4.168  15.839 -0.0498 -0.2891 -0.0700
18131W        W35655   6.606  11.681  11.268 -0.0856  0.5327  0.1801
18132W        W35656   9.509   6.510   3.143  0.1812 -0.0792  0.0376
18133W        W35657   9.667   9.147   0.767 -0.2655  0.1442 -0.0797
18134W        W35658   6.963  13.161  15.813 -0.0079 -0.1314 -0.0426
18135W        W35659  12.071   8.198  14.351 -0.0492 -0.1329  0.0371
18136W        W35660   0.344   7.439  13.583  0.0906 -0.1108  0.3747
18137W        W35661  11.525   0.907   4.408 -0.0504  0.1574 -0.0302
18138W        W35662   2.946  10.901   2.158  0.3811  0.1300 -0.0320
18139W        W35663   8.388  12.447   4.002  0.0567  0.0656  0.0057
18140W        W35664  12.225   3.519   0.462  0.0684  0.2809 -0.1680
18141W        W35665  15.038  10.000  14.659  0.0522  0.0951  0.3983
18142W        W35666   9.327   3.073   3.164 -0.0476 -0.0213 -0.1779
18143W        W35667  15.469  12.509  15.721  0.1115  0.1783 -0.2261
18144W        W35668   8.405   0.951   3.444  0.0624  0.1825 -0.1946
18145W        W35669  16.793  15.199   3.805  0.3015  0.2184 -0.1980
18146W        W35670  13.238   6.355  15.581  0.0041 -0.3001 -0.4877
18147W        W35671   8.624   8.045   1.718  0.2763 -0.0592  0.4492
18148W        W35672  18.047  10.711  13.077 -0.2287 -0.0986 -0.1314
18149W        W35673   4.163  13.636  13.555  0.0937 -0.0301 -0.1723
18150W        W35674  16.912   1.162  11.092 -0.4154  0.0670 -0.0956
18151W        W35675  10.567  16.463  14.621 -0.1659 -0.0487 -0.3592
18152W        W35676   5.223  16.982  12.949  0.0885  0.3654  0.1777
18153W        W35677   5.746   5.587  15.831  0.1191 -0.0554 -0.0581
18154W        W35678   0.606   0.158  14.873  0.1858  0.1743  0.1975
18155W        W35679  10.900  14.270  12.183 -0.0905 -0.0284 -0.2656
18156W        W35680   6.834   3.234   3.701 -0.2770 -0.1693  0.0435
18157W        W35681   5.313   7.165   2.371 -0.2845  0.3113 -0.0742
18158W        W35682  17.609  10.975   1.570 -0.0316 -0.0060  0.1722
18159W        W35683   1.348   6.861  10.480 -0.4273 -0.0227 -0.4412
18160W        W35684   4.125   8.614   2.665  0.1492 -0.5489  0.4001
18161W        W35685  10.853  13.716   2.534  0.1366 -0.0419 -0.0770
18162W        W35686   6.874   3.812   1.106  0.0411  0.0152 -0.1121
18163W        W35687   8.102  12.352   3.210  0.1643  0.0722  0.2398
18164W        W35688  17.974   8.468   3.786 -0.3652 -0.3659 -0.2467
18165W        W35689  15.010   1.059  13.646  0.1982  0.0757  0.0933
18166W        W35690   3.092  11.176  12.662  0.2758  0.1195  0.0853
18167W        W35691   9.980  12.388  12.414 -0.1225  0.1605  0.4420
18168W        W35692  17.660   6.649  11.181  0.0192 -0.0372  0.2809
18169W        W35693  11.749  17.239   3.845 -0.2951  0.0848  0.1331
18170W        W35694  17.524  10.134   0.440  0.0949  0.2520  0.0582
18171W        W35695   1.282  11.619  12.982 -0.0426  0.3180 -0.1095
18172W        W35696  10.472   9.141  14.768 -0.0166 -0.4909 -0.1907
18173W        W35697   1.604   0.412  14.294  0.3704 -0.0763 -0.1209
18174W        W35698  17.025   1.967   2.763  0.0436  0.2583  0.1245
18175W        W35699  14.180  17.668  10.063 -0.2299  0.0302 -0.0829
18176W        W35700   4.507   7.155  13.450  0.0646 -0.2376  0.0613
18177W        W35701   1.748  13.990   3.895  0.0418 -0.1158  0.2150
18178W        W35702  17.376   0.960  10.859  0.1100 -0.0027 -0.1374
18179W        W35703  17.254   7.030  15.745  0.4463 -0.2526 -0.0087
18180W        W35704  17.120  17.232   3.877  0.3423 -0.1193  0.1033
18181W        W35705   3.621   7.895   0.104 -0.1163  0.3151  0.1463
18182W        W35706  15.403   1.271  12.791 -0.1320 -0.1769  0.2580
18183W        W35707  13.302   2.056  12.440  0.1355 -0.0719  0.0715
18184W        W35708   0.992  15.068   1.524 -0.0885  0.2084 -0.1237
18185W        W35709  18.266   3.288   1.825 -0.0329 -0.1777  0.1359
18186W        W35710  12.408   0.190  12.292 -0.1779  0.3744  0.2613
18187W        W35711   1.432  15.337  11.529  0.0612  0.1340 -0.0307
18188W        W35712   0.208  13.674  11.182  0.0639 -0.2032 -0.2445
18189W        W35713   9.042   5.092  13.804  0.2460 -0.0242 -0.1563
18190W        W35714  16.561   5.172  13.278 -0.2821 -0.0794  0.0965
18191W        W35715   5.184  11.260   0.819 -0.0636 -0.2031 -0.0280
18192W        W35716  11.185   0.699  11.731  0.2220 -0.2890 -0.2224
18193W        W35717  10.883  13.069  15.761  0.0952 -0.0451  0.1339
18194W        W35718   3.690  12.686  11.723  0.1129 -0.0277 -0.0619
18195W        W35719   3.445   5.540  13.808  0.1541 -0.1440  0.2057
18196W        W35720  17.086   4.571   2.435 -0.0224  0.3694  0.2250
18197W        W35721  18.218  13.837   1.705 -0.1600  0.0756  0.0436
18198W        W35722   1.727   2.730  10.908  0.0034  0.1920 -0.2260
18199W        W35723  17.868  18.028   2.682  0.1286 -0.1475 -0.0216
18200W        W35724   4.138   1.414   4.698  0.2711 -0.0834 -0.1385
18201W        W35725   6.947  17.090   0.245  0.2288 -0.1013  0.1411
18202W        W35726  11.837   6.705   0.611  0.0149  0.0124  0.1067
18203W        W35727  15.073  11.853  12.000  0.1229  0.4345  0.1513
18204W        W35728  11.436   2.842  15.419  0.2141 -0.1159  0.5009
18205W        W35729   5.226  10.172  15.824 -0.2716 -0.2209  0.2529
18206W        W35730   0.793   7.486   2.287 -0.0924 -0.0569  0.1264
18207W        W35731   9.768   6.519  14.655  0.1078  0.0121 -0.1557
18208W        W35732   6.800  17.101  12.554 -0.0227  0.1144 -0.0837
18209W        W35733   7.987   6.532   1.939 -0.0917  0.0319  0.1561
18210W        W35734  16.678  13.662  13.395  0.0574  0.2418  0.5937
18211W        W35735   9.284  17.761  13.507  0.0233  0.0536  0.0441
18212W        W35736   5.463   2.631  14.538 -0.0671 -0.0038  0.0557
18213W        W35737   6.727   1.222   5.528  0.0269 -0.3896  0.1646
18214W        W35738   9.467   5.954  15.598 -0.0349  0.2849  0.2997
18215W        W35739   9.424   9.620   0.978 -0.2940  0.4248 -0.2300
18216W        W35740  15.376   1.541   4.068  0.0725 -0.1546  0.0580
18217W        W35741   0.116  16.821  11.970 -0.1993  0.3484  0.2554
18218W        W35742   0.898   8.594   4.076 -0.2384  0.0789  0.2863
18219W        W35743  10.239   0.586  13.250 -0.0099 -0.0802 -0.1667
18220W        W35744  10.863   2.005  11.527  0.1722 -0.4177  0.1941
18221W        W35745   7.702   2.779   1.005  0.0591  0.1809  0.0846
18222W        W35746   6.299   4.655   1.433  0.1908 -0.0084 -0.0057
18223W        W35747   7.079   6.466  13.729 -0.1144  0.3384 -0.2044
18224W        W35748   7.912  14.560  15.002 -0.0792 -0.1099  0.1826
18225W        W35749   2.749   3.598   1.916 -0.0559 -0.0585  0.2772
18226W        W35750  11.236   0.430   4.394 -0.0534 -0.0832 -0.4189
18227W        W35751  14.036   6.222  15.224  0.1162  0.0089  0.1440
18228W        W35752   5.137   2.182  13.303 -0.1086  0.1532 -0.4427
18229W        W35753  18.321   1.787  15.199 -0.0868  0.0783 -0.2639
18230W        W35754   5.033  12.254  11.640 -0.3235  0.0317 -0.2539
18231W        W35755   0.265  16.101   0.646 -0.0211  0.0192 -0.0677
18232W        W35756   9.731  14.710  11.238  0.0573  0.1017 -0.2435
18233W        W35757   0.441   6.569   2.100 -0.0029  0.0779 -0.2257
18234W        W35758   4.861  15.977  14.681  0.0847  0.0229  0.1167
18235W        W35759   1.913   8.419  13.280  0.1016 -0.0895 -0.4424
18236W        W35760   2.141   9.224   0.307  0.0703  0.1912  0.0919
18237W        W35761   9.342   1.584   5.239  0.0991 -0.1514  0.0891
18238W        W35762   5.609  10.383  12.140 -0.0384 -0.2258  0.0165
18239W        W35763   9.875  12.805  14.900  0.0625 -0.0917 -0.2016
18240W        W35764  13.471  13.717   1.682  0.0119 -0.2106 -0.1938
18241W        W35765   3.591   3.668   0.007  0.2386  0.0246  0.0412
18242W        W35766  15.421   4.823   4.324 -0.0599  0.0396 -0.1862
18243W        W35767  13.374  11.921   1.667 -0.2028  0.2876 -0.0698
18244W        W35768   5.899   9.463   3.512 -0.1362  0.0304 -0.0706
18245W        W35769  13.654  10.971   5.713  0.2648 -0.0335  0.0976
18246W        W35770   1.288   6.726  11.956  0.1022 -0.3490  0.0265
18247W        W35771  17.232   4.697  14.230  0.3323 -0.2702  0.1523
18248W        W35772  12.661  12.955  12.769 -0.0652 -0.2272  0.1922
18249W        W35773   5.257   5.291  13.700 -0.0662 -0.0248 -0.2295
18250W        W35774   0.763   4.127  10.941 -0.0357  0.2124  0.2850
18251W        W35775  10.101   2.473   0.776  0.2580  0.1187 -0.3977
18252W        W35776   6.611  16.494   2.868  0.1841  0.0751  0.0450
18253W        W35777  10.355  13.968  15.231  0.0591 -0.1531 -0.0307
18254W        W35778  11.558   2.818  11.611 -0.1352 -0.2895  0.1647
18255W        W35779   9.349   8.193   4.695  0.2405  0.2819 -0.1916
18256W        W35780   7.953  12.919  11.885  0.1619 -0.0890 -0.1191
18257W        W35781   2.146   5.984   4.231 -0.2939 -0.0319  0.3175
18258W        W35782  17.382   4.646   2.896 -0.0095 -0.0734 -0.3940
18259W        W35783  14.747   3.471  13.306 -0.3887  0.0344  0.0619
18260W        W35784  11.658   7.583  12.871  0.2090  0.3084  0.0848
18261W        W35785  16.770   7.821   3.428  0.0827  0.1056  0.1127
18262W        W35786  15.216   2.959  15.784  0.0119  0.1368 -0.0909
18263W        W35787   5.012  14.132   3.171  0.2445  0.2322 -0.1054
18264W        W35788   5.946  10.210   1.605 -0.1349  0.2405 -0.0780
18265W        W35789  11.750  13.178   4.650 -0.0763  0.0309 -0.1068
18266W        W35790   0.575  10.313   1.892  0.5929  0.1133 -0.0470
18267W        W35791  16.598   4.962  11.063 -0.0329  0.0262 -0.1334
18268W        W35792   7.694  10.319  12.755 -0.0628  0.0796  0.2095
18269W        W35793   6.281   4.658  11.307 -0.0888  0.2874 -0.0492
18270W        W35794   4.660   3.379  15.850  0.1866 -0.0557 -0.1504
18271W        W35795   4.969  14.236   1.478 -0.0341 -0.1321  0.2595
18272W        W35796  13.009   3.444  13.060 -0.0148 -0.3794 -0.1701
18273W        W35797   8.696   1.456  12.575  0.0968 -0.0714 -0.1740
18274W        W35798   4.170   6.390  11.653 -0.1252  0.1176 -0.1228
18275W        W35799  13.333  11.332   4.945  0.2478 -0.5790 -0.1646
18276W        W35800  13.172   1.549   3.550 -0.2995  0.0179 -0.2253
18277W        W35801  12.093   5.289   1.118 -0.0690 -0.1602 -0.1173
18278W        W35802   2.860  11.063  15.353  0.3282 -0.1267  0.0598
18279W        W35803  14.656  16.279  13.259  0.1032  0.0413 -0.2808
18280W        W35804  16.536  13.315   0.906  0.1905  0.0935  0.0415
18281W        W35805   3.437  11.481   2.689  0.1057 -0.2904  0.2620
18282W        W35806  10.762  14.975   3.342 -0.1047  0.0127 -0.1600
18283W        W35807   7.095   4.295   5.077 -0.0266 -0.0456 -0.0352
18284W        W35808   2.345   0.499  12.189 -0.3809  0.0202 -0.0528
18285W        W35809  13.810   8.832   4.801 -0.1287 -0.2304 -0.1184
18286W        W35810   9.910   8.680  13.453 -0.2038  0.0559  0.0032
18287W        W35811  14.648  17.501   5.765 -0.4561 -0.0703 -0.3079
18288W        W35812  10.750  14.280   1.566 -0.1623  0.2751 -0.2330
18289W        W35813   7.822  13.848   0.442 -0.0253  0.0566  0.0180
18290W        W35814  18.369   7.380   4.398  0.2046  0.1137  0.1271
18291W        W35815   2.805   3.645  13.461  0.3202  0.0227  0.0646
18292W        W35816   3.728  11.980  11.174 -0.0064 -0.0839  0.4018
18293W        W35817   0.060  15.873  13.700 -0.0193 -0.3294  0.1495
18294W        W35818   3.013  16.593   0.258 -0.1080  0.0375  0.3031
18295W        W35819   4.552  16.753  11.962 -0.2498 -0.2328  0.0340
18296W        W35820   3.427  18.138   2.535  0.1700 -0.0591  0.2014
18297W        W35821  12.579   9.074   1.358  0.1201 -0.0252  0.2399
18298W        W35822   7.836  17.715   2.946  0.2531  0.0040  0.2286
18299W        W35823  16.552   8.459  11.165 -0.0617  0.2693 -0.3200
18300W        W35824   0.977  10.677  13.370 -0.2067  0.1870  0.3993
18301W        W35825  11.956   6.599   2.510  0.2877 -0.1804  0.1263
18302W        W35826  17.099   0.127   2.988  0.1713 -0.2176  0.1507
18303W        W35827  13.012  12.968   2.608  0.2327 -0.4750 -0.2073
18304W        W35828  17.135   4.376  11.706 -0.0728  0.0380 -0.1290
18305W        W35829   9.179   9.713   2.391 -0.2855  0.0721 -0.0616
18306W        W35830   3.644   0.856   4.062 -0.1178  0.1766 -0.4095
18307W        W35831  15.797  12.836  10.932 -0.3018  0.1394  0.0418
18308W        W35832  13.644  15.108  12.932  0.1802 -0.1146 -0.2801
18309W        W35833   5.290  13.225  12.599  0.0656  0.1454 -0.3962
18310W        W35834  15.879  11.463   4.882  0.2463  0.2219 -0.1991
18311W        W35835  13.046  10.267   1.944  0.0576 -0.0528 -0.1265
18312W        W35836   3.577   5.153  15.723  0.2916  0.0677  0.0280
18313W        W35837  18.260   5.468   1.609 -0.1617 -0.0774  0.1420
18314W        W35838   5.586   6.518   5.471  0.0133 -0.0208  0.0525
18315W        W35839   2.638  11.873   3.880 -0.0878 -0.1553 -0.3921
18316W        W35840  18.190   4.712  15.694  0.3994  0.1118  0.1137
18317W        W35841  17.661   2.645   4.654  0.1031  0.1917  0.0803
18318W        W35842  16.010   2.832   0.613  0.1960  0.5085  0.0127
18319W        W35843  13.710   4.806  11.689 -0.1088  0.0618 -0.3085
18320W        W35844   6.971   1.502  12.925  0.4858  0.0891 -0.2322
18321W        W35845   6.369   4.593  14.089 -0.0064 -0.1330 -0.0015
18322W        W35846  10.041  10.527   0.585  0.0109  0.1878 -0.0676
18323W        W35847  17.753   0.717  15.539 -0.0501  0.0700 -0.3155
18324W        W35848  17.626   5.870   3.338 -0.0033 -0.0479  0.2208
18325W        W35849   0.792   5.805  12.611 -0.3069 -0.0113 -0.2444
18326W        W35850   9.557   5.631  11.722  0.4612  0.0512  0.2023
18327W        W35851   5.083  16.361  15.571 -0.1270  0.3142  0.1255
18328W        W35852   7.683   4.304  14.438 -0.0102  0.2055  0.1968
18329W        W35853  12.499   3.580  14.883  0.1510  0.4992  0.3160
18330W        W35854   4.793  10.879   1.000  0.0055  0.2837  0.0647
18331W        W35855  15.513  18.170  11.457  0.0584 -0.0860 -0.0277
18332W        W35856  10.173   4.128   3.499 -0.1752  0.0572 -0.0345
18333W        W35857  13.995   6.707   1.017 -0.0565 -0.0567  0.1488
18334W        W35858  11.727  11.085  14.411  0.0459  0.1118  0.1875
18335W        W35859  11.453  13.761  11.387  0.1478  0.0960 -0.0374
18336W        W35860   8.176   3.905   2.948 -0.1340 -0.0165 -0.1322
18337W        W35861   7.689   3.297   0.063 -0.1433  0.0025 -0.2901
18338W        W35862   9.559   5.297  14.279  0.0435  0.1540  0.0313
18339W        W35863   0.943  11.836  13.948 -0.0830  0.0645 -0.1411
18340W        W35864   3.600   2.837   3.899  0.0830  0.2491 -0.2895
18341W        W35865   2.775  11.032  10.861 -0.1876 -0.0790 -0.1248
18342W        W35866  13.456   2.154  14.301  0.0834 -0.0085  0.0878
18343W        W35867  14.353   6.346   3.382  0.2112 -0.3597  0.3377
18344W        W35868   5.713   4.307   2.314 -0.5322 -0.0236 -0.0885
18345W        W35869  11.485  11.278   2.552  0.1949 -0.2224  0.2187
18346W        W35870  16.731  13.547  15.272 -0.2743 -0.1241  0.2591
18347W        W35871   2.338   6.921  10.459  0.2387 -0.0169 -0.0832
18348W        W35872  13.674   9.514  15.225  0.0806 -0.0152  0.0266
18349W        W35873   3.311   9.951   1.341 -0.0274 -0.2088 -0.1187
18350W        W35874  11.157   9.242  12.535  0.1219 -0.1414 -0.2253
18351W        W35875  10.918  14.562   3.666  0.2843 -0.1141 -0.0390
18352W        W35876  15.020   3.021  12.114 -0.0347  0.0904  0.0298
18353W        W35877  17.614   4.784   1.749 -0.1436 -0.0700 -0.2331
18354W        W35878   7.341  12.976   1.651 -0.3211 -0.2188 -0.2205
18355W        W35879  17.518  14.728  11.265 -0.1545 -0.2061 -0.1921
18356W        W35880   0.795  10.726   1.644  0.0978  0.2020 -0.0714
18357W        W35881  17.247   8.287   0.485  0.0148 -0.0461  0.0319
18358W        W35882  13.544   4.701   1.522 -0.1210  0.2224 -0.0816
18359W        W35883  15.428  11.193   3.220  0.1284 -0.0855 -0.0483
18360W        W35884  17.183  13.385  13.231 -0.0396  0.2774 -0.0537
18361W        W35885   2.051   5.420  11.932  0.1331 -0.1278 -0.3550
18362W        W35886   4.974   1.752   0.039 -0.1871  0.1608 -0.3253
18363W        W35887  17.522  17.188  12.019  0.1300 -0.2064  0.0891
18364W        W35888   3.745   5.877  13.963  0.2042  0.0277  0.1152
18365W        W35889   8.709   0.009   1.847  0.0702  0.2286 -0.0722
18366W        W35890  13.647   4.212   1.378 -0.0243 -0.0941  0.2771
18367W        W35891   4.976  14.551  14.947 -0.0727  0.0144  0.1044
18368W        W35892   7.565   3.350   2.211  0.2727 -0.1907 -0.0316
18369W        W35893   2.753   4.506   4.060 -0.2647  0.2453  0.2246
18370W        W35894   5.717   2.686   2.413 -0.0055  0.1969 -0.1901
18371W        W35895  16.542  15.934   0.888 -0.0825  0.0969 -0.3212
18372W        W35896   9.713  16.256  15.577 -0.1182 -0.1753 -0.1347
18373W        W35897  10.988   8.253  11.678  0.1028 -0.0083  0.4290
18374W        W35898  17.593   5.029  14.430  0.2263  0.1978 -0.0703
18375W        W35899   1.033  18.365   3.897 -0.0036  0.0380 -0.2800
18376W        W35900   4.354   0.328  11.814 -0.2806  0.3312 -0.1854
18377W        W35901  14.926  10.822   4.316 -0.2707  0.1843  0.4293
18378W        W35902   3.227   1.108   1.339 -0.0835 -0.0247 -0.1896
18379W        W35903  17.125  15.007  11.106 -0.0044 -0.3943  0.0767
18380W        W35904   3.019  14.234  14.279  0.0185 -0.1436 -0.1093
18381W        W35905  15.629   5.649  15.550 -0.0058  0.0020 -0.0672
18382W        W35906   2.380   2.946  12.919  0.0289 -0.0863  0.0851
18383W        W35907  11.323  18.409   4.762 -0.1465  0.0755  0.1432
18384W        W35908   9.465  14.597   4.294  0.2717 -0.0779 -0.1247
18385W        W35909   3.062  16.976  11.233 -0.3309  0.2006 -0.0333
18386W        W35910  17.024   2.910   1.458  0.1264  0.1449  0.2048
18387W        W35911  14.028  13.366  10.757 -0.0210 -0.1215 -0.1265
18388W        W35912   2.383   3.994  11.465  0.2092 -0.0587  0.3828
18389W        W35913  15.795   8.415  12.246 -0.1828 -0.0811  0.3650
18390W        W35914   1.741  16.803   3.211  0.0924  0.4181  0.1716
18391W        W35915   0.393   2.519  12.087 -0.1827  0.2383 -0.3086
18392W        W35916   5.309   5.632   1.896 -0.0481 -0.2030 -0.0382
18393W        W35917   1.477  12.993  12.123  0.0857  0.0312 -0.1285
18394W        W35918  17.959  15.169   3.113  0.0124  0.2347 -0.0426
18395W        W35919  18.282  10.381  13.460 -0.1229  0.1005 -0.3193
18396W        W35920   5.882   4.549  14.831  0.0549  0.1222 -0.3869
18397W        W35921  11.647  17.006  13.028  0.0818 -0.3358 -0.0154
18398W        W35922  16.939   0.202  14.468 -0.3404 -0.1948 -0.2750
18399W        W35923   4.359   7.671  11.757 -0.0092  0.1531  0.0605
18400W        W35924  12.038   3.323   4.349  0.3082 -0.1669 -0.0116
18401W        W35925  17.467  17.732   3.150  0.0099  0.4455  0.1428
18402W        W35926   7.608  10.946  12.620  0.0885  0.1151 -0.3175
18403W        W35927  16.881  13.979   2.628 -0.0961  0.2405 -0.0182
18404W        W35928   6.120   6.560  12.631  0.3697 -0.0288  0.1165
18405W        W35929   0.760  12.840  11.167 -0.0747  0.1743  0.0200
18406W        W35930  17.930  16.959  11.242 -0.1222 -0.0851 -0.0207
18407W        W35931   4.713   0.696  14.509  0.1230 -0.1682  0.0786
18408W        W35932  12.272   1.341   0.958 -0.0906 -0.0181 -0.2062
18409W        W35933  18.271   4.085   1.234 -0.0338 -0.3488 -0.0728
18410W        W35934   5.602  17.694   9.772  0.0927  0.0418  0.0360
18411W        W35935   7.812   4.402  12.143 -0.2153  0.0148 -0.2719
18412W        W35936  11.888   2.797   1.410  0.0164  0.1165  0.0673
18413W        W35937   2.779   2.510   2.467 -0.1700  0.2349 -0.1764
18414W        W35938   3.823  17.105   0.252  0.1787  0.0022  0.1102
18415W        W35939  16.285   2.303  11.617  0.0704 -0.0120  0.0695
18416W        W35940  10.112   0.973  14.477  0.0094 -0.1164  0.0444
18417W        W35941   4.831   2.430  12.002 -0.0517  0.1865  0.3334
18418W        W35942   6.936  17.509   0.706  0.0958 -0.2941 -0.0565
18419W        W35943   5.480   9.053  12.058  0.0867 -0.2268  0.0754
18420W        W35944  14.064  10.587  15.238  0.2231  0.2467  0.2649
18421W        W35945  10.484   6.215   4.263  0.1846  0.1890  0.0625
18422W        W35946   7.758   7.648  13.641  0.0313  0.1597  0.0529
18423W        W35947   0.503  10.467   0.011 -0.0948  0.1537 -0.2226
18424W        W35948  10.067  18.132  13.336 -0.1495 -0.1113  0.3590
18425W        W35949   9.915   0.208   2.618  0.4148  0.1359  0.0183
18426W        W35950   7.151  11.871  15.410 -0.2629 -0.0185 -0.0375
18427W        W35951   4.913   3.484  12.452  0.0254 -0.0698 -0.1629
18428W        W35952   8.722   9.111  14.876  0.0894  0.1215  0.1432
18429W        W35953  12.520   5.477   3.119  0.1903 -0.2191  0.3964
18430W        W35954   5.059  15.286   2.297  0.0965 -0.0152  0.2537
18431W        W35955  15.384  13.589  15.550 -0.1638 -0.2041  0.1907
18432W        W35956   0.220   0.821  11.905  0.0116  0.1806 -0.0227
18433W        W35957   8.932   6.906  12.823 -0.0060 -0.2148 -0.0921
18434W        W35958  13.491   5.772   2.455 -0.0497 -0.2220  0.0121
18435W        W35959   6.474  16.894  11.685  0.2408  0.1951  0.0908
18436W        W35960   3.726  16.749  12.305  0.2193  0.1844 -0.0145
18437W        W35961  17.597  16.916  15.224  0.0962 -0.3009  0.1620
18438W        W35962   8.451  14.182   0.303 -0.1737  0.1474  0.0217
18439W        W35963  18.406   9.974  14.610  0.0520 -0.1128 -0.0689
18440W        W35964  15.290   4.554   1.820  0.0679 -0.0279  0.0849
18441W        W35965   7.883  17.829   1.806 -0.0879  0.1040 -0.1317
18442W        W35966   0.781  11.630   4.325 -0.1598 -0.1727 -0.0303
18443W        W35967   4.339   8.578  15.107 -0.0878 -0.2286 -0.1527
18444W        W35968  17.651   5.025  12.165 -0.0186  0.1917 -0.1339
18445W        W35969  17.376   2.203   1.748 -0.0409 -0.0687 -0.1409
18446W        W35970  11.332   5.619  13.539  0.1088 -0.2433  0.0623
18447W        W35971   6.526  13.210  11.333  0.0639 -0.0170 -0.0701
18448W        W35972  16.420   7.396  14.811  0.0026  0.0752 -0.1692
18449W        W35973   4.351   7.066  14.554 -0.0794  0.1374 -0.0795
18450W        W35974   8.127  15.762   2.445 -0.0434 -0.2206 -0.4955
18451W        W35975  18.065   3.348  15.055 -0.2538 -0.0258  0.2003
18452W        W35976  10.851  10.225  12.730  0.4699 -0.5576  0.1236
18453W        W35977   8.797  12.865   0.966 -0.0775 -0.1969 -0.0222
18454W        W35978   4.005  16.354  12.316 -0.0131 -0.1803 -0.1956
18455W        W35979   0.891   2.405  12.081 -0.1969  0.0079  0.0465
18456W        W35980   1.977   5.413  13.264 -0.1376 -0.0241  0.0417
18457W        W35981   9.920  12.348   3.809 -0.1460 -0.0148  0.0779
18458W        W35982   2.095  13.788   5.463  0.0180 -0.0672  0.0082
18459W        W35983   6.889  11.302   1.466 -0.4564  0.3818 -0.1504
18460W        W35984  15.152   3.063   1.665  0.1259  0.2914  0.1042
18461W        W35985   9.139  10.979  14.952  0.3254 -0.0509  0.4605
18462W        W35986  14.096   9.216   0.525  0.0594 -0.1780 -0.0829
18463W        W35987  17.661  17.530   2.300 -0.0914 -0.2202  0.0711
18464W        W35988  17.866  11.050   0.937 -0.0966  0.0813  0.0597
18465W        W35989   5.295   4.695   3.467 -0.0151  0.1300 -0.0988
18466W        W35990  14.531  11.790  11.211  0.3910 -0.1287 -0.4062
18467W        W35991  16.841   7.707   0.548 -0.1796 -0.0471 -0.4578
18468W        W35992   3.304   7.348   2.620  0.2039 -0.0378 -0.0281
18469W        W35993  11.694  12.116  11.496 -0.1330  0.2297  0.0507
18470W        W35994  11.250   9.136   1.399  0.0248  0.1039  0.1159
18471W        W35995   3.385  15.637   1.083  0.2161  0.0438  0.1556
18472W        W35996   7.192   0.095  11.777  0.1119  0.0463  0.0184
18473W        W35997   8.040  14.817  11.202  0.1853 -0.2019 -0.0725
18474W        W35998   2.033   0.815  10.337 -0.0032  0.4241  0.0614
18475W        W35999  11.787   3.314   1.234 -0.0275 -0.1960  0.0726
18476W        W36000   5.278   9.235   0.976  0.0285  0.0572 -0.0029
18477W        W36001  16.727   3.800   1.128 -0.0821 -0.1778  0.2811
18478W        W36002  18.170  11.790  15.799  0.4356 -0.2924 -0.0783
18479W        W36003  13.148   9.444   0.169 -0.0977 -0.1797 -0.0688
18480W        W36004  12.820   4.312   0.757  0.1351  0.0529  0.0823
18481W        W36005   2.502  17.192  11.902 -0.3023  0.0947  0.1226
18482W        W36006  16.038  10.509   3.594  0.0171 -0.0731 -0.0113
18483W        W36007   9.844   5.192  14.700 -0.1270 -0.0340 -0.0028
18484W        W36008  11.647   2.782   0.021  0.0707 -0.2971 -0.4349
18485W        W36009   9.674  12.877   2.165  0.2497  0.2107 -0.4376
18486W        W36010  16.415  15.556   0.572  0.1229  0.1465  0.1338
18487W        W36011  17.148  11.324  12.597 -0.0254 -0.2742  0.0039
18488W        W36012  12.654   1.626   3.152  0.2110 -0.0348  0.0494
18489W        W36013  16.804  17.986  10.878 -0.1717 -0.2816 -0.1665
18490W        W36014   4.348  13.821   2.026 -0.1725 -0.3298  0.0459
18491W        W36015   0.469   9.229  12.233  0.0032 -0.2839  0.2002
18492W        W36016   1.532   2.577   4.525  0.1180  0.0379 -0.0702
18493W        W36017  13.119   0.109  14.570  0.4525  0.0329  0.1436
18494W        W36018   4.456   0.113  11.087 -0.0213 -0.1432  0.1216
18495W        W36019   9.224   0.666   2.427 -0.2154 -0.0194  0.0101
18496W        W36020   6.795   9.331  14.395  0.3097  0.1067  0.1147
18497W        W36021   7.386   3.425  12.312 -0.3678  0.2549  0.1422
18498W        W36022   2.341   1.562  14.027 -0.2157  0.0549 -0.1669
18499W        W36023  16.381   5.224   0.513  0.0577 -0.1768  0.2115
18500W        W36024   2.544  10.807  14.836 -0.3062  0.2110 -0.0983
18501W        W36025   8.081   6.746   4.748  0.1288  0.1273  0.0419
18502W        W36026  17.604   3.051   0.452  0.1832 -0.0100  0.3837
18503W        W36027   3.381  10.710   3.644  0.0817 -0.1531  0.2665
18504W        W36028  15.861  17.493  13.275  0.2105 -0.1092 -0.0417
18505W        W36029  12.495  18.302  12.767  0.2045 -0.3044 -0.3112
18506W        W36030   1.980  17.678  11.160  0.0744  0.0354 -0.1584
18507W        W36031  13.131   1.452  13.879  0.3047  0.0875  0.2804
18508W        W36032  11.613  12.219  14.706  0.1987  0.2991 -0.0766
18509W        W36033  10.134   8.753  13.004  0.0830  0.1095 -0.2149
18510W        W36034  11.674  10.253  15.745  0.1029  0.2650  0.0661
18511W        W36035  16.274   1.173   1.620  0.1279  0.0299  0.2729
18512W        W36036  11.474   1.534  15.589  0.2223 -0.1626 -0.2276
18513W        W36037   0.305   3.031   4.816 -0.1558 -0.1892 -0.1090
18514W        W36038  14.737   6.554   3.652 -0.2808 -0.3098  0.2888
18515W        W36039   5.129  16.366   4.988 -0.0230  0.0311 -0.0203
18516W        W36040   2.529  15.998  14.868  0.0270 -0.0011 -0.1794
18517W        W36041   0.486   2.735  13.939  0.0976  0.4067  0.1608
18518W        W36042  17.157   7.005   3.388  0.0620  0.1961 -0.0360
18519W        W36043   8.447  13.476   2.781  0.0090  0.0274  0.0736
18520W        W36044  17.201   0.365  13.529  0.0010  0.4234  0.0005
18521W        W36045   0.356  15.590   3.061  0.2095 -0.0604 -0.1000
18522W        W36046  14.834   9.450  14.919  0.0183  0.0332  0.1698
18523W        W36047   6.524   2.035  11.245 -0.0882 -0.1585  0.2975
18524W        W36048  17.920  13.590  12.772 -0.0607  0.0733  0.0186
18525W        W36049  10.054  17.850  14.536  0.1081  0.0274 -0.0514
18526W        W36050  12.350  13.312  12.976  0.0188  0.3758  0.1393
18527W        W36051   5.279  17.952   1.769  0.2622 -0.2754 -0.4075
18528W        W36052  12.999  11.029  14.661 -0.0674 -0.2955  0.2897
18529W        W36053  12.506  10.907  14.542  0.0050  0.1316  0.3066
18530W        W36054   6.487  11.287   2.846 -0.2264 -0.1080 -0.1664
18531W        W36055  13.108  15.820   5.198 -0.3551  0.1870  0.0389
18532W        W36056  12.574   3.220  11.734  0.0703 -0.0889  0.2957
18533W        W36057  17.629   9.315   1.209  0.1294  0.0459 -0.2020
18534W        W36058   5.606   8.701  10.833 -0.1361  0.0393  0.1705
18535W        W36059  12.797   1.648   2.577 -0.0869  0.0995  0.0507
18536W        W36060   3.879  14.174   4.025  0.0884  0.0937 -0.1328
18537W        W36061  13.484  17.601   4.909  0.1741 -0.0371 -0.3129
18538W        W36062   7.908   0.943   4.721 -0.1492  0.3201  0.2171
18539W        W36063   5.011   4.696  14.790  0.1559 -0.1238 -0.0996
18540W        W36064   4.729  11.349  13.733  0.1432 -0.1669  0.2502
18541W        W36065  11.379   4.302  11.286  0.1968  0.1142 -0.3424
18542W        W36066  18.098  14.745  13.080 -0.0247  0.0289 -0.2084
18543W        W36067  16.796   5.554  11.352  0.0806  0.1411  0.0129
18544W        W36068   2.000   3.072   1.342 -0.0814 -0.1139 -0.0230
18545W        W36069  15.979  12.284   1.079  0.2097 -0.0277  0.5410
18546W        W36070   2.115   4.677  12.544  0.0889 -0.1659 -0.1625
18547W        W36071  18.395   4.162   3.743 -0.0674  0.1087 -0.2169
18548W        W36072   6.265   6.347   4.023 -0.0656  0.0807  0.0457
18549W        W36073   8.772  14.351   2.336 -0.0398 -0.1157  0.3996
18550W        W36074  17.275  17.016   1.526 -0.2885  0.1838  0.1634
18551W        W36075   9.974  15.797   4.968  0.0265 -0.0211  0.0012
18552W        W36076  13.028  10.789   2.414  0.0711 -0.0649  0.0907
18553W        W36077  15.354  17.651   3.577 -0.3631  0.0544  0.1472
18554W        W36078   0.963  13.235  15.669 -0.2180  0.3137  0.1041
18555W        W36079   8.821   8.429   2.750 -0.1763  0.1822 -0.1442
18556W        W36080  10.868   2.562  12.321 -0.0142 -0.1839 -0.1677
18557W        W36081  16.687   8.979   5.792  0.0837  0.1484 -0.1629
18558W        W36082  11.102   3.841  10.958 -0.2306  0.0597 -0.0473
18559W        W36083  14.984   0.050   3.678  0.2524  0.2072 -0.0516
18560W        W36084  12.514   7.714   1.529  0.0058  0.2625 -0.2997
18561W        W36085   1.124   7.452   3.529  0.2602 -0.0453  0.0252
18562W        W36086   3.849   5.581  10.340 -0.0871 -0.2250 -0.0030
18563W        W36087   4.483  15.419  15.401  0.0508 -0.0678  0.1818
18564W        W36088   6.384   7.894   1.543 -0.1247 -0.0124 -0.1376
18565W        W36089   7.118   1.066   0.016  0.0751 -0.1334  0.1232
18566W        W36090   4.770   1.653  11.930 -0.0522  0.0071  0.0057
18567W        W36091  13.354   8.462   3.700 -0.1655  0.0196 -0.1313
18568W        W36092  14.245  13.304   0.107 -0.0281 -0.1040  0.1287
18569W        W36093   3.987   3.464   4.643 -0.2779 -0.0444 -0.0730
18570W        W36094  11.920   2.909   1.944 -0.2158 -0.1391 -0.0991
18571W        W36095  16.915  16.561  12.290 -0.0223 -0.0593 -0.0646
18572W        W36096  10.160  13.913   4.784 -0.3771 -0.0383 -0.3082
18573W        W36097  11.013   1.369   4.604  0.1627  0.1976 -0.1131
18574W        W36098   8.536  11.885  15.275  0.1126  0.1774 -0.1843
18575W        W36099   8.545   2.479  12.880  0.0400  0.2503 -0.0404
18576W        W36100   8.494   9.714  15.778 -0.0594  0.2517  0.0598
18577W        W36101  11.181  14.188   2.843  0.1171 -0.1732 -0.2924
18578W        W36102   4.793   7.884   5.067 -0.1738  0.0119 -0.0198
18579W        W36103  16.256  17.814  15.003 -0.2334  0.0774 -0.0305
18580W        W36104  13.388   6.386   1.445  0.3215  0.2538 -0.1326
18581W        W36105  12.883  14.581  13.168 -0.2299  0.4056  0.1197
18582W        W36106  15.704   6.374   3.401 -0.0461 -0.2667  0.0005
18583W        W36107  13.551   0.226  14.320  0.0766  0.0230  0.1158
18584W        W36108  16.556   7.324  12.556  0.0564  0.2757  0.0203
18585W        W36109  12.060  14.713   4.040  0.3109  0.2341  0.2349
18586W        W36110  17.068  12.520   0.872 -0.0276 -0.0730  0.1699
18587W        W36111   4.799  11.943   1.230 -0.0476  0.4565  0.3627
18588W        W36112   2.528   0.195   1.657  0.3228 -0.2623  0.0799
18589W        W36113  14.527   3.942   0.932  0.1837 -0.1793  0.1256
18590W        W36114   3.730   0.798   4.628  0.0550  0.2139 -0.0099
18591W        W36115   1.457  10.175   0.982  0.0097 -0.0541 -0.1708
18592W        W36116  16.487   9.896  14.658  0.1403 -0.0344  0.0947
18593W        W36117  13.721   9.307  14.197 -0.1536  0.1363 -0.0925
18594W        W36118   3.488   9.665  12.931  0.3012 -0.1486  0.3489
18595W        W36119  11.320   9.827   0.793  0.1247 -0.0083  0.2217
18596W        W36120  12.478   0.050  11.372  0.2616  0.1959 -0.0988
18597W        W36121   9.059  18.343   2.968 -0.0284 -0.1727  0.0333
18598W        W36122   0.593   7.279  15.395  0.0054 -0.0984 -0.3058
18599W        W36123   3.526  10.132  11.414 -0.1488  0.0213 -0.0629
18600W        W36124  11.012   2.752  15.190 -0.1082 -0.1933 -0.0506
18601W        W36125   0.724  16.510   3.184 -0.0104 -0.1772 -0.1948
18602W        W36126  14.494  12.410   1.117 -0.2081  0.1155  0.0384
18603W        W36127   8.373   8.514   1.904 -0.0025 -0.0806 -0.1112
18604W        W36128   3.019   5.419   1.469 -0.0323 -0.1205  0.1742
18605W        W36129   4.418  14.408  11.119  0.2503  0.0086  0.4110
18606W        W36130  12.437   0.139   2.411 -0.1735 -0.3231  0.1721
18607W        W36131  17.976   7.629  10.944 -0.2383  0.1732 -0.0223
18608W        W36132   9.297  12.572   3.973 -0.4436  0.0134  0.2232
18609W        W36133  18.130   3.173   0.445  0.1201  0.3578 -0.2083
18610W        W36134   9.562   0.798  14.511  0.0978 -0.0655  0.2439
18611W        W36135  12.326  12.047   5.986 -0.0587  0.1415  0.2967
18612W        W36136   3.468   3.349  13.979  0.1896 -0.0717 -0.1666
18613W        W36137  13.003   4.526  14.095 -0.1963 -0.3049  0.1325
18614W        W36138   2.446   3.500  11.671  0.0066  0.0261  0.0093
18615W        W36139  14.759   9.723   1.059 -0.0004 -0.0736 -0.2177
18616W        W36140  17.723   1.218   2.064  0.1911 -0.0710 -0.1481
18617W        W36141  17.454   8.713  13.932  0.2851 -0.0610  0.1423
18618W        W36142  11.780   4.614   1.966 -0.1036 -0.4914  0.1373
18619W        W36143  13.691   9.029   3.957 -0.0778  0.0216  0.2471
18620W        W36144   5.845  10.224   5.469 -0.1849  0.3229 -0.1303
18621W        W36145  14.237   8.084   4.258  0.2441  0.0872 -0.3899
18622W        W36146  15.253   8.912   2.163  0.0639  0.1130 -0.0178
18623W        W36147   8.656  11.773  11.733  0.0119 -0.1843  0.1804
18624W        W36148   9.671   0.918  11.853 -0.3140 -0.1237  0.3695
18625W        W36149   8.745   4.241   3.816  0.0039 -0.1039  0.2288
18626W        W36150  17.976   1.714   3.588 -0.0343  0.0611  0.1515
18627W        W36151   1.422   5.229  15.167 -0.1275  0.0221  0.0617
18628W        W36152   7.538   7.299   4.407 -0.5238 -0.1169 -0.0929
18629W        W36153   9.203   9.327   0.425 -0.4244 -0.2719  0.1855
18630W        W36154  13.938   5.917   2.036 -0.0839  0.0842  0.2435
18631W        W36155   1.798   2.640  11.555 -0.0315 -0.2905 -0.0580
18632W        W36156   0.146   0.877  10.904  0.2003 -0.2264 -0.1353
18633W        W36157   8.879   6.213  11.817  0.4714 -0.2723  0.1752
18634W        W36158   6.712   1.190  15.661 -0.0120 -0.0485  0.1578
18635W        W36159   5.697   1.438  12.474 -0.1528  0.2387 -0.1660
18636W        W36160  14.632   7.797  12.921 -0.1022 -0.0770  0.3558
18637W        W36161   8.536  16.453  15.709  0.0165  0.1993 -0.4195
18638W        W36162   8.590   7.012   5.016 -0.0732  0.2738  0.2336
18639W        W36163   9.207  17.007  11.550 -0.0985 -0.0784 -0.0247
18640W        W36164   2.175   6.348   3.722 -0.0599  0.3260  0.0140
18641W        W36165  16.623  17.763  12.050 -0.0419 -0.0545  0.0869
18642W        W36166  17.857  12.317  12.813  0.0501  0.2200 -0.0619
18643W        W36167   9.390  16.389   2.038  0.0718  0.0166  0.2352
18644W        W36168  18.383   9.317   0.476 -0.4024 -0.4191 -0.3290
18645W        W36169   4.589   3.553   0.554 -0.0243  0.0655  0.0691
18646W        W36170   5.488  14.952   3.259 -0.3264 -0.0260 -0.0164
18647W        W36171  16.017  13.128   0.760  0.0322 -0.0473  0.2821
18648W        W36172   6.308  12.103  14.949 -0.0702 -0.1623  0.3170
18649W        W36173  13.786   5.189   1.499 -0.0219  0.0973  0.1566
18650W        W36174   0.929   9.348   0.521  0.2352 -0.1729 -0.1553
18651W        W36175  15.861  16.639  11.776  0.1791  0.0631 -0.2281
18652W        W36176  18.180  12.696   0.441 -0.1535  0.0785  0.3476
18653W        W36177  10.729  17.045   4.213  0.1197  0.1315 -0.1338
18654W        W36178   1.314   9.706   4.570  0.2466 -0.1089  0.3318
18655W        W36179   9.918  18.303   0.079  0.1716 -0.0526  0.1445
18656W        W36180   0.358   2.575   2.061 -0.1417  0.2209  0.0157
18657W        W36181   2.458   9.502  14.001  0.0580  0.4803  0.0194
18658W        W36182   5.882   2.270   3.323  0.0879 -0.3204  0.0912
18659W        W36183   7.070  13.252  14.400 -0.0613  0.0435  0.0509
18660W        W36184  12.772   9.361   2.339 -0.0586 -0.0891 -0.0024
18661W        W36185  14.427   2.194  14.681 -0.1221 -0.0620 -0.2342
18662W        W36186  17.930  16.076  15.229 -0.0665  0.0447  0.1019
18663W        W36187   3.791   3.583  13.497  0.1399  0.2816 -0.1614
18664W        W36188   2.534  12.551  15.597  0.3575  0.4677  0.0559
18665W        W36189  11.574   4.756   0.106 -0.1444  0.1142  0.1538
18666W        W36190   5.274  16.115   0.193  0.4486 -0.2015  0.1341
18667W        W36191  12.220  17.251  14.164  0.0403 -0.2006  0.1889
18668W        W36192   0.693   4.063   0.585  0.2188 -0.4766 -0.0640
18669W        W36193   2.076   3.742   4.675 -0.1760 -0.1773  0.1025
18670W        W36194   9.132   4.571   4.234 -0.2407  0.1091 -0.0309
18671W        W36195  12.690   4.528  11.370  0.2300 -0.0255  0.0728
18672W        W36196  13.759  14.205  12.879 -0.0783 -0.0670 -0.2927
18673W        W36197  10.592  15.140  12.232  0.0899  0.0103  0.0318
18674W        W36198  11.684   6.410  11.714  0.0684  0.0546 -0.2158
18675W        W36199  12.710  11.196   1.330 -0.3946 -0.0269 -0.1005
18676W        W36200   2.666  11.196   1.749 -0.0582 -0.1102  0.3692
18677W        W36201  17.497   6.376  13.718  0.0537  0.0247  0.3785
18678W        W36202   4.724   1.015  15.508  0.1043  0.0157 -0.2806
18679W        W36203  12.937   5.974  12.096 -0.0377  0.0143  0.1311
18680W        W36204  15.695   2.080   2.158  0.2112  0.1591  0.0340
18681W        W36205   9.574   6.199   0.586  0.1868  0.0617  0.1143
18682W        W36206  13.619   2.833   1.444 -0.1195  0.0549  0.0236
18683W        W36207  11.103   6.647  15.414 -0.1138  0.0050  0.1530
18684W        W36208   0.967   1.369   0.459  0.0888  0.1528 -0.0357
18685W        W36209   6.169  10.719  15.734 -0.2181 -0.1181 -0.0934
18686W        W36210   9.696   4.874   9.803 -0.0368  0.3275 -0.0887
18687W        W36211  18.116  12.396   3.445  0.1457 -0.2277  0.1233
18688W        W36212   1.089   7.335  11.687 -0.0986 -0.0673 -0.2771
18689W        W36213  13.875  12.909  14.670 -0.2314 -0.1124  0.1795
18690W        W36214   2.322   4.754  13.748 -0.0586 -0.1632  0.0051
18691W        W36215   4.401  18.199  12.868 -0.0728 -0.1381  0.1836
18692W        W36216   5.938   9.611  14.719 -0.1531  0.1765 -0.3127
18693W        W36217   1.098   9.803  13.323 -0.2889  0.0009  0.0293
18694W        W36218   8.495   6.200   4.512  0.1434  0.0500 -0.0768
18695W        W36219  18.090  14.784  15.305  0.0515  0.2031 -0.0644
18696W        W36220  17.074   8.643  12.068  0.0652 -0.0327 -0.0149
18697W        W36221   7.922  13.318   2.859 -0.0865  0.0518  0.2178
18698W        W36222   6.556   8.141  11.082  0.1103  0.2035  0.1835
18699W        W36223   7.193   0.219   3.326 -0.1002 -0.1111  0.4312
18700W        W36224  12.251  16.267   3.796  0.2383 -0.0671  0.0321
18701W        W36225   7.523   7.325   1.492  0.5698 -0.1735  0.1414
18702W        W36226   9.473  10.623   5.687 -0.2069 -0.2808 -0.3484
18703W        W36227   9.514   3.151  12.205  0.5460  0.0170 -0.0511
18704W        W36228   9.865  11.223  14.057 -0.4628  0.1789  0.3121
18705W        W36229  12.149   1.831  13.521  0.3961  0.1197 -0.0209
18706W        W36230  12.501   8.415  15.419 -0.3235 -0.2146  0.1946
18707W        W36231   7.053  15.138   1.967  0.0646 -0.0956  0.0179
18708W        W36232  11.016  10.212   4.759  0.0659  0.0321 -0.1533
18709W        W36233   9.750  10.042  11.542  0.0055  0.3108  0.0333
18710W        W36234   6.156   7.589  13.152  0.3833  0.2195 -0.0159
18711W        W36235   1.013   1.281   1.878  0.1221 -0.2066 -0.2468
18712W        W36236   0.202   0.020  13.949 -0.0086  0.1004 -0.0786
18713W        W36237  11.902  12.662   2.786  0.1112 -0.1600 -0.1480
18714W        W36238   3.754  11.799  12.639 -0.0129  0.1025  0.0522
18715W        W36239  18.227   2.359   4.231 -0.2118 -0.2023  0.0160
18716W        W36240  10.522  17.383   4.508 -0.0589 -0.0567 -0.5146
18717W        W36241  17.689   4.525  13.966 -0.0049  0.1307 -0.0086
18718W        W36242   4.801  14.713   0.366 -0.0314 -0.3167  0.0719
18719W        W36243   5.740  15.401   2.610 -0.0188 -0.0444  0.3943
18720W        W36244   8.066   2.052   4.179  0.2759  0.1509 -0.2386
18721W        W36245  10.713  14.405   2.259 -0.0921 -0.0511  0.1988
18722W        W36246  15.224  12.799   4.869 -0.0254  0.2074 -0.0736
18723W        W36247  17.768  14.004  11.694  0.2369  0.0196 -0.2192
18724W        W36248   7.135   1.090   3.117  0.1755  0.1112 -0.2567
18725W        W36249   1.332   9.349  14.940 -0.1439 -0.3679  0.4715
18726W        W36250   0.652  17.893  13.052 -0.0708 -0.0548  0.1542
18727W        W36251  15.241   3.519   2.409  0.0707  0.3618 -0.0167
18728W        W36252   6.549  14.794   2.324 -0.2972  0.0883  0.1923
18729W        W36253   0.994   5.619  15.011  0.3443 -0.0943 -0.0613
18730W        W36254   4.255  17.005  12.305  0.0699  0.0773 -0.3312
18731W        W36255  12.904  14.270  12.725 -0.3375 -0.1896 -0.0281
18732W        W36256   2.682  13.286   0.398  0.1492 -0.0950  0.1370
18733W        W36257  15.440   1.406  14.132 -0.0622 -0.0940 -0.0762
18734W        W36258   9.552  18.249   2.331  0.2651 -0.0943  0.5217
18735W        W36259   5.786   4.517  15.506 -0.0496  0.1876  0.3451
18736W        W36260  12.966  18.367  12.676  0.0920  0.1067  0.2033
18737W        W36261  11.266   9.224  11.341  0.1197  0.0244  0.1581
18738W        W36262  16.878  10.771  13.192 -0.0151  0.0542  0.3959
18739W        W36263   0.493  17.608   1.343  0.0518 -0.2404  0.2271
18740W        W36264  15.697  17.120  11.668 -0.1329 -0.0068 -0.1372
18741W        W36265  17.969  12.046   1.147 -0.2295 -0.0005  0.0927
18742W        W36266  14.631   0.976   0.203 -0.1414  0.1647 -0.0960
18743W        W36267   1.510  11.895  13.827  0.1003  0.0675  0.2865
18744W        W36268   1.628   9.770   0.692  0.2500  0.0729  0.0669
18745W        W36269  10.619  11.326   2.744 -0.0610  0.0250  0.0770
18746W        W36270  10.758   0.122  14.888  0.0919  0.1473 -0.0709
18747W        W36271   6.071  15.389  15.173 -0.0314 -0.3940 -0.1608
18748W        W36272   8.458   1.442  11.348 -0.0211 -0.1604  0.1777
18749W        W36273   7.467   3.007   3.161  0.0788 -0.2793  0.3297
18750W        W36274   3.571  17.550  15.848  0.1199  0.1731 -0.3353
18751W        W36275   2.390  15.461   2.225 -0.1285 -0.0805 -0.0019
18752W        W36276  10.839  17.266  11.412  0.2135  0.2391  0.0540
18753W        W36277  16.083  18.161   3.376  0.1556 -0.0959 -0.1596
18754W        W36278  15.943   9.051   3.827  0.4299 -0.1579 -0.1327
18755W        W36279   8.925   8.150   4.074  0.1213 -0.2307 -0.0590
18756W        W36280   3.045  12.176   2.265  0.2561 -0.0388 -0.0089
18757W        W36281   4.731  17.683   4.603 -0.0101 -0.0171  0.0292
18758W        W36282   2.834   6.442  13.822 -0.1417  0.2193 -0.2196
18759W        W36283   0.912   1.326   4.284 -0.0622 -0.0674 -0.0093
18760W        W36284  17.162  10.518   0.744  0.4946 -0.0333  0.0788
18761W        W36285  18.279  13.894  14.041  0.2304 -0.0761 -0.0860
18762W        W36286   7.783   4.439  13.490 -0.0925 -0.0850  0.1432
18763W        W36287   1.356  17.204  14.616 -0.2437 -0.0836  0.2154
18764W        W36288  18.155   7.692   1.759 -0.1551  0.0528  0.0779
18765W        W36289  13.332  11.848  12.965  0.1635 -0.1833 -0.1099
18766W        W36290  15.799   0.119   4.361  0.1526 -0.0793  0.1625
18767W        W36291   4.126  15.865   1.565  0.1221  0.1340  0.0299
18768W        W36292   0.788   1.466   3.792 -0.0861  0.1301 -0.4338
18769W        W36293  18.386   6.724  13.959  0.1712  0.0647 -0.1773
18770W        W36294  16.345   9.603   4.661 -0.0224  0.1990 -0.1623
18771W        W36295   3.822   6.297   1.945 -0.1212 -0.1023 -0.3886
18772W        W36296   4.511  16.326   3.689  0.0977 -0.0667 -0.1281
18773W        W36297   9.850  16.763   4.945 -0.0999  0.0344  0.0956
18774W        W36298   0.456   8.051  15.548 -0.1276 -0.1272 -0.2552
18775W        W36299   0.902   6.090   5.350  0.0803  0.0985  0.2158
18776W        W36300  11.314   2.086  11.746  0.2205 -0.3448 -0.2324
18777W        W36301  17.464   5.192  13.330  0.0497 -0.1046 -0.1381
18778W        W36302  15.125  15.171  11.286  0.1068  0.2574 -0.2852
18779W        W36303   0.503   3.976   3.203  0.0361 -0.1275  0.1819
18780W        W36304  11.132   2.714  14.696  0.2327  0.2340  0.3566
18781W        W36305  17.949  17.543   2.724  0.0556 -0.1151 -0.1274
18782W        W36306  16.757   1.003  13.826 -0.0076  0.2245 -0.0056
18783W        W36307  15.890  17.125  12.883 -0.2182  0.1225 -0.1295
18784W        W36308   5.614   7.269  14.743  0.1525  0.1279  0.1430
18785W        W36309   3.642   0.380  13.780 -0.0671 -0.0581 -0.1914
18786W        W36310   7.500   0.499   4.277 -0.0417 -0.1783  0.1892
18787W        W36311   0.721  11.051  14.756 -0.1471  0.1141 -0.0876
18788W        W36312   6.455   8.167   2.429 -0.2871  0.1114 -0.0587
18789W        W36313   7.611  12.845  14.886  0.0733  0.4174  0.0419
18790W        W36314  18.412   4.063   0.711 -0.0878 -0.2720 -0.1464
18791W        W36315  10.589   8.779   3.964  0.2324  0.0158 -0.4386
18792W        W36316  11.305   8.804  15.134  0.0193 -0.0774  0.0146
18793W        W36317   2.281   6.044   3.303  0.0349 -0.2768 -0.1620
18794W        W36318   6.860   4.580   3.722 -0.3277  0.1259 -0.3538
18795W        W36319   3.209  13.888  13.589  0.2082  0.1611  0.0658
18796W        W36320   9.692   8.247   2.066  0.1759 -0.0487 -0.3912
18797W        W36321   5.792  10.253  12.585  0.0834 -0.0377 -0.1709
18798W        W36322  15.694  14.964  12.011 -0.1575  0.4128  0.3183
18799W        W36323   5.743  12.840  14.432 -0.3285  0.2253  0.2746
18800W        W36324  11.979  17.196  15.607 -0.1606  0.0275 -0.0174
18801W        W36325  16.631   4.158  11.774  0.2708 -0.0953 -0.0096
18802W        W36326   2.050  12.038   2.190 -0.0678 -0.0201 -0.1268
18803W        W36327   4.293   6.696   1.647  0.1934  0.4095 -0.0752
18804W        W36328   1.552   5.123   1.511  0.2176  0.0168  0.0789
18805W        W36329  17.239  10.489   2.978  0.1256 -0.1307  0.0306
18806W        W36330   8.882  10.242   0.473 -0.2744 -0.2816 -0.1654
18807W        W36331  15.780   5.503   3.799  0.2176  0.2436 -0.1915
18808W        W36332   2.317   4.282  13.867 -0.0296 -0.0409 -0.2516
18809W        W36333   3.528  12.846  13.622  0.2752 -0.0059 -0.1469
18810W        W36334  15.954  16.001  11.948  0.0218 -0.0096 -0.1669
18811W        W36335   2.085   8.194   3.434  0.0225 -0.0184  0.0521
18812W        W36336   1.476   5.598   3.569  0.0371 -0.0090  0.0015
18813W        W36337  12.886  14.121  15.639 -0.2991  0.1341 -0.2501
18814W        W36338  18.165  13.397  12.245 -0.0146  0.0470  0.1451
18815W        W36339  13.641   3.674   1.605 -0.0169 -0.0153  0.0803
18816W        W36340  12.752   0.909   3.683 -0.1553  0.1520  0.0509
18817W        W36341   5.862  16.428  13.065  0.1915  0.2446 -0.3241
18818W        W36342   4.096   2.424  15.596 -0.0843 -0.3040 -0.0203
18819W        W36343   6.925   8.753   5.420 -0.0759 -0.1074 -0.2593
18820W        W36344   7.504   3.020   4.712  0.0157  0.1519 -0.0412
18821W        W36345  13.906   0.486  15.526 -0.1972  0.1379  0.0519
18822W        W36346   3.486   6.718  14.561  0.1334  0.2334 -0.0059
18823W        W36347   5.183   6.314  15.712  0.1630 -0.1704 -0.1011
18824W        W36348   5.776   0.045   0.257 -0.0287  0.2005  0.1720
18825W        W36349   0.176  16.146  13.273  0.3204 -0.2009 -0.1404
18826W        W36350  16.997   9.621  10.750 -0.2204  0.1854  0.1608
18827W        W36351  17.787  10.197   4.053 -0.0746  0.0989 -0.2793
18828W        W36352  13.225   9.673  12.895  0.0231 -0.1899 -0.2856
18829W        W36353  18.408  16.527  12.958  0.2347  0.2731 -0.1357
18830W        W36354  12.531   1.779  12.244  0.0993 -0.0419 -0.3827
18831W        W36355  16.063  14.694  15.792 -0.1292  0.1110  0.0960
18832W        W36356  15.868   8.476  14.117 -0.2306 -0.2359  0.0433
18833W        W36357   7.641  13.982  13.301  0.1641  0.0941  0.0492
18834W        W36358   1.266  11.203   4.932  0.0051 -0.1467 -0.3815
18835W        W36359  14.878   6.616  11.915  0.0457  0.2654  0.0786
18836W        W36360  16.984   4.956   2.762 -0.5028  0.3249 -0.1013
18837W        W36361  14.384   6.926   0.045  0.1552  0.2180  0.0272
18838W        W36362   3.333   3.929   0.670  0.0019  0.0438  0.0593
18839W        W36363   4.733   0.260   0.446  0.0630 -0.0838 -0.0750
18840W        W36364   2.613  13.164  14.909 -0.0119 -0.2201 -0.2568
18841W        W36365  14.560   1.500  12.137  0.3061 -0.1035 -0.1253
18842W        W36366   3.708  11.885  13.749  0.1301  0.2078  0.1696
18843W        W36367   1.416   8.569  12.517  0.1519 -0.1697  0.1945
18844W        W36368   1.930   9.682  15.085  0.0008 -0.0049 -0.0242
18845W        W36369  15.809   0.575   4.554 -0.1691  0.1540  0.3068
18846W        W36370   3.729  11.080   0.827  0.0340 -0.0131 -0.6360
18847W        W36371   2.846   6.440  11.895 -0.1930  0.0562  0.1502
18848W        W36372  14.142   7.996  12.247  0.0872  0.0402 -0.0561
18849W        W36373   0.546  13.977  15.724 -0.1635 -0.1069 -0.0233
18850W        W36374   4.162   4.969  11.091  0.0824 -0.4528  0.2555
18851W        W36375  12.708   1.930  13.055  0.0496  0.1439  0.1710
18852W        W36376   9.970   7.340   0.886 -0.3143 -0.1192 -0.1163
18853W        W36377   1.763   5.621   2.283  0.2291  0.1758 -0.1639
18854W        W36378  17.004   8.723  15.130  0.0279 -0.1564 -0.1232
18855W        W36379  10.680   9.169  12.618  0.1921  0.0053  0.1161
18856W        W36380  17.242  17.603   2.117 -0.2898  0.0163  0.1646
18857W        W36381  16.624   1.840  14.789 -0.0425  0.0596  0.0815
18858W        W36382   3.063   3.781  14.708 -0.2165 -0.1040  0.3133
18859W        W36383   8.883  15.635   4.032  0.1721  0.1377  0.0849
18860W        W36384  15.909   2.538  12.468 -0.0136 -0.2643 -0.0287
18861W        W36385  13.319  11.409   3.799 -0.6971 -0.1355 -0.1594
18862W        W36386   1.610  18.385  11.554  0.0543 -0.0764  0.0551
18863W        W36387   9.911   7.807   2.360 -0.0850  0.2435 -0.1855
18864W        W36388   1.194  17.840  14.508 -0.1185 -0.1638 -0.5151
18865W        W36389   1.517  12.408  14.570 -0.2511 -0.0344 -0.3729
18866W        W36390   7.810   4.775  12.492  0.1399 -0.0551 -0.0214
18867W        W36391  14.574   9.409  11.357  0.0560 -0.1186  0.0572
18868W        W36392   4.480  16.435  15.736  0.1062 -0.2028  0.2327
18869W        W36393   5.311  16.081  14.444 -0.0360  0.1473  0.0625
18870W        W36394  18.101   3.685   2.205 -0.2321  0.3978 -0.2333
18871W        W36395   3.969  11.844  13.065  0.0692  0.0533 -0.0339
18872W        W36396  10.629  12.708   3.320 -0.1556 -0.1419  0.1578
18873W        W36397  13.320   7.393  13.598 -0.1766 -0.3107  0.0830
18874W        W36398   9.872   1.460   1.265  0.2622 -0.0314  0.2612
18875W        W36399   5.957  16.439  15.133  0.0824  0.2050  0.0099
18876W        W36400   1.763  13.499  14.694  0.5594 -0.2444 -0.2430
18877W        W36401   3.567  12.231   0.251  0.0934 -0.4559 -0.1167
18878W        W36402  17.483   1.711  15.360 -0.1446  0.1072 -0.2332
18879W        W36403  12.756   4.730  12.781  0.2677  0.2772 -0.3142
18880W        W36404  10.514  10.190   4.717  0.0882 -0.2479 -0.1433
18881W        W36405  18.214   6.576  15.308 -0.0906 -0.3737  0.0608
18882W        W36406  14.047   0.132  13.807  0.1866 -0.0677  0.2400
18883W        W36407  13.173  14.845   1.374 -0.2026  0.2121 -0.2844
18884W        W36408  14.278  14.178  11.116  0.0243 -0.0105 -0.0469
18885W        W36409   6.208   3.988  12.569 -0.1989 -0.0797  0.0158
18886W        W36410   6.931   5.344   1.074  0.1661  0.0695  0.3001
18887W        W36411  10.691   9.043  14.256 -0.0360  0.2463  0.1813
18888W        W36412  11.861  17.786  10.209  0.2169  0.1058  0.0680
18889W        W36413   6.789   2.133  14.476  0.0832 -0.0552 -0.1777
18890W        W36414   0.028  18.359   1.898 -0.1451  0.0585 -0.6105
18891W        W36415   2.307   8.753  15.500  0.3122 -0.0809  0.1402
18892W        W36416  15.684  16.604  12.748  0.1363 -0.3832 -0.1974
18893W        W36417  11.117  12.081  11.146 -0.1112  0.1036 -0.0785
18894W        W36418   1.391   7.764   0.040  0.3278  0.1347  0.1043
18895W        W36419   8.544  14.768   2.277 -0.1627  0.2549 -0.0975
18896W        W36420  15.534  17.127  14.624 -0.1434  0.0065  0.3183
18897W        W36421   0.156  12.226  13.599  0.0644 -0.3957  0.1967
18898W        W36422   2.525  13.760  15.488  0.0496 -0.0159  0.3175
18899W        W36423  16.426   9.361   3.539  0.0524 -0.1258 -0.1233
18900W        W36424  14.645   3.397  13.848 -0.1679 -0.0137  0.2521
18901W        W36425  14.452  17.193  12.452 -0.0173 -0.0619 -0.0871
18902W        W36426   0.471   4.793  12.878  0.0349  0.0591  0.0502
18903W        W36427   2.005  17.784   0.277  0.0755  0.1285  0.2985
18904W        W36428   1.829  13.160  15.317 -0.1242 -0.3309 -0.0085
18905W        W36429   2.749   2.695  12.546  0.0353  0.1786  0.1573
18906W        W36430   0.062  11.932  12.254  0.0329 -0.3919 -0.0884
18907W        W36431   2.418   6.375   4.979 -0.1333 -0.3403  0.1363
18908W        W36432   1.307   9.326   2.797  0.4417  0.0490  0.1180
18909W        W36433   8.062   8.694  13.533  0.1571 -0.3504  0.0657
18910W        W36434  16.447   4.473  12.704 -0.3115 -0.1323 -0.2286
18911W        W36435   7.883   5.234   3.583 -0.1265  0.1701 -0.2362
18912W        W36436   2.892   5.187   3.281 -0.1148  0.5409 -0.0239
18913W        W36437  10.682   4.338  13.846  0.0368  0.1429  0.4887
18914W        W36438   4.747  16.079  13.617  0.2448  0.1611  0.1530
18915W        W36439   7.266  12.691  15.566 -0.0032  0.0632 -0.2428
18916W        W36440   6.963   8.065  13.630  0.1971  0.0913  0.0595
18917W        W36441   3.029  11.399   3.143  0.1041  0.3226  0.0908
18918W        W36442   2.587  15.822  11.066  0.3250  0.0989 -0.1713
18919W        W36443   7.389  14.262   1.233 -0.0931  0.0598 -0.2510
18920W        W36444   9.318   5.373  15.391  0.2355  0.0535  0.1672
18921W        W36445  12.157   6.205   1.166 -0.1068 -0.0767  0.3926
18922W        W36446  11.605  15.042   4.831  0.2019 -0.1410  0.0363
18923W        W36447  14.512  10.669   5.027  0.1656 -0.1086 -0.0847
18924W        W36448   9.087   8.737  13.820 -0.1005  0.1375  0.1323
18925W        W36449   7.635   5.354   1.422 -0.0433  0.2357  0.0032
18926W        W36450   7.674  12.545   2.411  0.3727  0.1305  0.2093
18927W        W36451  15.348   2.295  15.112 -0.2025 -0.2993 -0.1207
18928W        W36452   8.512   7.213   1.479 -0.3321 -0.0784  0.1161
18929W        W36453  12.895   6.833   1.973 -0.0217 -0.4477  0.0979
18930W        W36454   0.543  13.360  12.957  0.4189 -0.1803  0.1526
18931W        W36455   9.699  14.140  12.551 -0.0763 -0.1557 -0.3566
18932W        W36456   9.358  14.692   1.853  0.3717 -0.1537  0.1288
18933W        W36457  15.609  10.789   4.832 -0.0091 -0.0173 -0.3158
18934W        W36458   3.779   8.204   1.884  0.3155  0.0555  0.1402
18935W        W36459   8.029  14.129   0.808  0.1437  0.2408 -0.1844
18936W        W36460  11.183   4.363  13.111  0.0975  0.0479 -0.1411
18937W        W36461  15.962   9.563  12.430 -0.1654  0.0487  0.1057
18938W        W36462   2.662   7.120  14.404  0.2481 -0.1872  0.0931
18939W        W36463   0.306   0.236   0.584  0.2535 -0.0939  0.0319
18940W        W36464   7.329   3.361   3.861  0.4626 -0.0561 -0.0824
18941W        W36465  11.091   7.495  13.763 -0.1280  0.1030 -0.2653
18942W        W36466   8.650   4.731  13.001  0.1024  0.2276 -0.0430
18943W        W36467  17.265   6.251  13.240  0.1312 -0.0463 -0.0315
18944W        W36468  15.824  14.462   0.873  0.1711 -0.2131 -0.2097
18945W        W36469   1.494   0.540  10.923 -0.0793  0.0659  0.0223
18946W        W36470   9.816   6.821  12.826 -0.3959 -0.0455 -0.2227
18947W        W36471   4.778  16.813   3.581 -0.0611  0.0358  0.2389
18948W        W36472   3.513  17.477  12.178  0.0410  0.1408  0.0468
18949W        W36473   5.298  10.865   3.538 -0.4365 -0.0712 -0.1243
18950W        W36474  16.139  12.575  13.019 -0.1699 -0.2388 -0.0601
18951W        W36475  18.306  10.269  12.883 -0.0907 -0.0042  0.2747
18952W        W36476   5.332   2.300   1.191  0.0049 -0.0178  0.0447
18953W        W36477  12.607  17.027  14.519  0.0074  0.0861 -0.0096
18954W        W36478   4.494  14.647   3.520  0.1493 -0.2379  0.0342
18955W        W36479  17.135  17.617  13.385  0.2117  0.0265 -0.2171
18956W        W36480  12.742   5.069   2.360  0.0707  0.0651 -0.2439
18957W        W36481  17.582  15.044  13.001 -0.0857  0.1601 -0.0688
18958W        W36482   6.116   3.732   3.279 -0.2340  0.0402 -0.1872
18959W        W36483  17.177   8.193  14.158 -0.0227 -0.1115 -0.2823
18960W        W36484   1.752   2.179  13.207 -0.2989  0.4589  0.0431
18961W        W36485   0.873   9.728   0.255  0.1683  0.1647  0.3930
18962W        W36486   6.691   6.094   3.955 -0.1510 -0.5230  0.0351
18963W        W36487   7.458   7.593   3.325 -0.0348 -0.2039  0.1871
18964W        W36488   5.902  17.152  13.578  0.2041  0.0691  0.5505
18965W        W36489   7.101  15.275  11.383 -0.2409 -0.1167  0.1645
18966W        W36490   2.783  15.676   3.324 -0.0449  0.4190  0.0613
18967W        W36491  17.334  11.335  13.698 -0.4211 -0.1790  0.2626
18968W        W36492  11.120  11.241   2.910 -0.0353  0.0482  0.1431
18969W        W36493  14.585  16.027   4.167 -0.1881 -0.0572 -0.1660
18970W        W36494   3.542  13.871  15.643 -0.0230 -0.2121  0.0556
18971W        W36495  11.404  15.513   1.882  0.1989 -0.0260  0.1077
18972W        W36496  13.283   9.155  12.779  0.1963  0.0579 -0.1822
18973W        W36497  17.692   5.784   4.277  0.0511  0.1061  0.0420
18974W        W36498   7.351   6.189   1.250 -0.1806  0.0227 -0.3911
18975W        W36499  11.910  17.463   1.296  0.4077  0.0132  0.2310
18976W        W36500   6.161  10.963  13.502 -0.4229 -0.1377  0.0005
18977W        W36501   6.753  13.908  12.565 -0.3821 -0.0545  0.2914
18978W        W36502   2.916  17.673   1.614  0.3039 -0.1116  0.0235
18979W        W36503   0.049  12.943   3.432  0.2709  0.0089  0.0043
18980W        W36504  15.369   6.115  14.017 -0.1272 -0.0407 -0.0431
18981W        W36505   1.382  16.781   2.859  0.4783  0.0744 -0.0413
18982W        W36506  16.784   9.750   0.785 -0.0490 -0.0247 -0.0679
18983W        W36507   0.433  16.288  13.666  0.0909 -0.0645 -0.3854
18984W        W36508  14.955  14.728  12.469  0.1168 -0.1451 -0.0136
18985W        W36509  17.815   8.041  11.241  0.1022  0.3027  0.0783
18986W        W36510   4.527   4.077  13.781  0.0328 -0.0449  0.1972
18987W        W36511   2.814  17.551  15.588 -0.1043  0.0214 -0.0167
18988W        W36512   6.197  11.331   5.199 -0.2285 -0.1550  0.2601
18989W        W36513  18.318   3.553   0.106 -0.2695 -0.1655 -0.2045
18990W        W36514  14.603   3.494   0.631 -0.2944 -0.2432  0.0369
18991W        W36515   3.926  11.033  14.023 -0.1020  0.2759 -0.0602
18992W        W36516  12.819   7.625   0.887 -0.0051  0.0940 -0.0028
18993W        W36517   2.257   2.465   1.769 -0.0278 -0.1531 -0.5320
18994W        W36518  17.681   4.454   4.954 -0.0399 -0.0146 -0.1412
18995W        W36519   8.805  16.795  13.332 -0.0509  0.0518 -0.1834
18996W        W36520  14.650   7.216  14.121  0.2434 -0.1644  0.2407
18997W        W36521   4.787   7.189   1.181 -0.1342  0.0683 -0.0919
18998W        W36522  17.821   0.203  12.234 -0.3801 -0.0599  0.1290
18999W        W36523  15.608   5.741  13.825 -0.1512 -0.1423 -0.0920
19000W        W36524   6.105  15.726  14.237 -0.1409  0.0148  0.1485
19001W        W36525  12.421  14.283  12.964  0.2133 -0.1008 -0.1487
19002W        W36526  16.798  12.076   1.856 -0.0366  0.0476 -0.1130
19003W        W36527   1.933   2.580   4.267 -0.0750 -0.1788  0.0458
19004W        W36528  14.364  17.951  14.474  0.2949 -0.1844 -0.0655
19005W        W36529  12.303   6.158  12.727  0.0135  0.1935 -0.0404
19006W        W36530  10.631   8.315   3.377 -0.1057 -0.0908  0.0875
19007W        W36531   5.879   5.354   2.199  0.4641 -0.2333  0.0164
19008W        W36532   0.974  15.354  14.758 -0.3291  0.1494  0.0704
19009W        W36533  10.424  12.438   1.027 -0.0150 -0.0581 -0.1192
19010W        W36534   8.554  15.589   4.981 -0.3269  0.3726  0.1252
19011W        W36535   5.923  15.445   1.772 -0.0308  0.2099 -0.0412
19012W        W36536  14.996  11.612  15.852 -0.0401  0.0158  0.0544
19013W        W36537  17.605   9.594   1.837  0.1957  0.1310  0.0261
19014W        W36538   1.065   7.363   4.774  0.0878 -0.1842 -0.0855
19015W        W36539  16.891  12.221  11.161  0.1451  0.1083 -0.4140
19016W        W36540   2.001  15.963   1.964  0.0989 -0.2437 -0.1996
19017W        W36541   5.947   7.372   2.686 -0.1768  0.0921 -0.2529
19018W        W36542   7.343  11.375  12.606 -0.0649 -0.1021 -0.1558
19019W        W36543   8.354   7.400  11.826  0.0865 -0.1461  0.0451
19020W        W36544   3.714  11.156  15.359  0.0272  0.0250 -0.0804
19021W        W36545   9.594  16.046  11.640 -0.3940 -0.1263 -0.0792
19022W        W36546   9.510   6.168  14.372 -0.0820 -0.1284  0.0507
19023W        W36547  17.972  16.849   3.880 -0.0403  0.1782  0.1835
19024W        W36548  11.241   6.871   1.903  0.0978 -0.0867  0.0856
19025W        W36549  12.126   5.351  13.160  0.2460 -0.1085  0.2532
19026W        W36550   9.420  13.734   2.858 -0.0206  0.0878 -0.0927
19027W        W36551   7.243  11.647  13.009  0.3855 -0.3954 -0.0734
19028W        W36552   5.912  11.974   4.204 -0.0397  0.2353  0.0778
19029W        W36553   6.470   6.438   1.272 -0.3181  0.2675  0.0572
19030W        W36554   1.791   8.935   4.127 -0.1349  0.0878 -0.1044
19031W        W36555  11.334   6.931  14.746  0.0606  0.0453 -0.0231
19032W        W36556   2.946  13.109  13.117  0.1287 -0.0032 -0.0816
19033W        W36557   7.786  11.755  12.687  0.0849  0.1418  0.2543
19034W        W36558   1.904  15.809   0.113 -0.0492  0.1641  0.0159
19035W        W36559   8.735   6.797   2.750  0.0332 -0.0575 -0.1361
19036W        W36560   8.532   3.703  12.537 -0.5040 -0.1214 -0.0049
19037W        W36561   7.594  15.641   3.653  0.0635  0.2258 -0.0185
19038W        W36562   7.873  14.756   4.019  0.0152 -0.0947 -0.1950
19039W        W36563  18.001   9.150   3.287  0.0098 -0.3315 -0.0898
19040W        W36564  14.312  14.173   2.728  0.2174  0.1251 -0.0652
19041W        W36565  16.415   9.014   1.534 -0.0171 -0.1141  0.4099
19042W        W36566  16.914   2.671   4.514 -0.1424 -0.1556  0.0097
19043W        W36567  13.286  15.233   1.109  0.2709 -0.2311 -0.3175
19044W        W36568  16.542   3.108   1.791 -0.3953  0.0957  0.2209
19045W        W36569  11.027   7.956  14.973  0.0527  0.3742  0.0184
19046W        W36570  14.681  18.037  12.827  0.3021 -0.0659  0.1405
19047W        W36571  10.408  12.424   3.729 -0.0863  0.1146  0.5365
19048W        W36572  13.086   4.624   2.241 -0.2986  0.0177  0.0901
19049W        W36573  10.439  10.546   2.115 -0.0057  0.1807  0.2048
19050W        W36574   7.381  13.396   0.249 -0.0765  0.2309  0.0107
19051W        W36575   8.894   8.747  11.350  0.0587  0.1516  0.1457
19052W        W36576   0.227   3.820  10.934  0.0166 -0.2651 -0.0615
19053W        W36577  11.537   9.952  13.340 -0.0358  0.0235  0.1788
19054W        W36578   7.388  17.806   3.432 -0.0299 -0.2567 -0.3863
19055W        W36579   4.982  12.220   2.200 -0.2121  0.0714 -0.0837
19056W        W36580  12.120   6.810  15.000  0.2491  0.1215 -0.0114
19057W        W36581   0.802   7.562  13.520 -0.2193 -0.2600 -0.0391
19058W        W36582  15.127  13.940  15.208 -0.0655  0.0729  0.2060
19059W        W36583   8.954  15.837   4.951 -0.1067  0.1500  0.3121
19060W        W36584   6.620  10.633  12.408  0.1955  0.0858  0.2674
19061W        W36585  11.990   6.499   1.616 -0.4317  0.1665 -0.1048
19062W        W36586  16.190  10.794  15.526 -0.3793  0.2560  0.1875
19063W        W36587  13.056   3.118  13.727  0.3163  0.0110  0.0035
19064W        W36588   9.799  13.737  12.855 -0.3101 -0.4537  0.0868
19065W        W36589  13.126   7.572  14.548 -0.0504 -0.5213 -0.0103
19066W        W36590   1.773   6.828  14.701  0.0761 -0.2573 -0.0099
19067W        W36591  15.043  13.250  12.174  0.1310  0.2574 -0.0861
19068W        W36592  11.323  15.715   0.158  0.0844  0.2866 -0.1246
19069W        W36593  13.096   1.775   1.307 -0.1080 -0.2650  0.1542
19070W        W36594   2.299  16.822   2.865  0.1683  0.2392  0.2121
19071W        W36595  12.505   3.447   2.940  0.2316 -0.0611 -0.1722
19072W        W36596   6.648   6.744  13.287 -0.2311 -0.1835 -0.1458
19073W        W36597   8.624   5.800   3.492 -0.3302  0.0849 -0.2928
19074W        W36598   7.023   9.458  14.896 -0.0431 -0.0099  0.1403
19075W        W36599   7.275   4.451   1.396 -0.0106  0.0012  0.1981
19076W        W36600  12.804   3.627  11.864  0.0639  0.0832  0.2116
19077W        W36601  11.765  10.760   3.737  0.0708  0.1941 -0.1171
19078W        W36602   8.778   3.460  15.509 -0.2291 -0.0675 -0.0978
19079W        W36603  17.044  13.541  15.654 -0.0138  0.2294  0.0749
19080W        W36604   8.553   9.243  12.254  0.1329 -0.1182  0.0174
19081W        W36605  14.770   5.556  13.338 -0.0322  0.5118 -0.0420
19082W        W36606   2.974   6.240  15.620  0.1054  0.0879  0.1162
19083W        W36607   3.519   6.795   3.358 -0.0208  0.0543  0.2296
19084W        W36608  13.018   7.226   4.187  0.1190  0.0361 -0.2246
19085W        W36609  18.347   1.168  11.690  0.1751 -0.3350  0.0129
19086W        W36610   5.020   3.324   3.706 -0.1028  0.1928  0.0064
19087W        W36611  11.488   1.573   3.041 -0.1272  0.0204 -0.0755
19088W        W36612   2.566  11.608   3.040 -0.0886  0.0503  0.1967
19089W        W36613  16.132   9.705   0.939  0.0370  0.0892  0.0549
19090W        W36614   7.314   5.022  13.921  0.0159 -0.1317 -0.3639
19091W        W36615   2.351  10.275   0.593 -0.0016  0.4376  0.3773
19092W        W36616  13.893  13.205   3.308  0.0818 -0.0118 -0.1910
19093W        W36617  17.370   5.063   0.308  0.0277 -0.2204  0.0946
19094W        W36618   0.699  13.535   3.346 -0.1809 -0.3486 -0.2577
19095W        W36619  18.075  10.081   4.898 -0.1716 -0.0099 -0.0955
19096W        W36620   3.115  13.442  14.764  0.4165 -0.1176 -0.0182
19097W        W36621  14.247  11.654   0.525  0.0739 -0.0078  0.4932
19098W        W36622   6.833  13.307   1.002  0.0721 -0.1830  0.2151
19099W        W36623  10.198  12.281   2.322 -0.0316 -0.2588  0.0389
19100W        W36624  16.893   2.442  10.711 -0.1418 -0.3003  0.2675
19101W        W36625   0.876  11.079  15.237 -0.0035 -0.0156  0.0545
19102W        W36626   7.482   0.173  12.218 -0.5032  0.3634 -0.3344
19103W        W36627   5.897   7.122  13.193  0.2233 -0.1640 -0.2124
19104W        W36628   1.009   3.425  13.961 -0.0797 -0.2099 -0.3025
19105W        W36629  16.155  14.344  11.313  0.0765 -0.2365 -0.1002
19106W        W36630   0.083   1.167   9.947 -0.0996  0.1638 -0.2045
19107W        W36631   1.447   0.265   3.170  0.1588 -0.1350  0.0086
19108W        W36632   8.450  13.774   4.906  0.2460  0.2523 -0.0660
19109W        W36633  14.507   0.840  12.618 -0.0025  0.2395 -0.0693
19110W        W36634  13.790  18.015  12.420 -0.1542  0.0520 -0.0467
19111W        W36635   2.858  15.161   2.297  0.3707 -0.0781  0.1295
19112W        W36636   6.207  11.757   5.014 -0.1468  0.1073  0.1096
19113W        W36637  15.693  17.307   3.396  0.0862  0.1291 -0.0238
19114W        W36638  16.865   1.673  15.432  0.0390  0.1801 -0.0417
19115W        W36639  11.001   2.545  11.782  0.0561 -0.0192  0.0323
19116W        W36640  16.941  12.019   0.533 -0.0758 -0.0006 -0.0244
19117W        W36641   6.150   2.090  13.117  0.0576  0.1191 -0.1374
19118W        W36642  14.909  14.653   2.997 -0.0498 -0.3990 -0.1442
19119W        W36643   5.133   3.805   3.812 -0.1167  0.1418 -0.0235
19120W        W36644  17.243   5.554   1.934  0.1433 -0.1440  0.1732
19121W        W36645  18.167   1.480   3.987  0.0049 -0.0298  0.1863
19122W        W36646   1.263   7.614  13.310  0.0209  0.2315 -0.1891
19123W        W36647   4.133   9.547   4.321 -0.1173  0.1137  0.0634
19124W        W36648   6.748   6.892   0.934 -0.1146  0.2204  0.0926
19125W        W36649   1.267  10.230  13.873  0.0245  0.2896  0.1012
19126W        W36650   4.259   9.169  14.077 -0.2502 -0.2926 -0.3519
19127W        W36651   8.804   0.334  11.888  0.3815 -0.0710 -0.0859
19128W        W36652   1.124   1.539   3.446  0.1326  0.1090  0.2619
19129W        W36653   7.141   0.869   4.193  0.2212  0.1551  0.1960
19130W        W36654   4.261   6.137   3.609 -0.2525  0.2080  0.1065
19131W        W36655  12.740  15.081   1.172 -0.0684 -0.0471  0.0556
19132W        W36656  18.164   2.153   3.404  0.1305 -0.0443  0.2306
19133W        W36657  17.389   5.332   3.815  0.0278  0.1553  0.2572
19134W        W36658  10.241  11.690  13.189 -0.2405  0.0678  0.0781
19135W        W36659   4.398   9.863  13.445 -0.0230 -0.1857 -0.3230
19136W        W36660   4.329   6.647  13.435 -0.1098 -0.1849  0.0818
19137W        W36661   8.908   1.166   2.788  0.3802  0.2750  0.4614
19138W        W36662   3.414   1.524   1.013  0.2376  0.0625 -0.1863
19139W        W36663   2.320   9.955  14.964  0.1960  0.0826 -0.0721
19140W        W36664  10.126  17.595  12.411 -0.1361  0.0618  0.1211
19141W        W36665   7.969   2.136   2.058  0.2505  0.2841 -0.0565
19142W        W36666  11.431   3.792  12.361 -0.2983  0.0481 -0.0995
19143W        W36667   9.419   4.350  11.362  0.1436 -0.1516  0.1161
19144W        W36668  15.269  10.537  15.381  0.5841 -0.0117 -0.2655
19145W        W36669   6.447   8.136  11.580  0.1653 -0.2013 -0.0512
19146W        W36670   3.310  13.348  15.526 -0.0430 -0.2229 -0.1203
19147W        W36671   9.775   5.706  12.848  0.0614 -0.3243 -0.3019
19148W        W36672   5.731   8.145  14.927  0.2205 -0.1613  0.0465
19149W        W36673   8.746  17.197  11.193 -0.2680 -0.1339  0.0025
19150W        W36674  16.242  10.990  13.087  0.1367  0.0297  0.4207
19151W        W36675   0.789  16.531   0.865 -0.0920  0.0593  0.4116
19152W        W36676  18.061  15.847   3.759 -0.0974  0.0940  0.3339
19153W        W36677   0.986   2.759  13.211 -0.2070 -0.1422 -0.0975
19154W        W36678   9.963   7.532  12.586 -0.2401 -0.0240  0.3034
19155W        W36679   5.922   0.943   0.355  0.1697 -0.1894  0.0327
19156W        W36680  15.267  15.557   1.420  0.3954  0.0902 -0.1067
19157W        W36681   9.867   2.437   4.355  0.0418  0.1536  0.0423
19158W        W36682   3.348   4.958   0.475 -0.3075 -0.2528 -0.0239
19159W        W36683   4.009   9.003   2.274  0.1715 -0.1195 -0.1391
19160W        W36684   2.963  10.722  12.387 -0.4197 -0.2319 -0.2648
19161W        W36685   2.279   8.070   2.639  0.0851  0.2533  0.2497
19162W        W36686   8.660   1.536  13.157  0.0150  0.1510  0.3353
19163W        W36687   8.096   3.852  12.790  0.2149 -0.3235 -0.2034
19164W        W36688   1.551  11.915  13.330  0.2395  0.0372  0.0589
19165W        W36689  15.188   3.401  14.514  0.2148  0.2239 -0.0990
19166W        W36690   3.034   4.644   1.913 -0.1952 -0.1245  0.0936
19167W        W36691   4.854   1.908  15.350 -0.0604  0.0753 -0.4160
19168W        W36692  18.112  12.165  13.918 -0.0018  0.3799  0.2721
19169W        W36693   8.925  13.412   2.613 -0.0533  0.2058 -0.5688
19170W        W36694   3.266   3.266  10.103  0.1112 -0.0714  0.0352
19171W        W36695   4.853   2.720   1.138 -0.1364 -0.2189 -0.2360
19172W        W36696   0.419   7.038   3.574  0.2641  0.0884 -0.0386
19173W        W36697  16.956   4.089  14.614  0.0487 -0.0165  0.3103
19174W        W36698   5.688  15.030   1.805  0.3227 -0.4637 -0.0969
19175W        W36699   8.692   2.623  11.967  0.0399  0.1262 -0.1757
19176W        W36700  12.491   4.152  14.767  0.0083 -0.1988  0.1177
19177W        W36701   2.608  16.773   5.666 -0.1312  0.0169 -0.1735
19178W        W36702   2.289  17.093   4.838 -0.0053  0.1959 -0.0189
19179W        W36703   7.392   7.736  11.372  0.1659  0.0076 -0.2637
19180W        W36704   9.599  17.589  12.721  0.0770  0.1678 -0.2473
19181W        W36705  15.382  15.876   1.802  0.3429 -0.2986  0.3241
19182W        W36706   3.024   1.478   2.508  0.1538 -0.0315  0.0465
19183W        W36707  15.432  12.665  14.018 -0.0727 -0.0381 -0.0668
19184W        W36708   2.340   1.667   1.119  0.0839  0.1788  0.0367
19185W        W36709   4.776   9.521   3.680  0.3200  0.0851 -0.2234
19186W        W36710  13.143   6.317  13.759  0.1561  0.0326 -0.1426
19187W        W36711   9.636   1.265   1.863  0.1220 -0.0550  0.2861
19188W        W36712   5.740  12.117  11.953  0.1042 -0.1643  0.1104
19189W        W36713  17.127  11.556   3.497 -0.0389  0.0157  0.0178
19190W        W36714   1.520  12.893   0.002 -0.0285  0.1222 -0.0463
19191W        W36715  13.611   6.951  11.332 -0.1321  0.5334  0.0668
19192W        W36716  12.939   3.120   4.585 -0.1248  0.1499  0.0642
19193W        W36717   4.343   1.204  13.601 -0.2853 -0.1281 -0.0610
19194W        W36718  12.380   1.374   2.406 -0.0504 -0.0852 -0.2887
19195W        W36719  11.228   1.244  14.254  0.1641 -0.1517  0.1744
19196W        W36720  17.039  17.287  12.978 -0.0123 -0.2880 -0.2444
19197W        W36721   1.708   9.141  13.770 -0.1319  0.0120  0.2542
19198W        W36722  17.248  12.383  13.827  0.2544  0.1027  0.0182
19199W        W36723  11.683  13.506   3.984  0.0137 -0.0339  0.1149
19200W        W36724   6.129  13.520  11.009 -0.2040  0.2960 -0.0540
19201W        W36725   7.496   7.783  14.872 -0.0198  0.0337 -0.2685
19202W        W36726   4.404   5.886  15.698 -0.1678 -0.1064 -0.1466
19203W        W36727   5.458  12.624   3.371 -0.3137  0.0875 -0.1064
19204W        W36728  15.585  16.615  13.724  0.0131 -0.1172 -0.1643
19205W        W36729  10.779   9.539  11.571 -0.0393  0.0156  0.1128
19206W        W36730   0.579   3.160  11.495 -0.1571  0.0419  0.1564
19207W        W36731  14.288  18.272  11.585  0.1315 -0.1094  0.3321
19208W        W36732   5.368  15.753  11.954 -0.0441  0.1386 -0.0488
19209W        W36733  10.432  10.330   3.125 -0.0539  0.0406 -0.1593
19210W        W36734   6.373   2.701  12.541  0.1004 -0.2020 -0.0564
19211W        W36735   3.764   4.787   4.045 -0.3284 -0.1693  0.3028
19212W        W36736  11.198  13.637   3.964 -0.1951  0.3715 -0.2217
19213W        W36737   0.141   1.776   0.043  0.4161  0.0596  0.0259
19214W        W36738  14.717  16.008   3.063 -0.1290 -0.3593  0.1419
19215W        W36739   2.774   4.122  14.059  0.1908  0.0281 -0.1493
19216W        W36740   3.309   2.151  15.430  0.2876 -0.2137  0.1498
19217W        W36741   6.795   0.296   1.913  0.1299  0.1489 -0.0085
19218W        W36742   4.926  15.556  11.788  0.2901 -0.1635  0.3534
19219W        W36743  10.169   0.455  15.210  0.0940  0.0142  0.0689
19220W        W36744   0.752   8.366   1.464  0.2626 -0.1022 -0.1161
19221W        W36745  17.561   5.507   2.376  0.2941  0.1288  0.2067
19222W        W36746   7.447   5.092  11.647  0.0259 -0.3781  0.2435
19223W        W36747   4.522   7.374  14.970  0.1147 -0.0500 -0.1298
19224W        W36748  14.475   0.203   1.240  0.3487 -0.1552 -0.1621
19225W        W36749   3.694   9.798  14.366 -0.1298 -0.4018 -0.2496
19226W        W36750   1.657   3.561  12.055  0.2139 -0.0335 -0.0921
19227W        W36751   5.168  16.238   4.337  0.0975  0.1631 -0.3467
19228W        W36752   5.809   8.620  14.782 -0.0887  0.2250  0.0272
19229W        W36753   1.378   7.165   2.096  0.2284  0.3248 -0.1292
19230W        W36754  12.924   0.704  11.078  0.0873 -0.2499 -0.1424
19231W        W36755   9.093  11.877  14.644 -0.0678  0.0624 -0.0368
19232W        W36756  16.867  10.444   3.366 -0.0025 -0.1824 -0.3138
19233W        W36757   1.012   4.919  12.228 -0.3115  0.1114 -0.0131
19234W        W36758  12.500   3.082  13.986  0.2104 -0.0533  0.2037
19235W        W36759  16.685   6.944   1.978  0.0208  0.0274  0.0823
19236W        W36760  16.716   2.332  14.693  0.2876 -0.1767  0.0999
19237W        W36761  17.616   6.710   4.076  0.2998  0.2925  0.3839
19238W        W36762  13.110   0.599   3.885 -0.1626  0.1438 -0.3820
19239W        W36763  12.014   4.728  14.412  0.1167  0.1104  0.0364
19240W        W36764   4.626  10.885   2.810 -0.0853  0.1539 -0.0351
19241W        W36765  10.244  14.240   1.895 -0.2833  0.0349 -0.1096
19242W        W36766  17.384   2.870   4.218 -0.3653  0.1448 -0.1326
19243W        W36767   1.079   8.518  13.388  0.0663 -0.2858  0.2276
19244W        W36768  13.850   9.721   2.428 -0.0297  0.1257  0.3399
19245W        W36769   4.462   1.442  12.309  0.2306 -0.2291 -0.1025
19246W        W36770   5.116   9.729  15.628  0.1122 -0.0267 -0.3409
19247W        W36771   8.806   0.763   4.069  0.0342  0.0684  0.1357
19248W        W36772  10.283   5.318   3.560  0.1249  0.1572 -0.3370
19249W        W36773  17.016  12.951   5.208 -0.0973 -0.0948 -0.4187
19250W        W36774  16.323   9.457   1.683 -0.2451 -0.0411 -0.0504
19251W        W36775  15.411  15.630   2.895  0.1712  0.0490 -0.2428
19252W        W36776   1.374  13.724  14.911  0.2114 -0.4127 -0.0688
19253W        W36777   7.460   5.359   3.844 -0.1814  0.2616  0.1062
19254W        W36778  18.148   8.225  14.893 -0.0464  0.2738 -0.2794
19255W        W36779   7.655   0.880  14.633 -0.0600  0.2198 -0.1995
19256W        W36780  13.287   0.911   3.574  0.5105  0.1094  0.0509
19257W        W36781  17.166   9.608  12.455  0.2470  0.3381 -0.0224
19258W        W36782  12.018   7.475  13.276 -0.0488 -0.0298  0.2409
19259W        W36783   7.728  11.342   4.173  0.3073 -0.4943 -0.2052
19260W        W36784   0.386   4.435  12.052  0.1221 -0.0055 -0.1403
19261W        W36785   7.806   1.554  15.801 -0.3332 -0.0167  0.1091
19262W        W36786   2.325  12.034  14.485 -0.1449  0.2278 -0.1877
19263W        W36787  16.833   4.981  11.539 -0.1906  0.0703 -0.0784
19264W        W36788  10.585   2.712   0.036  0.1835 -0.2454  0.2632
19265W        W36789  17.260   6.292   9.636 -0.1244  0.1186 -0.0004
19266W        W36790  15.145   8.826  11.525  0.3012 -0.4595 -0.0747
19267W        W36791   9.271   3.326  14.565  0.4782  0.3430 -0.1057
19268W        W36792   0.301   3.850   0.362  0.1595 -0.0164  0.0101
19269W        W36793   9.777   8.296   4.463  0.0873 -0.1991  0.1098
19270W        W36794  17.283   9.682   0.092  0.2720 -0.3817 -0.1894
19271W        W36795  11.260   0.224  14.138 -0.2099 -0.2374  0.2807
19272W        W36796  12.839   9.999  13.595  0.2580 -0.2582 -0.1977
19273W        W36797   9.684   9.442  12.836  0.3954 -0.0965 -0.2680
19274W        W36798   5.627   3.943  13.605  0.0125 -0.2551  0.0443
19275W        W36799   7.459   4.993   5.439 -0.1199  0.0276  0.0616
19276W        W36800   1.664  16.674  14.465  0.0091  0.2200 -0.3466
19277W        W36801   9.197  17.641   3.975  0.2934 -0.0572  0.0828
19278W        W36802   5.545   5.093   1.989 -0.1842  0.0968  0.4941
19279W        W36803   1.433   5.297   0.459  0.1640 -0.0558  0.1249
19280W        W36804  13.092  15.938   2.060  0.2736 -0.1902 -0.1885
19281W        W36805  15.053  11.571  15.338 -0.1173  0.0051  0.1478
19282W        W36806  14.407   0.263   2.914  0.0327  0.0026  0.0506
19283W        W36807   5.004   4.952  13.346 -0.1984  0.3251 -0.0365
19284W        W36808  17.727   4.498   0.047 -0.0049 -0.0075  0.3132
19285W        W36809   0.591   0.783  12.707  0.3436  0.2699 -0.0095
19286W        W36810   0.730  16.125   0.514 -0.3475 -0.1061 -0.2319
19287W        W36811   9.914  17.575   5.852 -0.0013  0.0681 -0.0787
19288W        W36812   5.398  12.800  10.786  0.0920 -0.2805 -0.2409
19289W        W36813  12.684   8.451   0.269 -0.1660 -0.0001  0.0551
19290W        W36814   4.773   8.892  14.130 -0.2740  0.0848 -0.1147
19291W        W36815   2.599   7.031  13.442  0.1144  0.2159 -0.6220
19292W        W36816  10.003  17.349   4.580  0.4535  0.1239 -0.1071
19293W        W36817  17.211  14.572   4.577  0.0991 -0.1634  0.2488
19294W        W36818  12.533  11.300   0.048 -0.0474  0.1561  0.3212
19295W        W36819   0.665   3.257   3.695  0.1888 -0.0835  0.2974
19296W        W36820  10.203   4.057   4.475 -0.0059  0.1760 -0.1536
19297W        W36821   5.251   2.531   4.388  0.0865  0.1463  0.2201
19298W        W36822  12.879   0.825   0.789  0.1233  0.2242  0.4742
19299W        W36823  17.916   7.833   2.973  0.1823  0.1081 -0.3487
19300W        W36824   6.866   7.952   1.706  0.1050 -0.0511 -0.1866
19301W        W36825  16.919  12.534  11.587  0.2787  0.0863 -0.2393
19302W        W36826   2.145   4.883  14.299  0.4047 -0.0947 -0.0764
19303W        W36827  17.693  13.475  12.393 -0.0192 -0.2646  0.0563
19304W        W36828  12.445  16.518  12.894 -0.1557 -0.1071  0.0226
19305W        W36829   8.531  10.211  14.758 -0.0466 -0.0905 -0.1445
19306W        W36830   8.217  10.679   2.851 -0.2874 -0.2576 -0.2560
19307W        W36831   9.943   9.166  13.209 -0.0179  0.2042  0.1004
19308W        W36832   6.284   9.346  13.628  0.1295  0.0288 -0.3495
19309W        W36833   1.083   8.661  10.440 -0.4249 -0.1726 -0.2378
19310W        W36834  17.005   5.256  10.958 -0.0550 -0.1460  0.2871
19311W        W36835   7.146  15.737   2.811 -0.0688 -0.0628 -0.1580
19312W        W36836   9.524   5.032  11.852  0.0017  0.0307  0.0839
19313W        W36837  17.954   6.125   2.097 -0.2447 -0.1540 -0.3243
19314W        W36838   1.279   6.609   3.295  0.1049 -0.1185  0.0486
19315W        W36839  16.663  16.352   0.317 -0.2894  0.1373  0.1614
19316W        W36840  12.173   5.268  15.391  0.0921 -0.1333  0.1629
19317W        W36841   6.691  17.270   1.129 -0.0269 -0.1238  0.1478
19318W        W36842   9.947   7.904   0.048 -0.0655 -0.0255  0.0836
19319W        W36843  11.028   6.138   5.010 -0.1469 -0.0209 -0.1107
19320W        W36844  16.028  16.936   3.598  0.2588  0.1712 -0.0329
19321W        W36845   3.655  11.741   0.091 -0.0837  0.4369  0.0073
19322W        W36846   0.511  10.782   2.206  0.4375  0.0968  0.0371
19323W        W36847  12.845   4.325   4.782  0.0558 -0.0625 -0.1174
19324W        W36848   8.329   6.832  14.654  0.3187 -0.1557 -0.0901
19325W        W36849  14.716  11.854  12.523  0.1588  0.1081  0.1225
19326W        W36850   3.453   9.660  13.692  0.0379 -0.1193  0.0076
19327W        W36851  11.498  16.371  11.296  0.0493  0.0413  0.4901
19328W        W36852   9.750  17.813  13.655 -0.3085 -0.3264 -0.1164
19329W        W36853   2.142  16.005  11.919 -0.0168 -0.0992 -0.0041
19330W        W36854   3.335  12.649  14.852 -0.3888  0.1475 -0.1249
19331W        W36855   0.952  10.491  11.560 -0.3061  0.1618 -0.2648
19332W        W36856   5.869   0.599   2.285 -0.0514 -0.2265 -0.0795
19333W        W36857  14.136  10.179   2.452  0.0126  0.0187 -0.2206
19334W        W36858   1.117   7.125   3.957  0.1571  0.1974  0.2440
19335W        W36859  16.336  14.311   0.075  0.0891  0.1860  0.2191
19336W        W36860  14.864  12.569  13.356  0.2520  0.0770  0.1715
19337W        W36861  16.000  12.012  14.034  0.0593  0.1482  0.0231
19338W        W36862  12.578   0.176  13.586 -0.1657  0.1770 -0.0481
19339W        W36863  13.846  12.947  12.820 -0.1896  0.0269  0.1714
19340W        W36864   2.801  14.532  11.035 -0.0470  0.1378  0.1708
19341W        W36865  14.761   6.310  13.269 -0.2636 -0.0788 -0.4080
19342W        W36866  17.785   5.548  13.646  0.3894 -0.0851  0.0011
19343W        W36867   2.708   1.865   1.457  0.0652 -0.0841  0.1191
19344W        W36868  14.595  11.046  11.445 -0.1198  0.0130 -0.0017
19345W        W36869  16.826  16.379   2.101  0.0871  0.4313 -0.0443
19346W        W36870   4.336  17.793   5.129 -0.0201 -0.3324  0.0963
19347W        W36871   0.326   3.031   1.899  0.3825 -0.0943 -0.1956
19348W        W36872  17.569  16.282  10.311 -0.0294  0.1771  0.2034
19349W        W36873   0.364   2.847   1.098  0.1951  0.0396 -0.2253
19350W        W36874  11.605  15.872   2.728 -0.0564 -0.2530 -0.1006
19351W        W36875  10.500  12.190   3.145  0.0637  0.1119 -0.0494
19352W        W36876  16.593  16.278   1.672  0.0754  0.3013  0.2808
19353W        W36877  18.060  15.674  12.589  0.2256 -0.2088 -0.3977
19354W        W36878  16.422  17.100  14.678  0.4059 -0.1546 -0.2068
19355W        W36879  15.092   0.802   1.749  0.0230 -0.1939 -0.0876
19356W        W36880   0.848   5.341  14.639 -0.3254  0.1199  0.1401
19357W        W36881  14.951  13.440   2.902 -0.1287 -0.1476  0.1260
19358W        W36882  16.753   6.633   2.380 -0.1812 -0.0394  0.1361
19359W        W36883  12.074  15.649   0.547 -0.0421 -0.1272 -0.2623
19360W        W36884   2.163   2.557   1.280  0.0705 -0.1842 -0.2639
19361W        W36885   0.250  17.473   4.275  0.1830  0.1339  0.1796
19362W        W36886  16.019   6.261  11.072  0.0324 -0.1007 -0.1267
19363W        W36887   0.779   4.427   1.354  0.2565 -0.1524  0.0961
19364W        W36888  14.368   8.571  14.336  0.1726  0.0401 -0.1510
19365W        W36889  10.240  15.768  13.290 -0.0790 -0.1765 -0.0180
19366W        W36890   4.592  11.170  14.988 -0.0816 -0.1773  0.1149
19367W        W36891   4.448  17.779   5.610  0.1065  0.1795 -0.2290
19368W        W36892  12.816   9.858   0.173 -0.5042 -0.0422 -0.1511
19369W        W36893  15.247  14.461   4.866  0.1801 -0.1606  0.0392
19370W        W36894  13.135  11.311   1.193 -0.0933 -0.1450  0.0145
19371W        W36895   9.636   4.044   0.258 -0.0910 -0.1917 -0.2065
19372W        W36896   9.657  11.146   2.260  0.2859  0.3046  0.0264
19373W        W36897  11.135   6.494   2.192 -0.1942  0.2355  0.0307
19374W        W36898   6.947   4.409  11.968 -0.0258  0.2542 -0.0800
19375W        W36899   8.021   5.996  13.715 -0.2274 -0.2741 -0.2457
19376W        W36900  12.946   2.757   2.346  0.2293 -0.4075  0.4131
19377W        W36901  10.370  10.907   0.539 -0.6242 -0.0765  0.0808
19378W        W36902  15.487   8.081   1.847  0.0850  0.2489 -0.0655
19379W        W36903  13.144  17.047  13.841  0.2605  0.0127 -0.0183
19380W        W36904   0.848   5.486  13.786  0.0253 -0.3564 -0.0221
19381W        W36905   3.233   7.736   2.969  0.3283 -0.0021 -0.1370
19382W        W36906  10.221   6.514   0.014  0.1238  0.0833 -0.2259
19383W        W36907   4.546   2.058  11.759  0.2021  0.2686  0.4703
19384W        W36908   2.087   5.396  14.070  0.0445  0.0892  0.0077
19385W        W36909   2.071   8.528  11.101 -0.2092 -0.1483  0.0142
19386W        W36910  16.942   8.004   1.501 -0.4362  0.0436 -0.0305
19387W        W36911   4.426   7.647   1.606 -0.1900  0.1447  0.4008
19388W        W36912  13.620   4.921  13.078 -0.2463  0.0812 -0.0397
19389W        W36913  10.013  12.861  14.426  0.2055 -0.0793  0.4967
19390W        W36914   3.856   1.036   2.612 -0.0834  0.1672 -0.2255
19391W        W36915   6.499   2.486   1.902  0.2865  0.2377 -0.0061
19392W        W36916  11.577  17.647  10.752 -0.0254 -0.1856 -0.1245
19393W        W36917   0.191  17.770   2.209  0.3583  0.0806 -0.0363
19394W        W36918  11.211  11.587  12.566 -0.0959 -0.3578 -0.3389
19395W        W36919  15.621  14.419  11.845 -0.3564  0.0021 -0.1042
19396W        W36920   4.850  13.235  14.339 -0.1177 -0.0973  0.1844
19397W        W36921  15.125   6.087  14.513 -0.2122 -0.0254 -0.1610
19398W        W36922  11.198  13.333   4.977 -0.0632 -0.3007 -0.1394
19399W        W36923  17.724  11.851   2.824  0.3837  0.1651  0.0831
19400W        W36924   6.217  12.457   1.163  0.2283  0.1383 -0.2644
19401W        W36925   3.107  18.052   1.375 -0.1993 -0.0021 -0.2723
19402W        W36926   0.561   3.446   0.703  0.0188 -0.1132  0.4261
19403W        W36927  10.596   7.987   4.146 -0.1004  0.2494  0.2109
19404W        W36928   6.050   1.633   1.614 -0.0705  0.2151  0.0521
19405W        W36929   1.769   2.758  14.824 -0.1159  0.1736 -0.0440
19406W        W36930   8.174   0.151  15.028  0.3051 -0.2612 -0.1782
19407W        W36931  17.636  16.677  15.718 -0.0177  0.0290 -0.0839
19408W        W36932   6.642   5.836   2.047 -0.0237  0.1415 -0.2824
19409W        W36933   8.442   6.523   4.962 -0.0463  0.1828  0.4641
19410W        W36934  10.186   0.009  11.711 -0.1507  0.6005  0.2662
19411W        W36935   5.308   8.686  13.309  0.2368 -0.1535  0.3124
19412W        W36936   6.597   1.023   2.189 -0.0566 -0.0823 -0.2875
19413W        W36937  12.971  12.321  12.824  0.0989 -0.0530  0.1939
19414W        W36938  12.138   7.785  12.853  0.1089  0.1639  0.0387
19415W        W36939  15.285   6.992   2.672 -0.2453  0.2076 -0.0442
19416W        W36940   8.291  14.736  11.610  0.0584 -0.0236 -0.2497
19417W        W36941  18.204  13.072  15.512 -0.0138 -0.0159  0.0365
19418W        W36942  10.110   1.689   2.651 -0.2020 -0.0239 -0.0478
19419W        W36943   3.063   6.784   3.515  0.2435 -0.0110  0.1486
19420W        W36944  11.621   0.734  13.577  0.0021  0.1886  0.4575
19421W        W36945   0.964  17.302  14.264 -0.1022  0.0933  0.2405
19422W        W36946  15.054  17.265  15.839 -0.1252 -0.0040 -0.1068
19423W        W36947  10.933  16.182   4.872  0.0891 -0.0715  0.2044
19424W        W36948   6.568   4.160   0.963  0.0629  0.0399 -0.1533
19425W        W36949  11.341   0.109   5.318 -0.2690 -0.2694  0.0401
19426W        W36950   5.091  10.635   1.341 -0.1990 -0.0994 -0.0744
19427W        W36951   5.173   8.922  13.760  0.0158  0.0765  0.1703
19428W        W36952  16.934  14.152   2.177  0.5937  0.0744  0.0458
19429W        W36953  10.111   0.756  12.307 -0.2041  0.0780 -0.1643
19430W        W36954   1.998   3.453  15.279 -0.0419 -0.2084  0.1937
19431W        W36955   1.916   7.319   0.539  0.0364 -0.1868 -0.0130
19432W        W36956   3.412  12.773  12.196 -0.2011 -0.1566  0.0063
19433W        W36957  17.212  15.632   3.366 -0.1736 -0.0339  0.1188
19434W        W36958   9.962  10.359  10.806 -0.0199 -0.0135 -0.0590
19435W        W36959  12.561   4.529   1.948  0.2444 -0.1031 -0.0245
19436W        W36960  12.436   7.591  12.390 -0.0174 -0.5544 -0.0555
19437W        W36961   5.639  11.012   3.969  0.2305  0.2490  0.0069
19438W        W36962  12.362   9.165  14.643 -0.2490  0.2384 -0.2071
19439W        W36963  17.291  12.569   4.806 -0.0795 -0.1797 -0.1307
19440W        W36964   1.360   0.473  13.871  0.2227 -0.3733 -0.1522
19441W        W36965  13.877   6.629   1.473  0.4333 -0.1133  0.1134
19442W        W36966   5.419  15.402   1.996 -0.0208 -0.0627  0.0459
19443W        W36967   0.672  14.627  15.754 -0.0647  0.2563 -0.1751
19444W        W36968  11.174   0.275  15.225  0.1043 -0.3957  0.0137
19445W        W36969   4.960  11.988   0.692 -0.2993  0.3243 -0.4114
19446W        W36970  10.260   8.997  10.398  0.0606 -0.0878 -0.3188
19447W        W36971  15.771   1.076   1.608 -0.0547  0.2123 -0.0640
19448W        W36972   4.517   4.552  14.711  0.0644  0.0380 -0.0540
19449W        W36973  15.130  15.340   0.498  0.0579  0.1727 -0.2896
19450W        W36974   8.930  10.443   3.638  0.0534  0.1030 -0.2963
19451W        W36975  11.355   9.687  12.444 -0.2744 -0.0177 -0.1100
19452W        W36976   2.080   4.629   4.011 -0.1974 -0.0430 -0.2427
19453W        W36977  10.458  15.752  11.711 -0.3453  0.0808 -0.1716
19454W        W36978   6.207  11.319   3.687 -0.2314 -0.1584 -0.0763
19455W        W36979   8.143  14.191  11.276 -0.1692  0.3694  0.1387
19456W        W36980  12.900  14.298   0.494  0.2131  0.2163 -0.0998
19457W        W36981  11.505  15.623   3.680  0.0483  0.0888  0.2347
19458W        W36982   7.104  17.143   4.792 -0.0452 -0.2739 -0.2282
19459W        W36983   3.282  17.051   2.918 -0.0043 -0.2384 -0.1682
19460W        W36984  12.919  10.101   5.051 -0.2140 -0.1178 -0.2825
19461W        W36985  18.294  16.057  11.483  0.2454 -0.1388 -0.1647
19462W        W36986  12.174  11.772   2.953 -0.4468  0.0237 -0.1908
19463W        W36987   6.885   2.093   0.189 -0.2249  0.1048  0.0888
19464W        W36988  10.240   7.819  15.417 -0.0754  0.0068 -0.1425
19465W        W36989   8.587  13.898   2.493 -0.1400  0.0363 -0.2604
19466W        W36990   4.182  11.420   0.547 -0.0664 -0.1463 -0.1440
19467W        W36991  14.253  18.081  14.029  0.1337 -0.2713 -0.1735
19468W        W36992   8.285  12.326  15.058  0.2916  0.0500 -0.1009
19469W        W36993  13.755   6.975   1.806 -0.3207  0.0830 -0.1239
19470W        W36994   3.952   6.928   1.931 -0.2467  0.0030 -0.0157
19471W        W36995   6.702  16.750  13.474 -0.1804 -0.2035  0.3802
19472W        W36996  11.474  18.300  13.418  0.0758 -0.2178 -0.0114
19473W        W36997   7.106   0.614   0.635 -0.3615 -0.0507  0.1515
19474W        W36998   9.434  12.791   4.455 -0.1574  0.1193 -0.3386
19475W        W36999  15.350   3.634   3.696  0.1865  0.3743 -0.1042
19476W        W37000  14.631   2.932   1.557 -0.0521  0.0007  0.1070
19477W        W37001   2.055   8.541   0.015 -0.3412  0.1426 -0.0025
19478W        W37002  18.085  12.519   0.913 -0.0452 -0.4353  0.2620
19479W        W37003   5.208   3.272  11.521  0.1977 -0.2117 -0.3062
19480W        W37004  18.336   2.639   1.051  0.0768  0.2556 -0.0821
19481W        W37005   0.001   0.929   1.704 -0.0231  0.0309  0.1907
19482W        W37006  13.173  14.057   0.202 -0.1796  0.0026  0.1282
19483W        W37007  10.550   6.787  11.984  0.0200 -0.0282 -0.0983
19484W        W37008   3.852   3.951   5.430 -0.1971  0.1903 -0.1401
19485W        W37009   1.789   3.355   3.458 -0.0014 -0.1328 -0.0689
19486W        W37010  16.944  15.080  14.933  0.0568  0.2272 -0.1791
19487W        W37011  10.281  12.178  15.403  0.0217 -0.0398 -0.3340
19488W        W37012  15.435   6.338  13.194 -0.1306 -0.2333 -0.7152
19489W        W37013   3.673   3.307  12.901  0.0761  0.3354  0.0040
19490W        W37014   6.386  11.224  14.449 -0.1261  0.2596  0.0138
19491W        W37015  14.695  15.206  15.261 -0.1491 -0.0502  0.1081
19492W        W37016   4.496   5.495  14.924 -0.3563 -0.0036  0.0214
19493W        W37017   0.123  10.752  11.969 -0.2797  0.0955  0.0078
19494W        W37018  10.734  18.375  12.173 -0.1507  0.1465  0.1586
19495W        W37019   6.737  17.162  14.874  0.2353  0.0506 -0.1162
19496W        W37020   4.290  13.384  13.985 -0.1396  0.0667  0.0346
19497W        W37021  16.540   0.934  11.271  0.0664 -0.1165  0.3185
19498W        W37022  11.948   2.553  13.367 -0.0696 -0.1976  0.1285
19499W        W37023  11.030   5.415  13.185 -0.0748 -0.0905 -0.1530
19500W        W37024   9.073  13.026   0.125 -0.2239  0.1809 -0.1124
19501W        W37025  16.021   2.560   2.019 -0.2068  0.0345 -0.1601
19502W        W37026   9.128   1.503   2.489 -0.0334 -0.2808  0.1217
19503W        W37027  14.433   7.161  15.477 -0.0391 -0.0889 -0.0856
19504W        W37028   1.481  11.541   3.948 -0.1670  0.1834 -0.1787
19505W        W37029   7.749   3.220   0.593  0.3368  0.1737 -0.0635
19506W        W37030   2.016  18.333  11.825  0.0902  0.2282  0.0762
19507W        W37031   8.217  17.710  13.616  0.3026  0.1225 -0.2312
19508W        W37032   5.606  18.087  11.529  0.2657  0.0092 -0.1261
19509W        W37033   6.008  16.310   3.528 -0.1675 -0.2298 -0.2680
19510W        W37034  11.706  17.800   5.250 -0.0851  0.0076 -0.1273
19511W        W37035  10.731  15.327  13.324 -0.0644 -0.3111 -0.2869
19512W        W37036   1.859  14.543  10.748  0.0986  0.0185 -0.0574
19513W        W37037  12.407   0.308   1.884 -0.0915 -0.1088  0.2532
19514W        W37038   8.685  11.887  13.804  0.0902  0.0837  0.4857
19515W        W37039  12.235  10.489  15.067  0.0342 -0.2981  0.1519
19516W        W37040  15.439   1.517  10.804  0.2239  0.2440 -0.0845
19517W        W37041  10.275   5.484  15.841 -0.0312  0.0445 -0.4946
19518W        W37042   2.753   6.105   1.528  0.1262 -0.1871  0.1746
19519W        W37043   6.505   8.901   0.242  0.0743  0.1785  0.0879
19520W        W37044   2.821   4.078  12.364  0.1656 -0.2478  0.0786
19521W        W37045  11.437  10.405   4.367  0.3313  0.0498 -0.3513
19522W        W37046  12.713  13.278   5.710 -0.0522 -0.2283  0.2785
19523W        W37047   0.905  13.558  13.924  0.1955 -0.1816  0.0405
19524W        W37048  15.797  10.392   4.615 -0.2311 -0.1021  0.0902
19525W        W37049   8.097   8.279  14.572 -0.1595  0.2075 -0.2631
19526W        W37050   8.159  10.473  12.708 -0.1481  0.0864  0.3713
19527W        W37051   8.804   8.298   2.113 -0.4909 -0.0073 -0.2839
19528W        W37052   8.359   9.300  14.164 -0.0608  0.0366  0.1071
19529W        W37053   6.052   8.258  14.487 -0.0237  0.0684  0.0017
19530W        W37054   8.224  10.978  14.381  0.1174 -0.2379 -0.4271
19531W        W37055   1.673   9.405  13.202 -0.0544 -0.1262  0.1784
19532W        W37056   8.592   5.900   4.019 -0.1641 -0.0439  0.3200
19533W        W37057  10.976   2.405   1.288 -0.4353 -0.0498  0.1856
19534W        W37058   7.685   9.195   4.148 -0.1986 -0.1172  0.1702
19535W        W37059  12.671   0.310  11.841 -0.0849  0.2110 -0.0506
19536W        W37060   7.120  12.493  12.129 -0.1135 -0.0569 -0.2066
19537W        W37061   2.809   7.758  13.241  0.1048 -0.0407  0.1236
19538W        W37062  17.381   0.822  15.042 -0.1225  0.1080  0.0420
19539W        W37063  16.311  13.042  13.014  0.2128  0.0864  0.2740
19540W        W37064   3.606  11.534   4.741 -0.3232 -0.0736 -0.3056
19541W        W37065   2.396   6.789   0.726  0.2131  0.1289  0.0779
19542W        W37066  17.522   8.775   1.583  0.0951 -0.0668 -0.1340
19543W        W37067  15.662   1.871   1.733 -0.0665 -0.2166  0.0403
19544W        W37068  11.810  16.441  11.791 -0.0593  0.1364  0.1666
19545W        W37069   4.234  16.675  14.506 -0.3969  0.0758  0.0114
19546W        W37070   0.644   8.413  10.703 -0.3247 -0.2467 -0.2087
19547W        W37071   9.972   6.554   1.442  0.1413 -0.2904  0.0031
19548W        W37072   1.396   6.417   0.091  0.0347  0.1752 -0.0383
19549W        W37073   4.402  16.871   4.416 -0.0176  0.1069  0.0580
19550W        W37074  10.255   4.807  15.212  0.0732 -0.2901  0.0549
19551W        W37075   2.975   9.889   1.764 -0.1473 -0.0641  0.2870
19552W        W37076  14.086   7.332  15.194 -0.1162 -0.0985 -0.0527
19553W        W37077  12.663  10.874   3.439  0.0835 -0.3332 -0.0510
19554W        W37078   6.293  16.842  10.943  0.2457  0.0288  0.0413
19555W        W37079   5.350   2.847   0.051  0.1215 -0.1007 -0.0879
19556W        W37080  16.975   4.752   4.368  0.3481  0.1009 -0.0383
19557W        W37081   3.093   6.311  12.871  0.0923  0.0833 -0.0579
19558W        W37082  14.416  17.816   3.257 -0.0678  0.1148  0.1434
19559W        W37083  11.337   9.013   0.106 -0.1846 -0.3534 -0.0866
19560W        W37084   7.396   2.619  12.167 -0.0751  0.3785 -0.2149
19561W        W37085   4.171  12.216  10.860 -0.0749 -0.0054 -0.0835
19562W        W37086  11.938  16.483   1.080  0.1360  0.1211  0.0604
19563W        W37087  16.781   4.395  13.055  0.0855  0.3509 -0.1160
19564W        W37088   8.066  13.349   3.758 -0.1221 -0.4199  0.1551
19565W        W37089   5.241  10.570  12.489 -0.1495  0.1691  0.1315
19566W        W37090  13.162  13.989  13.844  0.4102  0.1149 -0.0883
19567W        W37091   2.368  15.512  15.090  0.1949  0.0707  0.1346
19568W        W37092  10.685  17.822   2.864  0.0355 -0.4429 -0.0107
19569W        W37093   3.144   7.100  14.746 -0.1932 -0.2183 -0.5555
19570W        W37094   2.752   6.043  14.190  0.1594  0.0248  0.2552
19571W        W37095  13.174   6.394   1.913  0.3509  0.0337  0.1556
19572W        W37096   8.947  12.120   2.168  0.0664 -0.1039  0.1451
19573W        W37097   8.043   1.784   1.690  0.2913 -0.2665 -0.1123
19574W        W37098   8.115  13.701  13.701 -0.0305 -0.1972 -0.1120
19575W        W37099   6.840   8.597  11.590 -0.0201 -0.0852 -0.0583
19576W        W37100   6.497   0.383  12.871 -0.0476 -0.1152  0.1807
19577W        W37101   0.095  15.118   0.158 -0.2514 -0.1768 -0.0840
19578W        W37102   8.628  11.512   3.940 -0.1954  0.0680  0.0701
19579W        W37103  17.905  14.225   3.483  0.1232 -0.1706  0.4645
19580W        W37104   3.876   8.633   4.105  0.0634 -0.1321 -0.2879
19581W        W37105   5.411  11.841   1.525  0.0416  0.1145 -0.2076
19582W        W37106   0.375   7.657  15.149 -0.1292 -0.0166  0.2806
19583W        W37107   1.252  13.211   3.262 -0.1756  0.1570 -0.3111
19584W        W37108  10.029  16.733  11.104  0.3716 -0.1226  0.0062
19585W        W37109   6.195  15.660  12.490 -0.2799 -0.0661  0.2160
19586W        W37110   6.568   5.372   3.861  0.1629  0.0348  0.0694
19587W        W37111   4.799  17.487  15.135  0.5004 -0.0390  0.1411
19588W        W37112  17.969   4.135   0.492  0.0094  0.0628 -0.0987
19589W        W37113   8.338  14.184  13.811  0.0330 -0.2216  0.0430
19590W        W37114  16.687   6.317   4.530  0.2283 -0.0231 -0.4388
19591W        W37115   3.756   1.102   2.103 -0.3238  0.0403  0.0939
19592W        W37116   8.145   5.989   5.887 -0.1171 -0.1228  0.0570
19593W        W37117  14.755  10.460  15.548  0.0056 -0.2676 -0.0838
19594W        W37118   2.230  11.359  13.474 -0.0832  0.0956 -0.1598
19595W        W37119  12.343   4.716  10.632  0.0623  0.0210  0.0648
19596W        W37120   7.338   2.490   3.344 -0.3038  0.1136 -0.0332
19597W        W37121   4.736   1.438   3.866  0.2443  0.2565  0.0194
19598W        W37122   9.301  15.697   0.924  0.0362  0.1531  0.2807
19599W        W37123   3.345   6.939  11.302  0.1421  0.1236 -0.2219
19600W        W37124   5.045  12.136  13.163 -0.2203  0.3806 -0.1270
19601W        W37125  14.920  15.522   3.087 -0.4078 -0.3620 -0.0348
19602W        W37126   2.405   8.785  13.354 -0.4129  0.2030  0.1586
19603W        W37127  13.221  10.653   2.889 -0.1136 -0.4139  0.0251
19604W        W37128   7.149   9.875   4.503  0.0862 -0.2274  0.0129
19605W        W37129  12.200   2.603   4.857  0.0588 -0.0453 -0.1531
19606W        W37130  15.028   9.649   0.063 -0.0511  0.0128  0.2774
19607W        W37131   6.760  13.047  14.822 -0.1423 -0.0514  0.0242
19608W        W37132   3.669  14.640  11.530  0.0201 -0.0511 -0.1238
19609W        W37133   3.072   1.301  12.293  0.1811  0.1184 -0.1673
19610W        W37134   6.276  12.093   3.524 -0.1773  0.0312  0.0431
19611W        W37135   1.689  16.990   2.475  0.0275  0.1371  0.0115
19612W        W37136   9.241   5.042   4.393  0.0831  0.0351  0.1552
19613W        W37137   0.809  11.980   1.426  0.2981 -0.4373 -0.2348
19614W        W37138  15.755   6.512  11.502  0.1050 -0.1411  0.1599
19615W        W37139   6.654  16.522  12.302  0.1814  0.0921  0.1422
19616W        W37140  11.526  10.909   2.914 -0.0910  0.1823 -0.2654
19617W        W37141   5.517   5.703  13.565 -0.1839  0.1087 -0.0082
19618W        W37142   0.224  17.559   3.763  0.0199 -0.1301  0.5115
19619W        W37143   6.173  17.969   0.109 -0.2908 -0.0015  0.0352
19620W        W37144   5.955   8.706   2.027 -0.1860 -0.1078 -0.1920
19621W        W37145  15.973   9.825  13.721 -0.1843  0.0125 -0.0390
19622W        W37146   4.662  16.432   5.796  0.0490 -0.0918 -0.1087
19623W        W37147  15.851   9.865  15.453 -0.0560 -0.0474 -0.1520
19624W        W37148   8.750   7.256   3.665  0.0478 -0.1152  0.0728
19625W        W37149   7.547  15.026   2.157 -0.0919  0.3138  0.2053
19626W        W37150  16.310   0.733   4.664 -0.3952 -0.2911 -0.1978
19627W        W37151   2.198  13.610  15.078  0.1407  0.2139 -0.2286
19628W        W37152   0.410  10.884   0.259  0.0415  0.0189 -0.1802
19629W        W37153  13.533  16.970   4.112 -0.0471  0.0879  0.0836
19630W        W37154  16.892   1.614  13.779  0.0492  0.0905 -0.1695
19631W        W37155  12.339   1.203   3.968  0.3905 -0.0675  0.3432
19632W        W37156   8.580   5.630   5.953 -0.2621  0.0986 -0.2511
19633W        W37157  12.354  12.862  15.296  0.1778 -0.3138  0.2153
19634W        W37158   9.767   2.813   1.039 -0.1869  0.3700  0.2381
19635W        W37159   7.074   9.031   0.851  0.0185 -0.0166 -0.0874
19636W        W37160   9.706   9.602   3.016 -0.1427  0.2543 -0.2088
19637W        W37161   5.355   0.339  15.507  0.3093  0.1859 -0.1433
19638W        W37162   9.966   5.508   4.392 -0.2710  0.2278  0.3082
19639W        W37163   0.431  11.524   1.482 -0.0940 -0.1814 -0.2159
19640W        W37164   6.856   9.172   1.658  0.1646 -0.1118  0.3015
19641W        W37165  11.293  17.339   0.563 -0.4530 -0.0439 -0.3825
19642W        W37166   8.846  16.886  13.902 -0.1578 -0.2548  0.2427
19643W        W37167   1.582  11.183  12.864  0.0084 -0.0499  0.1239
19644W        W37168   1.210   3.350  12.041  0.1278  0.3809 -0.0486
19645W        W37169  17.128   2.859  15.437  0.1991  0.4122  0.0486
19646W        W37170   9.747   7.792   4.492 -0.1533  0.0334 -0.0117
19647W        W37171  10.489  10.950   2.461  0.1827 -0.1502 -0.1391
19648W        W37172  14.858  11.708   4.658  0.0421  0.1306  0.1159
19649W        W37173  18.220  15.541   1.176 -0.1443  0.1224  0.1893
19650W        W37174  17.404   9.611  11.844 -0.0716 -0.0373 -0.2457
19651W        W37175  12.617   3.731  13.114 -0.1284 -0.0250 -0.2428
19652W        W37176   8.802   7.548  12.099 -0.1449 -0.2300 -0.1412
19653W        W37177  10.582  10.972   3.787 -0.0162  0.1517 -0.0366
19654W        W37178  14.157   3.451  11.798  0.3776  0.2062 -0.2498
19655W        W37179  12.454   6.062  11.983 -0.0523 -0.0802 -0.0672
19656W        W37180  15.200  18.148   3.405 -0.1107  0.0008  0.2166
19657W        W37181   1.319   1.272   3.005 -0.2194 -0.2114  0.4397
19658W        W37182   3.871  10.679   1.187  0.0254 -0.0519 -0.0671
19659W        W37183   8.673   8.659  12.920  0.1448  0.1359 -0.0238
19660W        W37184  14.095   4.888  14.491 -0.0649  0.0726  0.2148
19661W        W37185  16.807  11.717  10.945  0.2808 -0.2327 -0.1867
19662W        W37186  11.058  15.630  14.435  0.2601  0.1498 -0.0736
19663W        W37187  17.435   7.920  11.807  0.0162  0.0735  0.2331
19664W        W37188   5.142  10.819   0.631  0.0511  0.0408  0.2715
19665W        W37189  12.661   0.841   1.447 -0.1642 -0.0972  0.0868
19666W        W37190   6.718   8.601   2.554 -0.0040  0.0052 -0.1768
19667W        W37191   1.137  16.407  13.234 -0.3992 -0.0011 -0.3406
19668W        W37192  15.068   5.987   1.811 -0.1741  0.2735  0.2046
19669W        W37193  14.920  13.304   4.886  0.1264 -0.1609 -0.4167
19670W        W37194  11.072  11.511   2.475  0.0133 -0.3855 -0.2208
19671W        W37195  18.179   5.373  10.096  0.3285  0.1094  0.1515
19672W        W37196   7.512   8.908   2.913 -0.1829  0.2167 -0.0770
19673W        W37197  10.794   5.481  15.741  0.0179 -0.2081  0.0392
19674W        W37198   8.977   8.060  13.667 -0.1110 -0.2626 -0.0217
19675W        W37199  12.564   6.467  14.905  0.0033 -0.2794 -0.0448
19676W        W37200   4.540   0.812  13.315  0.2132 -0.0482 -0.2576
19677W        W37201  17.484  10.598   0.296  0.0642 -0.0547 -0.1910
19678W        W37202   7.570  18.296  12.772 -0.0080 -0.2216 -0.1211
19679W        W37203  13.892  13.503   2.035  0.0656 -0.0806 -0.0144
19680W        W37204   5.220   4.431  13.595 -0.1382  0.0164  0.6579
19681W        W37205   9.804   6.205  12.854  0.1327  0.0074 -0.2187
19682W        W37206  16.238  13.861  11.347  0.1531 -0.1347 -0.0574
19683W        W37207  10.295   8.750  14.456 -0.1647 -0.0057  0.0824
19684W        W37208  10.550   9.912  15.273  0.4662 -0.0437  0.0257
19685W        W37209   6.978  12.826  13.497 -0.0523 -0.3995 -0.1148
19686W        W37210   4.007  14.990  13.831  0.0146 -0.0105 -0.3472
19687W        W37211  16.940   5.722  14.065  0.1019  0.0801 -0.1988
19688W        W37212   2.502   7.758   2.288 -0.6077 -0.0476 -0.0297
19689W        W37213   9.757   0.071  13.766  0.4185 -0.1506 -0.0889
19690W        W37214   1.619  17.455   2.722  0.1044  0.0199  0.0131
19691W        W37215  12.848   7.566   0.051 -0.1378 -0.2018 -0.1494
19692W        W37216   7.029  12.298   4.290 -0.0745  0.2066  0.3294
19693W        W37217   9.745   4.245  14.415  0.1913 -0.0062  0.3750
19694W        W37218  14.293  15.084   2.716 -0.1106  0.2711 -0.0296
19695W        W37219   9.538   4.934  13.869 -0.0647 -0.1027 -0.1653
19696W        W37220  15.949  15.579  11.396  0.3089  0.1008 -0.3394
19697W        W37221  17.121  13.456   0.926  0.1036  0.3006 -0.3899
19698W        W37222  18.036   5.785  15.328 -0.1239 -0.1365  0.6117
19699W        W37223  14.960   5.167  12.726 -0.2860 -0.0984 -0.1765
19700W        W37224  14.571   2.127   3.199  0.2964  0.1197  0.2721
19701W        W37225   7.704  17.407  15.855  0.0488  0.1619 -0.3072
19702W        W37226   9.491  14.910   1.378  0.2031 -0.0338  0.1402
19703W        W37227  10.358  12.884  14.810  0.0673  0.0858  0.0323
19704W        W37228   6.001  13.197  14.155 -0.0804 -0.0469  0.1503
19705W        W37229  10.333   5.870  12.859 -0.1889  0.1232  0.0677
19706W        W37230  17.471   8.678   4.287  0.0881  0.2680 -0.2157
19707W        W37231   5.249   4.388   1.428  0.1403 -0.0477  0.1916
19708W        W37232   7.142   1.360  11.382  0.0676 -0.1749 -0.1342
19709W        W37233   4.852  15.444   2.740  0.0035  0.0608 -0.1310
19710W        W37234  13.642   2.662  14.378 -0.1657  0.1442 -0.2456
19711W        W37235   7.519  16.533   4.495  0.0582  0.0780  0.3112
19712W        W37236   0.215   4.993  14.291 -0.1320 -0.1204  0.1772
19713W        W37237  16.580   8.129   0.830  0.0498  0.0090  0.1850
19714W        W37238  14.773   7.354  13.181  0.1940 -0.0709  0.1899
19715W        W37239  13.088  17.195  14.535  0.3057  0.0584 -0.0789
19716W        W37240  12.170   5.468  12.584 -0.1221 -0.2143  0.0061
19717W        W37241  11.561   3.114   4.377  0.1513  0.0502 -0.1886
19718W        W37242   4.730   5.962  12.372 -0.1200  0.1214 -0.0090
19719W        W37243  12.468  14.307  15.041 -0.1422  0.1763 -0.0172
19720W        W37244  16.269   6.487   4.238 -0.1631 -0.0029 -0.3334
19721W        W37245  14.420   6.040  12.535 -0.0736  0.1038 -0.1318
19722W        W37246   1.150  11.616  13.449  0.0613 -0.0270  0.0487
19723W        W37247  16.157   9.424   2.615 -0.0083  0.1679 -0.0527
19724W        W37248   4.038  16.327  12.826 -0.4238  0.1127 -0.1348
19725W        W37249   0.652  14.698  12.567  0.2524 -0.1101  0.0754
19726W        W37250  10.909   9.340  13.054  0.1860 -0.0071  0.1045
19727W        W37251   3.562  11.178  11.463 -0.0010  0.0467  0.1045
19728W        W37252  16.980  18.091   0.258  0.2109 -0.2000 -0.1554
19729W        W37253   3.477   5.484   2.131 -0.2172  0.0308 -0.0587
19730W        W37254   6.588   7.477  14.990  0.2282  0.2985 -0.1148
19731W        W37255  16.831  10.299   1.766  0.1237 -0.1575  0.0939
19732W        W37256   9.329  12.469   2.136 -0.0113 -0.0576 -0.2027
19733W        W37257  15.095   0.587   5.083 -0.4328 -0.0420  0.1238
19734W        W37258   2.646   6.777   3.766 -0.0373 -0.0029 -0.0495
19735W        W37259  17.166   5.676  11.664  0.0360 -0.0385  0.2391
19736W        W37260  18.093   1.550  15.648  0.4079 -0.1065  0.1280
19737W        W37261  18.109   5.823   0.805  0.4875  0.2623 -0.0762
19738W        W37262   3.187  15.406  14.770 -0.2601  0.2591 -0.0950
19739W        W37263  15.845   7.888  12.361 -0.1435 -0.1287  0.1584
19740W        W37264   1.539  10.545  14.221  0.2468  0.3711  0.3626
19741W        W37265  12.694  12.855  15.645 -0.1621 -0.0492 -0.3024
19742W        W37266  12.251  17.356  11.690 -0.0257  0.1155 -0.3627
19743W        W37267  16.444   0.947  10.361 -0.0711  0.2205 -0.0463
19744W        W37268   6.179   2.809  14.921  0.0197 -0.1515 -0.0329
19745W        W37269  15.090  10.682   4.781  0.0771  0.2874 -0.0759
19746W        W37270  15.852   4.902  14.035  0.0546  0.2082  0.0613
19747W        W37271  13.344   3.348  10.478 -0.0232 -0.0075  0.0266
19748W        W37272   2.935  15.321   1.002 -0.1197 -0.1853 -0.0685
19749W        W37273  15.334   2.754  11.787 -0.1086  0.0095 -0.1433
19750W        W37274   5.350  12.659  14.809  0.1177  0.1145 -0.3096
19751W        W37275  15.263   5.416   3.779  0.2166  0.3423  0.2058
19752W        W37276   2.852  14.228  14.835  0.0987  0.2210  0.8019
19753W        W37277  13.216   1.167   0.568  0.1326 -0.1323 -0.2219
19754W        W37278  16.691  17.953   3.477  0.1603 -0.1608  0.0186
19755W        W37279   3.517   5.575  14.812 -0.0421  0.0332  0.1915
19756W        W37280   1.510   1.764  12.931 -0.1084 -0.1654 -0.1381
19757W        W37281   1.129   3.624   4.419 -0.1197  0.2441 -0.0255
19758W        W37282   9.077  17.143   3.730 -0.2070 -0.0196 -0.0658
19759W        W37283   0.020   3.746  12.045 -0.1679  0.0589 -0.2645
19760W        W37284  16.074   7.611  12.932  0.3476  0.3396 -0.1648
19761W        W37285   5.185  18.403   1.981 -0.0420  0.1431  0.1541
19762W        W37286  10.145  10.605   1.654  0.1735  0.1027 -0.1075
19763W        W37287   2.741   1.895   0.909 -0.0205 -0.0965  0.2114
19764W        W37288   1.176  18.132  11.469 -0.1469  0.1657 -0.0084
19765W        W37289   4.714  16.544  15.296 -0.0916 -0.3495  0.1838
19766W        W37290   7.718   1.159   5.088  0.0318 -0.0438  0.0918
19767W        W37291   7.847   1.317  12.837  0.0824 -0.2643 -0.0543
19768W        W37292  10.095  11.679  15.436  0.0527 -0.2766  0.3320
19769W        W37293   0.818  16.805  15.360 -0.1104  0.2009 -0.3287
19770W        W37294   1.411   0.159   0.588 -0.1253 -0.2796 -0.4341
19771W        W37295   5.713   3.875  12.767 -0.1443 -0.0293  0.1382
19772W        W37296  14.551   4.358   3.376  0.1015  0.2412 -0.0696
19773W        W37297  10.705  10.786  12.879  0.2379  0.1399 -0.0914
19774W        W37298   8.421   3.218  15.228 -0.2263 -0.4423  0.0293
19775W        W37299   0.678   7.107  13.443  0.1943  0.2067  0.0194
19776W        W37300  13.442   7.531   0.159  0.0951  0.4215 -0.1425
19777W        W37301   1.181  10.835   0.486  0.0119  0.0363 -0.2287
19778W        W37302   8.726  15.676  14.296 -0.1075  0.0730  0.0961
19779W        W37303   7.525   8.891  13.226  0.1214  0.1254 -0.2923
19780W        W37304  11.715  13.124  12.951 -0.2138  0.0439  0.1677
19781W        W37305   7.081   6.786  12.970  0.2233  0.0211  0.0076
19782W        W37306   5.616   5.150   4.282  0.1765 -0.1633 -0.0099
19783W        W37307   8.144  11.737  11.921 -0.2456 -0.2939 -0.0100
19784W        W37308  10.013  17.098  11.454 -0.0836 -0.2156 -0.0902
19785W        W37309   5.657  10.998   2.640  0.1123 -0.1271 -0.2188
19786W        W37310  10.897  15.701   4.056 -0.0893  0.0530 -0.0666
19787W        W37311   2.650  16.720  14.319 -0.1728  0.0716  0.0129
19788W        W37312  11.768   4.130  12.018  0.1213  0.1167  0.0922
19789W        W37313  12.763   3.300   2.427 -0.2145  0.0879  0.0483
19790W        W37314   4.714  16.496   0.430  0.0387 -0.1909  0.2275
19791W        W37315   6.639   9.986  15.154  0.0876  0.3144 -0.2188
19792W        W37316  18.095   3.899  10.727 -0.0220 -0.0527  0.3454
19793W        W37317   2.479   4.485   3.624 -0.0457  0.1088  0.2715
19794W        W37318   9.158   6.888   0.936 -0.1084 -0.1488 -0.2052
19795W        W37319  12.167   8.912   3.783  0.2943 -0.0613 -0.0448
19796W        W37320   7.427  13.876   0.178  0.4002  0.0529 -0.3487
19797W        W37321  14.800   5.420  11.866 -0.0078  0.0321 -0.0143
19798W        W37322   1.492  14.483   2.473 -0.0870  0.4061  0.2021
19799W        W37323   0.333   3.112  12.745 -0.0343 -0.0326  0.1498
19800W        W37324   1.384   0.866  14.493  0.3982  0.1750 -0.0329
19801W        W37325   1.600   7.436   1.798 -0.0008 -0.3582  0.1631
19802W        W37326  15.268   9.539  13.440  0.1834  0.0135 -0.0256
19803W        W37327   7.768  16.388   4.085  0.0651 -0.1397  0.0042
19804W        W37328  11.042  10.056   3.861 -0.2781  0.0947 -0.3256
19805W        W37329   4.044  16.290  13.438 -0.2366 -0.2860  0.0346
19806W        W37330  13.866  11.007  13.002 -0.2949  0.2494  0.1114
19807W        W37331  12.920  11.341  11.807 -0.0730 -0.0917 -0.0218
19808W        W37332   1.801   3.475   3.980  0.1141  0.0024  0.0465
19809W        W37333   5.596   9.233   2.683 -0.1466 -0.0214 -0.1638
19810W        W37334   9.802  15.853   0.983 -0.0102  0.2325 -0.0963
19811W        W37335   3.367  13.677  15.095  0.2045  0.0105 -0.3489
19812W        W37336   3.262   4.744   3.377  0.0239  0.0877  0.4901
19813W        W37337  15.218  13.438   4.465 -0.0223  0.3951  0.0893
19814W        W37338  10.103  17.239   5.095  0.1109  0.2758 -0.0639
19815W        W37339  13.859  17.204  13.335 -0.2393 -0.0468 -0.2612
19816W        W37340   9.109   0.223  14.261 -0.1153 -0.0988  0.0470
19817W        W37341  12.485  14.199  11.241 -0.0895  0.1177 -0.3097
19818W        W37342  16.376   5.278   2.025 -0.0519  0.1832  0.0843
19819W        W37343   3.116   0.628  15.779 -0.1435 -0.0495  0.1390
19820W        W37344   8.552  10.625  15.659 -0.2403  0.2654  0.4246
19821W        W37345   1.259  14.388  14.403 -0.1577  0.0916 -0.1769
19822W        W37346  12.335  17.019   5.105 -0.0522 -0.0339  0.1297
19823W        W37347  15.081   4.647   4.660 -0.0217 -0.2027  0.1672
19824W        W37348   7.471   2.804   0.533 -0.1570 -0.1876  0.2591
19825W        W37349  14.762   5.175  15.623  0.2417  0.0731  0.0008
19826W        W37350   9.778   5.073  13.417 -0.3378 -0.2262  0.1059
19827W        W37351  10.960   2.298  15.020 -0.1248  0.0334  0.3506
19828W        W37352   6.679   7.578  12.386  0.0753  0.0735  0.0478
19829W        W37353   7.892   3.820   3.389 -0.2502  0.0131 -0.2597
19830W        W37354  12.222   6.514   3.444 -0.0502  0.0125 -0.1282
19831W        W37355   0.719   8.805  12.766 -0.0348 -0.3060 -0.1319
19832W        W37356  14.764  14.663   1.603 -0.1884  0.0469  0.0470
19833W        W37357   8.032  17.663  14.607 -0.3139 -0.1314 -0.2177
19834W        W37358  10.195   1.963  14.315  0.2514 -0.3181  0.5826
19835W        W37359   8.661  17.361   0.403 -0.2273 -0.1510  0.1062
19836W        W37360   7.319  14.059  15.557 -0.1741 -0.2501 -0.1308
19837W        W37361   8.173   9.364  15.550  0.2548 -0.2224 -0.1261
19838W        W37362  18.237  12.704  12.954  0.2894  0.0722  0.0787
19839W        W37363   7.922  11.983   5.000  0.1017 -0.1267  0.1858
19840W        W37364   2.352  12.076  11.907 -0.0671  0.1230 -0.0017
19841W        W37365   2.950  11.259  14.117 -0.0653 -0.0524 -0.0458
19842W        W37366  11.287  17.973   1.903  0.1963  0.1178  0.0903
19843W        W37367  17.853   4.871  15.269 -0.1276 -0.2042 -0.1156
19844W        W37368  16.392   2.565   4.482 -0.1448 -0.0438 -0.1739
19845W        W37369   1.982  13.585  15.726  0.1555 -0.2479  0.0147
19846W        W37370   5.180   6.244  12.449  0.0607 -0.3173  0.2658
19847W        W37371  10.188   9.706   4.314  0.1407  0.3619 -0.0306
19848W        W37372  13.614  10.987   3.521 -0.0830  0.0372 -0.2911
19849W        W37373   0.095   2.693  14.695  0.0181  0.0312 -0.0412
19850W        W37374  17.421  10.733   3.381  0.0808 -0.0483 -0.2288
19851W        W37375   7.987   5.611   1.715 -0.1707 -0.2542  0.0362
19852W        W37376   6.268  10.519   1.317  0.1849  0.2101  0.2632
19853W        W37377   0.155   7.228  13.147  0.0236  0.1464 -0.2192
19854W        W37378  18.165  10.794   1.758  0.0276 -0.2321 -0.2475
19855W        W37379  18.147  17.603   2.022  0.5714 -0.1173  0.1407
19856W        W37380   2.236   0.210   3.058  0.2266 -0.0504  0.0489
19857W        W37381  17.988   6.381  12.844 -0.3319 -0.2147  0.0182
19858W        W37382   7.941   2.676  13.870  0.3381 -0.1936 -0.0982
19859W        W37383   8.659   7.657  12.549 -0.0249  0.1826  0.3888
19860W        W37384   5.374   2.472   3.514  0.0814 -0.2533 -0.0702
19861W        W37385  18.359   7.093  12.206 -0.0631 -0.1512  0.1258
19862W        W37386  12.739   3.767   2.208 -0.0187 -0.4201  0.0557
19863W        W37387  10.610  14.686  12.701  0.0358 -0.0450 -0.0389
19864W        W37388  16.045   4.925   2.166 -0.1195 -0.2856  0.1637
19865W        W37389   5.702  14.565   4.100 -0.0604  0.0871 -0.2344
19866W        W37390   6.535  10.283  13.469 -0.2093  0.0632  0.0922
19867W        W37391   4.711  15.322  12.818 -0.2799 -0.1369 -0.0563
19868W        W37392  15.008   0.673  10.793 -0.1979  0.1269 -0.1553
19869W        W37393  15.698   8.955  13.891  0.0425  0.0029 -0.0320
19870W        W37394   6.737   6.005  12.714  0.2746  0.1539 -0.1658
19871W        W37395   8.902  13.635   5.035 -0.0489  0.0995  0.0513
19872W        W37396  17.377  15.960   0.313  0.0013 -0.0731  0.5061
19873W        W37397   9.112  10.595  13.314 -0.0750  0.0375 -0.0945
19874W        W37398   2.270   1.925  14.607 -0.2038 -0.1501  0.0588
19875W        W37399   6.883   0.704  14.411 -0.1524 -0.0063  0.2276
19876W        W37400   8.330   4.105   4.182  0.3301  0.0143 -0.1172
19877W        W37401  14.385   4.235   2.629  0.4003  0.0757 -0.0324
19878W        W37402   5.128   3.657  12.835  0.0656 -0.2719 -0.1323
19879W        W37403   9.931  10.864  12.026 -0.2309 -0.2857  0.1035
19880W        W37404  16.724  17.898  14.567  0.2447 -0.1810  0.0553
19881W        W37405  13.246  16.238  13.416 -0.0488  0.3163  0.2979
19882W        W37406   4.247  16.622   1.124  0.0359 -0.1100  0.1502
19883W        W37407   1.273  12.456  15.064 -0.2621  0.0354 -0.0961
19884W        W37408  14.283   2.200  13.611  0.3420  0.3495  0.1699
19885W        W37409  17.333   9.664   3.429  0.1221 -0.0585  0.0587
19886W        W37410  13.046  10.156   2.790 -0.1984  0.2836 -0.2364
19887W        W37411   8.298  11.576  11.436  0.0602 -0.2954 -0.0194
19888W        W37412  16.794   8.298  12.369  0.2338 -0.3957  0.1169
19889W        W37413   3.092   8.190   3.302 -0.1739  0.0422 -0.0425
19890W        W37414   6.280   5.849  14.838  0.1496  0.0108 -0.2332
19891W        W37415   8.373   3.993   3.565  0.0416 -0.0749  0.1366
19892W        W37416  12.774  10.659  11.902  0.2710 -0.2173 -0.1460
19893W        W37417   9.515   6.413   4.588 -0.1759 -0.0321 -0.0285
19894W        W37418   0.008   9.283  11.922  0.1359  0.0864  0.2669
19895W        W37419   4.419  18.282   0.383  0.2325  0.0992 -0.4061
19896W        W37420  15.322  10.921  14.596  0.1147 -0.0491  0.2018
19897W        W37421  12.907  11.233   2.960 -0.0376 -0.1383 -0.2006
19898W        W37422  10.924  15.879  11.622  0.2824  0.1181 -0.2091
19899W        W37423   4.517   6.298  10.943 -0.1497  0.0869  0.1037
19900W        W37424   1.719   8.339  14.238  0.0345  0.0082 -0.0591
19901W        W37425  18.030  17.345  14.774 -0.1610 -0.1353  0.1557
19902W        W37426  11.355   9.952   3.378  0.3565 -0.0277 -0.1604
19903W        W37427  10.732  15.104   4.834 -0.4715 -0.1132  0.2843
19904W        W37428   9.389   9.960  15.257  0.3112 -0.2904  0.1111
19905W        W37429   4.076   0.668   5.072 -0.0664  0.0169 -0.1812
19906W        W37430   3.587   4.197  13.465  0.2455  0.0496  0.0819
19907W        W37431   7.338   7.577   2.254 -0.0027 -0.0281 -0.1785
19908W        W37432   4.661   0.145  10.620 -0.2883 -0.3048  0.4122
19909W        W37433   1.112   3.362   0.409 -0.1168 -0.1221  0.2664
19910W        W37434  10.420  10.127  14.806 -0.1545  0.4947 -0.0602
19911W        W37435  15.636  11.184   4.578  0.1063  0.0938  0.2718
19912W        W37436   3.136   2.606   1.829  0.2569  0.1723 -0.2237
19913W        W37437   6.268  16.887   4.549  0.0150 -0.0796  0.0224
19914W        W37438   4.597  18.094   3.064 -0.0079 -0.0745  0.0090
19915W        W37439   0.103   4.299  13.566  0.0357  0.0283  0.0010
19916W        W37440  17.267   5.308   1.075  0.0268 -0.3260  0.0466
19917W        W37441  18.245  10.555  12.373  0.0327  0.0407 -0.1040
19918W        W37442  12.109  12.703   3.596 -0.1855 -0.1199 -0.1916
19919W        W37443   5.107   6.688   3.374  0.2239 -0.2152  0.3677
19920W        W37444   6.950  17.008  10.666 -0.1767 -0.2334 -0.0207
19921W        W37445   6.143   7.558  13.710 -0.0837 -0.3405 -0.1505
19922W        W37446   2.009   3.876  13.486  0.1767 -0.1849 -0.2868
19923W        W37447   8.802  12.599   1.948 -0.0717  0.0461 -0.0716
19924W        W37448   0.487   9.678  11.102  0.2660  0.1106  0.0237
19925W        W37449   2.036   0.987  12.116  0.0724  0.1386  0.2523
19926W        W37450   8.869   6.423   0.430  0.0726  0.0812 -0.0511
19927W        W37451  11.813   2.336   4.219  0.0726 -0.0936  0.0949
19928W        W37452   0.189   9.190  11.203 -0.1398  0.2353  0.1013
19929W        W37453   1.797  14.976  15.071  0.2931 -0.0001 -0.0344
19930W        W37454   3.191  18.288   3.535  0.2059  0.3767  0.1677
19931W        W37455  18.265   3.354  12.468  0.1258  0.1298 -0.0251
19932W        W37456   2.790  10.814  11.916  0.1817  0.0270 -0.0647
19933W        W37457  13.914   6.039  10.598  0.0200 -0.0550  0.1636
19934W        W37458   9.117  17.147   4.223 -0.1541  0.3130 -0.1685
19935W        W37459  10.638   4.392   5.347  0.0186 -0.2295 -0.0346
19936W        W37460   4.958   9.464   3.153  0.0252  0.0003 -0.0730
19937W        W37461  16.185  15.260  12.762 -0.3565 -0.1696 -0.1370
19938W        W37462   6.716  15.624  11.722 -0.2449 -0.0270 -0.0332
19939W        W37463  16.494   1.060   0.284 -0.0973  0.0684 -0.0206
19940W        W37464   7.153   2.587  15.249 -0.0209 -0.0943 -0.1978
19941W        W37465   8.092  16.147  13.474 -0.0588  0.0141  0.1463
19942W        W37466   0.833   4.692   2.608  0.0492  0.1293 -0.0795
19943W        W37467  11.671   1.625  11.496  0.2022  0.1030  0.2075
19944W        W37468   4.563   9.484   4.623 -0.0825  0.1138 -0.0080
19945W        W37469   6.340   7.752  14.183  0.2788  0.0796 -0.6871
19946W        W37470  15.634  16.202  15.145 -0.4050  0.1454  0.0688
19947W        W37471  16.735   6.519   1.072  0.0565 -0.1157  0.1310
19948W        W37472   8.903   9.981  14.995  0.0027  0.0577  0.3331
19949W        W37473   3.523   2.141  14.410 -0.0980 -0.2111 -0.0877
19950W        W37474   4.888   7.809   1.966  0.1468  0.0167 -0.0912
19951W        W37475   2.489  17.980   1.413 -0.0383  0.1232 -0.3887
19952W        W37476   0.562  16.579   4.548  0.4437 -0.0499  0.2459
19953W        W37477   6.714  10.613   3.464 -0.0029  0.1641  0.2928
19954W        W37478   5.200  17.638   0.228  0.5772 -0.1262 -0.2811
19955W        W37479   1.107  13.373  15.153  0.1652 -0.0872 -0.0216
19956W        W37480   4.961   7.220  12.535  0.0058  0.0773 -0.0679
19957W        W37481  15.487   7.437   0.353 -0.0594 -0.0023 -0.0035
19958W        W37482  10.218   2.922  13.025 -0.0307 -0.2039 -0.0332
19959W        W37483  17.385  10.815   1.158 -0.1060  0.0472 -0.0625
19960W        W37484   5.612   8.595  11.771 -0.0342  0.0443  0.1220
19961W        W37485   3.342  14.922  14.481  0.1195 -0.2173  0.0436
19962W        W37486  11.769  12.848  15.313  0.0638  0.2125  0.0386
19963W        W37487   8.154  16.669  13.568  0.0061  0.0557 -0.1507
19964W        W37488   7.399  16.530  11.654  0.0816  0.0426 -0.0465
19965W        W37489   1.131   4.467  10.299  0.0585 -0.4935  0.0497
19966W        W37490   6.209  12.497   2.696 -0.0493 -0.2686 -0.0099
19967W        W37491  10.113   1.099  13.243  0.0004  0.2244  0.1284
19968W        W37492  16.139   6.919  14.737  0.0798 -0.0724  0.3235
19969W        W37493   3.589   1.814   1.922  0.1405  0.0301 -0.0966
19970W        W37494   8.089   6.919   4.203  0.1429  0.5119 -0.1248
19971W        W37495   4.887  14.615  11.264 -0.1398  0.1753 -0.0741
19972W        W37496   7.164   0.555   0.090 -0.0210 -0.2697 -0.1240
19973W        W37497  14.469  13.523  14.252  0.1281 -0.1233 -0.0408
19974W        W37498  14.679   9.558   4.113 -0.1631 -0.2791 -0.0901
19975W        W37499  10.882   0.974  15.569  0.3241 -0.2571 -0.2470
19976W        W37500  15.743  15.211   1.218 -0.2780  0.0296 -0.4378
19977W        W37501   2.867   5.279   4.012  0.6416  0.2417 -0.1683
19978W        W37502   2.249   1.174   5.719 -0.0790  0.2070  0.1757
19979W        W37503   4.520  18.406   0.993  0.3046 -0.5198 -0.0531
19980W        W37504   8.848   7.055  11.233  0.0309  0.0609 -0.2216
19981W        W37505  17.502  11.092   4.002  0.2655  0.1275  0.0364
19982W        W37506   6.899   9.788   0.842 -0.2450  0.0821  0.4475
19983W        W37507  17.415  15.663   2.437 -0.2806 -0.0030 -0.0938
19984W        W37508   2.238   1.012   4.133  0.2275  0.1649  0.3516
19985W        W37509  16.813   8.852   2.396 -0.1427  0.2385 -0.1590
19986W        W37510  11.485  16.402   3.493  0.4493 -0.0052 -0.1666
19987W        W37511  14.145  16.772   0.684  0.0776  0.0363 -0.1844
19988W        W37512   6.938   6.170  14.857 -0.0121  0.1326  0.0508
19989W        W37513  13.583   6.948  14.769  0.2046 -0.0845 -0.1067
19990W        W37514   2.626  16.019   4.187  0.5464  0.3515 -0.0136
19991W        W37515   0.302   9.990   1.080  0.0642  0.2047  0.3820
19992W        W37516   2.544   1.588  12.660 -0.2717  0.0605 -0.1806
19993W        W37517   4.421   1.106   0.173 -0.0728  0.2845  0.2968
19994W        W37518   1.428   4.020  12.288 -0.1578 -0.1769 -0.2962
19995W        W37519  14.205  14.812  15.247 -0.0525 -0.0759  0.1169
19996W        W37520  10.334  17.832   2.139 -0.1011  0.1336 -0.0611
19997W        W37521  12.449   0.712   0.473 -0.4829  0.0743 -0.2156
19998W        W37522  16.449  16.879  14.253  0.1657 -0.0366  0.1306
19999W        W37523   0.082   9.775   2.519 -0.0919  0.0226 -0.1607
20000W        W37524   2.072   7.887  12.058  0.3324 -0.0405 -0.1012
20001W        W37525   8.353   8.464  15.407 -0.0542  0.4143 -0.0814
20002W        W37526  15.909   9.656   4.054 -0.1618 -0.0575  0.0391
20003W        W37527   7.295   3.033  10.808 -0.1072  0.1718  0.1611
20004W        W37528   5.595   6.629   4.577 -0.1512 -0.2290  0.1717
20005W        W37529  12.934  16.522   2.867  0.2505  0.0907 -0.0357
20006W        W37530   2.106   0.600  13.645 -0.0766 -0.0490 -0.1750
20007W        W37531   6.486  16.277   3.717 -0.1146  0.1827  0.1047
20008W        W37532   7.408  15.719  13.142 -0.2051 -0.2536 -0.3056
20009W        W37533  16.109  17.354  12.447 -0.1982 -0.0196  0.1888
20010W        W37534   4.459   7.990   0.639  0.0195  0.1360 -0.2455
20011W        W37535  11.759   1.905  12.737 -0.2561  0.0612  0.2465
20012W        W37536  17.622   6.144   1.335  0.2277 -0.2040  0.0121
20013W        W37537   0.603   3.011   9.618 -0.0889  0.0577 -0.2097
20014W        W37538   4.961  16.602  12.987  0.2569 -0.3822 -0.2174
20015W        W37539   7.686   7.436   3.947 -0.2247 -0.0132 -0.0924
20016W        W37540  16.283   2.104   1.437 -0.8699  0.2137 -0.0911
20017W        W37541   5.866   9.401  15.279 -0.1933  0.0173  0.2737
20018W        W37542   9.980   5.288  10.989 -0.1733 -0.2303 -0.0964
20019W        W37543   1.523  16.432   3.571  0.0971  0.1122  0.3977
20020W        W37544  12.135  16.860   0.117 -0.3045 -0.1177  0.2055
20021W        W37545  15.885  11.310  12.801  0.0418 -0.2414  0.0976
20022W        W37546   2.865   6.017   4.010 -0.2487  0.2438  0.0527
20023W        W37547   5.460   8.594  12.374  0.1360 -0.4603 -0.1913
20024W        W37548  15.290   7.921   0.398  0.0105  0.2943  0.2292
20025W        W37549  17.191  18.310  15.407 -0.1487  0.1524  0.2253
20026W        W37550   7.220   6.013   4.746  0.0380  0.2298 -0.1287
20027W        W37551  12.841   7.873   4.435 -0.2355 -0.0131  0.3419
20028W        W37552   3.713  15.506  12.196 -0.1149  0.0684  0.3815
20029W        W37553  15.234  16.897  12.900 -0.3426  0.1416  0.1533
20030W        W37554  11.361   6.831  11.703  0.2444  0.0470  0.0035
20031W        W37555   2.291   4.909  14.854  0.1304  0.0317  0.0384
20032W        W37556  15.304   1.481   0.031  0.1720 -0.0926  0.0510
20033W        W37557   4.983   2.906   3.493  0.0409 -0.1304 -0.0104
20034W        W37558   5.177  17.526   2.362 -0.0362 -0.0481  0.0377
20035W        W37559   0.324   9.979  14.959  0.0044 -0.0270  0.1977
20036W        W37560   6.758   7.034   1.784 -0.1452  0.1226  0.0701
20037W        W37561   3.200  14.626   2.566 -0.1972  0.0368  0.1415
20038W        W37562   2.024   9.253   4.533 -0.0791  0.1040 -0.0105
20039W        W37563   2.217  17.750  12.772 -0.0756 -0.1770 -0.1670
20040W        W37564   9.918  15.887   1.483  0.3124  0.3221  0.1830
20041W        W37565  18.227  16.651  14.054  0.1959  0.0169 -0.3570
20042W        W37566  12.111  13.984   1.800 -0.1921  0.2122 -0.0587
20043W        W37567  16.088  11.302   1.763  0.2596 -0.0770 -0.2481
20044W        W37568  13.885  15.525   4.911  0.0139  0.2804  0.3272
20045W        W37569   8.506   1.023  14.816  0.2119 -0.0058 -0.0141
20046W        W37570   9.687  18.113  12.383  0.0823 -0.0147  0.3221
20047W        W37571  16.291   6.905   2.291  0.1658  0.0504  0.2271
20048W        W37572   4.267   9.710  11.956  0.2953 -0.1218  0.4121
20049W        W37573   3.985   4.286   2.315 -0.0496 -0.0183  0.0894
20050W        W37574   4.227   7.142   5.011  0.3308 -0.2155 -0.1654
20051W        W37575  16.113   7.783   4.568 -0.2917 -0.2654 -0.1511
20052W        W37576   9.597   6.015  13.511 -0.0823 -0.1076  0.0468
20053W        W37577   4.569   2.115  15.754  0.2185  0.2806  0.3067
20054W        W37578  13.768   9.952   6.172 -0.0426  0.1458 -0.1194
20055W        W37579  12.900   2.183   0.211  0.0257  0.0024 -0.3936
20056W        W37580  13.704   6.566  12.152 -0.0940  0.4843  0.1144
20057W        W37581  12.555  11.858  14.643  0.4130  0.0751 -0.1504
20058W        W37582  15.049  17.220  14.151  0.1632 -0.0622  0.0130
20059W        W37583   9.828   7.602  11.459  0.0861  0.0414  0.0470
20060W        W37584   4.385  17.860   1.530 -0.1583  0.1651  0.0334
20061W        W37585  15.662  17.349  12.125  0.1710 -0.1280  0.4060
20062W        W37586  12.649   0.041  10.422  0.2122 -0.0489  0.3135
20063W        W37587   8.374  18.211   5.156 -0.1516  0.0673  0.0604
20064W        W37588   8.414  13.349  13.946  0.1834 -0.0246  0.1764
20065W        W37589  13.045  14.603   2.520  0.1944  0.0385  0.2312
20066W        W37590   6.284  12.700  12.676 -0.0119  0.0067 -0.0446
20067W        W37591   9.886   2.111  15.005 -0.3920 -0.2995  0.1348
20068W        W37592  12.796   1.888  11.201  0.1602 -0.0387 -0.1599
20069W        W37593  10.101   6.236   0.464  0.0796 -0.0665  0.2686
20070W        W37594  17.454  14.506  14.212 -0.1720  0.0427  0.0544
20071W        W37595   3.140  12.131  12.999 -0.0577 -0.2270 -0.1503
20072W        W37596   9.044  12.566  15.832  0.0535 -0.1627  0.2379
20073W        W37597  10.163   7.394   1.728 -0.0269 -0.1028 -0.3448
20074W        W37598   0.375   9.992   0.040 -0.0803 -0.2013  0.4388
20075W        W37599  11.626   2.887   0.991 -0.3865  0.2792  0.1831
20076W        W37600  14.904   7.908   3.047  0.1707 -0.0415 -0.0177
20077W        W37601   8.969   5.304   4.814  0.4965  0.1076 -0.1998
20078W        W37602  13.468  11.292  11.779 -0.1937  0.2216  0.0183
20079W        W37603   3.537   7.111   0.027 -0.0871 -0.1212 -0.1753
20080W        W37604  13.262  13.567  14.778 -0.0027 -0.2502  0.1739
20081W        W37605   8.282  13.390  13.400 -0.1409 -0.1497  0.0276
20082W        W37606   2.126   1.187  15.325  0.1402  0.1160 -0.1755
20083W        W37607  11.521  10.466   1.527  0.4250  0.1587  0.3813
20084W        W37608  17.932  11.380   1.470  0.0158  0.2295  0.6207
20085W        W37609  18.103  17.680   1.439  0.0093  0.0478  0.4621
20086W        W37610   7.642   5.734   4.991  0.0937 -0.1018 -0.2724
20087W        W37611   4.745   6.914   1.588  0.0177 -0.0863  0.0745
20088W        W37612   4.999  15.080  11.387 -0.0281 -0.0735 -0.0757
20089W        W37613  12.674   3.519   1.795 -0.3142 -0.1007 -0.0407
20090W        W37614  11.802  10.938  13.845 -0.1623 -0.7002  0.0422
20091W        W37615   3.598   6.333  11.994 -0.1790  0.1781 -0.2653
20092W        W37616  16.050  16.850  12.519  0.3141  0.0338  0.0386
20093W        W37617  16.574   7.350   4.513  0.0557 -0.0161  0.2133
20094W        W37618  13.373  15.710   3.061  0.0422  0.2085 -0.1405
20095W        W37619   7.939  11.961   1.998 -0.1884 -0.2559 -0.2323
20096W        W37620   7.014  14.443   4.262  0.0091  0.0266  0.1458
20097W        W37621   5.137   5.406   0.667  0.1736 -0.0365 -0.2848
20098W        W37622  14.846   4.119  11.358  0.0128  0.1477 -0.1396
20099W        W37623   3.012  14.773  14.109 -0.2451 -0.2104 -0.1928
20100W        W37624  10.722  11.216  12.037  0.2601 -0.2645 -0.1347
20101W        W37625  13.479   5.390  12.189  0.1713  0.0851  0.1390
20102W        W37626   8.697   3.825   3.213 -0.3186 -0.0357  0.0439
20103W        W37627  16.718  16.553  15.331 -0.1327  0.0078 -0.0968
20104W        W37628   6.373  11.953  10.440  0.0095  0.0046  0.1862
20105W        W37629   1.568   3.114   5.285 -0.1332  0.0612  0.2633
20106W        W37630   4.863  14.037   4.246  0.0760  0.1166  0.2478
20107W        W37631   4.626  17.211   4.805 -0.2021  0.1253  0.1803
20108W        W37632  15.073  11.483   4.116 -0.1382 -0.1595  0.2651
20109W        W37633  13.821   8.005  11.238  0.0329 -0.3779 -0.0010
20110W        W37634  15.322  14.310  13.736  0.2497 -0.1572  0.1640
20111W        W37635   2.760   0.485  11.709 -0.0204  0.3047  0.3222
20112W        W37636   4.947  16.084  12.681  0.4634  0.2246 -0.1700
20113W        W37637   1.420  13.288  10.947 -0.1035 -0.1482  0.1326
20114W        W37638  12.039   0.732   1.836  0.0498 -0.0521 -0.1244
20115W        W37639  16.033   9.221   1.262 -0.1304  0.1649  0.0094
20116W        W37640  12.121  15.342   4.798  0.0251 -0.1181 -0.0534
20117W        W37641  14.430   5.897  13.295  0.1597  0.4300  0.4286
20118W        W37642  14.378   7.413   1.349  0.1783 -0.2124  0.2244
20119W        W37643  10.221   1.982   5.014  0.2859  0.2050 -0.0965
20120W        W37644  14.951   9.271  10.931  0.3083  0.0823  0.0056
20121W        W37645   6.410  16.512   0.172 -0.1031 -0.0202 -0.0040
20122W        W37646  14.307  17.394  13.014 -0.1341 -0.0032 -0.0646
20123W        W37647   0.579  17.647  14.303  0.3286 -0.2051 -0.0904
20124W        W37648   6.006  11.313  12.251 -0.3338  0.0834 -0.2009
20125W        W37649   1.521   1.996   3.644 -0.1375  0.0289 -0.1647
20126W        W37650   7.061  17.994   0.478  0.2077 -0.2780 -0.1042
20127W        W37651  13.481   5.809   3.571 -0.3143  0.0206  0.0933
20128W        W37652   7.148   6.821  14.035  0.1764  0.0011  0.0749
20129W        W37653   3.716  13.797   2.506  0.2122  0.0187  0.1255
20130W        W37654  16.767   9.227  15.277  0.0455  0.1315 -0.0839
20131W        W37655   7.573   5.244   4.968  0.0890 -0.0302  0.0798
20132W        W37656   9.008   9.132  11.641 -0.6109  0.3190  0.2144
20133W        W37657   0.086  12.061   3.914 -0.4155  0.3348 -0.1795
20134W        W37658  11.285   8.683   2.769  0.0103 -0.1689 -0.3459
20135W        W37659   9.072  15.342   4.912  0.2061 -0.0563  0.3282
20136W        W37660  17.893  13.141   0.613 -0.1477 -0.0351 -0.0868
20137W        W37661   4.921   9.136   2.676  0.0724 -0.1741 -0.1860
20138W        W37662   5.810   6.551   2.799  0.0568  0.2507  0.0861
20139W        W37663   9.599  15.688  12.045  0.0637  0.1459  0.0774
20140W        W37664  12.966  11.855  12.585 -0.1769 -0.0478 -0.2095
20141W        W37665   1.635   8.966  15.099 -0.1667  0.1260  0.3528
20142W        W37666   8.230   9.041  15.188 -0.1192  0.0237 -0.0368
20143W        W37667   8.123  12.793  14.877  0.0308  0.0529  0.5582
20144W        W37668   5.490   2.419  13.616 -0.2786  0.0606  0.0692
20145W        W37669  10.460   6.846   3.321 -0.0472  0.4848 -0.0995
20146W        W37670   1.862  14.678   1.471 -0.1298 -0.2501 -0.1104
20147W        W37671   3.512  13.160  13.228 -0.2192 -0.3120 -0.0340
20148W        W37672   6.628  13.983   4.318 -0.1987 -0.5341  0.1537
20149W        W37673  16.485   3.219  12.580 -0.1626  0.1338  0.1520
20150W        W37674   7.584   2.799   3.677 -0.1206 -0.0812  0.0821
20151W        W37675   9.422   1.263   3.731  0.5281 -0.2634  0.1311
20152W        W37676  18.056   8.794  11.883  0.0482 -0.0571  0.3967
20153W        W37677   6.153   6.422  15.495 -0.0975 -0.1275 -0.1478
20154W        W37678  11.637   9.221  11.623  0.1421  0.1509  0.4826
20155W        W37679   9.867  12.237  15.671  0.2777 -0.0187  0.1111
20156W        W37680   5.586   1.352   4.923  0.0388 -0.1603  0.1180
20157W        W37681  16.910   7.873   0.071 -0.0876 -0.0232  0.1792
20158W        W37682  13.154  13.879   4.762 -0.1312 -0.1519  0.1687
20159W        W37683  11.336  16.616  11.717  0.2982  0.0200  0.0130
20160W        W37684  13.089  13.405   0.811 -0.2563 -0.1015 -0.0614
20161W        W37685   3.311  11.685   4.355 -0.1672 -0.1547 -0.1237
20162W        W37686   2.468   5.502  10.450  0.1609  0.0807  0.0822
20163W        W37687  11.432   2.454  12.061 -0.1238 -0.1455 -0.0326
20164W        W37688  16.010   0.902   4.184 -0.0411 -0.1658  0.1779
20165W        W37689   2.637  15.256  10.896  0.1374  0.1733 -0.1118
20166W        W37690  16.100  13.093  15.585 -0.1750 -0.1808  0.2982
20167W        W37691   6.080   1.457   2.455  0.0700  0.1639  0.1608
20168W        W37692   4.979   6.347   3.847  0.1238  0.0008 -0.1285
20169W        W37693  10.931  12.183   4.810 -0.1681  0.1194 -0.2013
20170W        W37694  13.941   5.253   5.402  0.0567 -0.5122  0.1743
20171W        W37695  12.269   9.161   0.349  0.0971  0.0191 -0.0288
20172W        W37696  17.774   3.362   0.810  0.1952 -0.1143 -0.5470
20173W        W37697   9.262   1.059   0.128  0.2020  0.2279  0.0947
20174W        W37698   3.105   8.899  12.461  0.0739 -0.2205 -0.0203
20175W        W37699   9.583   8.586  15.064 -0.2575 -0.3340  0.0966
20176W        W37700   3.679   4.423   5.340 -0.1038 -0.3080 -0.2935
20177W        W37701  17.052   8.251  13.607 -0.4086  0.0968 -0.3026
20178W        W37702  13.921   5.275  13.263 -0.0637  0.2544  0.0326
20179W        W37703  12.484   0.178   0.626 -0.1857  0.4226  0.1465
20180W        W37704  16.606   0.399  14.838 -0.0170  0.1277  0.2059
20181W        W37705  15.684  15.669   1.114  0.3974  0.1802  0.0824
20182W        W37706   2.993   4.369   4.506 -0.0107 -0.0466 -0.1174
20183W        W37707   6.860  14.545  13.412  0.1100  0.3154  0.0956
20184W        W37708   0.056  12.620  15.560  0.0370  0.2480 -0.0132
20185W        W37709   6.977   0.781   4.911  0.1003  0.1357 -0.0660
20186W        W37710  16.894   6.932  10.670  0.1281 -0.1124 -0.2667
20187W        W37711  13.820   3.428  15.135  0.1610 -0.0020  0.2725
20188W        W37712   3.872   0.510  14.967 -0.0482 -0.2731 -0.1540
20189W        W37713  14.505   1.767  13.865 -0.3429 -0.2831  0.0212
20190W        W37714  13.060   5.413   3.183 -0.1989 -0.0730  0.0049
20191W        W37715  13.346  15.473   4.354  0.0846 -0.1393  0.2147
20192W        W37716   7.351   9.931   1.020 -0.0715 -0.3261 -0.0886
20193W        W37717  15.567  12.969   2.316  0.2017 -0.2805 -0.3577
20194W        W37718  12.603   9.977   0.627 -0.1298 -0.3630 -0.0830
20195W        W37719   7.295  14.876  13.436  0.3071  0.1873 -0.1175
20196W        W37720  10.339  15.222   3.137  0.1442 -0.0816  0.1871
20197W        W37721   5.714  17.861  15.857 -0.3460  0.1790  0.0572
20198W        W37722   6.909  14.696   5.865  0.0372 -0.0075  0.8493
20199W        W37723   4.092   6.788   4.729 -0.1340 -0.1630  0.0230
20200W        W37724   0.997  10.350   2.193 -0.0494  0.0691 -0.0135
20201W        W37725   2.058   5.614   3.134  0.0425 -0.0089 -0.3756
20202W        W37726   0.093  11.805   0.286  0.3210  0.2494 -0.0774
20203W        W37727   9.036   5.081   2.887 -0.0944  0.2608  0.0768
20204W        W37728  12.043   3.156  14.696 -0.0479 -0.1052 -0.1609
20205W        W37729  17.065   4.781  13.260  0.1797 -0.0163 -0.2240
20206W        W37730   0.707  14.643   1.664 -0.1553 -0.0561 -0.0496
20207W        W37731   5.979  16.501   2.707 -0.2829  0.0297  0.0794
20208W        W37732   1.639  15.334  14.065  0.1252 -0.1177  0.0606
20209W        W37733  17.936  13.735   0.515  0.0792 -0.0018 -0.0988
20210W        W37734  13.369  10.246  13.449 -0.3345 -0.3552  0.1541
20211W        W37735   7.228  15.886   2.348  0.0289  0.0311  0.0898
20212W        W37736  16.970  12.863  15.514 -0.0339  0.1367  0.0458
20213W        W37737   7.012   3.745  12.090  0.0974  0.0323  0.1771
20214W        W37738   3.353   2.817   1.055 -0.0229 -0.0699  0.0401
20215W        W37739  10.328  16.758  14.282 -0.1209  0.0150  0.1018
20216W        W37740   4.682  14.438  12.735 -0.2915  0.1921 -0.1126
20217W        W37741  14.291  11.987  11.698  0.0234 -0.0950 -0.5315
20218W        W37742   2.332  11.185   1.384  0.4034  0.0458  0.1625
20219W        W37743  17.436  13.404   4.365  0.0561 -0.0047  0.0092
20220W        W37744   9.414  16.672  14.622 -0.2430 -0.1053  0.1852
20221W        W37745   0.628  12.678  14.441  0.2098 -0.2025 -0.2100
20222W        W37746   4.462  17.379   1.380 -0.3321 -0.3246  0.2418
20223W        W37747  10.034  12.428   0.248  0.1092  0.1234 -0.1221
20224W        W37748  15.796   3.325   4.502  0.0520 -0.0133 -0.1151
20225W        W37749  13.828   4.405   2.812  0.0967  0.2072 -0.5367
20226W        W37750  12.506  10.852   2.360  0.0569  0.1754  0.1975
20227W        W37751  15.695   1.833  14.310 -0.1944  0.0809 -0.0672
20228W        W37752   0.824  11.193   0.407  0.2808  0.0930  0.1032
20229W        W37753   1.403   9.335  15.459  0.2238  0.0632 -0.0529
20230W        W37754   5.972   7.121   1.184 -0.4776  0.2497  0.0643
20231W        W37755   2.928   8.623  11.464 -0.0653  0.3188  0.2097
20232W        W37756   3.769  13.261  10.699  0.0083 -0.0741  0.1907
20233W        W37757   4.131  12.703  15.613 -0.1090  0.3197  0.0763
20234W        W37758   6.360   3.617   3.699  0.1614 -0.0644 -0.1113
20235W        W37759  13.569  13.880   4.966 -0.1244  0.1999  0.2876
20236W        W37760   0.423   6.385  14.011  0.0374  0.2943 -0.1639
20237W        W37761  12.794  10.110  11.362  0.1223  0.1663  0.1392
20238W        W37762   9.002   5.060   2.330  0.1393  0.0581 -0.0017
20239W        W37763  12.474   4.853  12.218  0.0315 -0.4787  0.4234
20240W        W37764   5.076   8.641  11.519 -0.2589  0.1402  0.1498
20241W        W37765   9.108   4.097  11.664  0.1275 -0.2985 -0.2109
20242W        W37766   0.806  13.976   3.611  0.0247  0.2061 -0.1338
20243W        W37767   8.160  16.074  15.468 -0.1261 -0.0024  0.1345
20244W        W37768  10.856   7.058   1.356 -0.3413 -0.1803 -0.0331
20245W        W37769   5.896  18.201  12.475  0.0388  0.0700  0.1821
20246W        W37770   2.062  10.331  12.974  0.1442  0.2807  0.2850
20247W        W37771   0.075   2.759  13.056 -0.0446  0.4745  0.2709
20248W        W37772   4.357   4.336  14.250  0.5180 -0.0172 -0.0647
20249W        W37773  13.045  11.937   4.494  0.2058  0.0106 -0.1774
20250W        W37774   4.048   9.994   3.452 -0.1034 -0.0713  0.1280
20251W        W37775   9.153   7.848  12.916  0.2156  0.4827  0.0223
20252W        W37776  10.595   2.850  15.412 -0.1208 -0.2606  0.4705
20253W        W37777   1.430   8.352  15.701 -0.0570  0.1566  0.2744
20254W        W37778   0.227   4.287   2.680  0.1913 -0.0234  0.1032
20255W        W37779  10.880   9.016   0.003  0.2754 -0.2441 -0.2142
20256W        W37780   1.839  12.512  11.465  0.0005 -0.1296 -0.4504
20257W        W37781   8.665   0.877  12.475 -0.0334 -0.2492 -0.0593
20258W        W37782   5.775   3.514   2.664 -0.1509 -0.1741  0.0893
20259W        W37783  16.685  12.673   3.120  0.0123  0.2229 -0.1744
20260W        W37784   5.688  14.170   0.656  0.3359 -0.1926 -0.0839
20261W        W37785  16.904  13.800  10.684 -0.3623  0.1740 -0.0449
20262W        W37786  11.217  12.057  11.674 -0.3077 -0.0714 -0.1357
20263W        W37787  13.824   1.656  15.266 -0.0061  0.0207  0.0676
20264W        W37788  15.524   2.759   4.934 -0.1519 -0.1045  0.3317
20265W        W37789   8.212  15.563  14.210  0.0477  0.1717 -0.1335
20266W        W37790   2.751  11.973   3.366 -0.0911  0.0268  0.2321
20267W        W37791  17.608  11.396   2.989 -0.0572  0.4090 -0.1132
20268W        W37792  12.348   8.400  13.020 -0.2538  0.0110 -0.2897
20269W        W37793   9.163  15.299  12.664  0.2449 -0.1584 -0.1151
20270W        W37794  15.544   5.298   4.221  0.0218 -0.3181  0.2081
20271W        W37795  15.197   3.227  13.996 -0.1376  0.1529 -0.1533
20272W        W37796   6.785  10.640   0.058 -0.1812  0.3888  0.1590
20273W        W37797  15.296   1.107   1.445 -0.1162 -0.0527  0.1457
20274W        W37798   4.014   6.307  11.159  0.4439  0.0487  0.0199
20275W        W37799   7.564  11.886  13.793  0.0565 -0.1690 -0.0350
20276W        W37800  10.799  10.449  15.785  0.1182 -0.0803  0.1652
20277W        W37801   4.909   7.747   3.636  0.0807 -0.3220  0.1213
20278W        W37802   2.185  12.494   1.999 -0.1390 -0.1759  0.0100
20279W        W37803  17.347   0.324   3.943  0.3990  0.1152 -0.2888
20280W        W37804  13.641   8.288  13.940 -0.0375  0.1049 -0.2847
20281W        W37805   4.747   9.291  12.595  0.2085  0.3028 -0.5124
20282W        W37806  17.251  10.015   3.882 -0.2134  0.3477 -0.3709
20283W        W37807   5.428   4.176  10.479  0.3055  0.0705 -0.0894
20284W        W37808   4.779   3.346   2.723 -0.1037  0.2819  0.3364
20285W        W37809   5.777  16.487   1.878 -0.0812 -0.1718 -0.3619
20286W        W37810   1.471  10.733   3.586  0.2907  0.3805 -0.1899
20287W        W37811  15.144  11.819   0.826 -0.1299  0.2892 -0.1135
20288W        W37812   7.820  14.288  13.810 -0.3138 -0.1627  0.1171
20289W        W37813  16.038  16.276  13.578  0.2957  0.0363  0.1033
20290W        W37814  14.690   3.991  11.795  0.0536 -0.0391  0.0776
20291W        W37815  11.323   5.767  14.506 -0.0607 -0.1219  0.3968
20292W        W37816  12.144   6.366   4.253 -0.1468  0.0016 -0.0961
20293W        W37817   8.600   7.604   4.447 -0.0842  0.2404  0.1198
20294W        W37818   0.546  11.932   3.723 -0.0263  0.1211  0.1289
20295W        W37819  15.544  15.781  14.134  0.2130  0.2258  0.4323
20296W        W37820   3.678   1.349   1.436 -0.1571  0.0260  0.3723
20297W        W37821  13.825   3.042  14.129  0.2156 -0.0786 -0.0821
20298W        W37822  16.335   2.380   0.608  0.1251 -0.0615 -0.6051
20299W        W37823  11.528   6.044   0.751 -0.0847  0.0266  0.1904
20300W        W37824   3.343  10.776  15.352  0.2250  0.1940  0.1281
20301W        W37825  16.759  15.300  12.742 -0.3641 -0.0855  0.0975
20302W        W37826   3.383  16.169  13.368  0.0174 -0.2495  0.1829
20303W        W37827   5.778   0.533  15.708 -0.3723  0.2105 -0.0425
20304W        W37828  11.337  17.164  13.548 -0.2991  0.0677 -0.0980
20305W        W37829  16.166   7.098  12.346  0.1577 -0.3133 -0.0502
20306W        W37830  15.337   2.078  12.096  0.0697 -0.0324 -0.0794
20307W        W37831  17.199   9.155  12.001  0.0383  0.2125 -0.2958
20308W        W37832   1.410  14.992  15.442 -0.1602  0.1570 -0.1678
20309W        W37833  10.217   3.558   0.479  0.1995 -0.0240  0.1644
20310W        W37834   8.259  13.277   3.298 -0.1075  0.0560  0.0775
20311W        W37835  11.812  14.199  14.244 -0.1368 -0.2322 -0.0057
20312W        W37836  15.438   9.467   3.429  0.0629  0.1753 -0.2567
20313W        W37837   3.493  17.371   3.238 -0.1026 -0.1885 -0.2499
20314W        W37838  15.560   8.938   3.485  0.0221  0.0226  0.0948
20315W        W37839  10.069  15.889  14.713  0.0254  0.0598  0.0087
20316W        W37840   5.153   6.066   2.356  0.1963 -0.2823  0.2354
20317W        W37841   7.388   9.491   0.134  0.1525 -0.3395  0.0377
20318W        W37842  12.050  16.453  15.595  0.4116 -0.3873 -0.5118
20319W        W37843   9.145   5.893   2.380 -0.0363 -0.1284 -0.0550
20320W        W37844   6.278  11.897   1.165 -0.0364  0.0010 -0.0430
20321W        W37845   3.006   9.246   1.330  0.0327  0.3723  0.1722
20322W        W37846   8.248   7.500  13.901 -0.0736  0.0744  0.2478
20323W        W37847   4.111  14.415  11.551  0.1033 -0.0282 -0.0559
20324W        W37848  14.027   2.628  14.069  0.0875 -0.1585  0.1863
20325W        W37849   2.861   1.439   1.126  0.0910 -0.0264  0.1661
20326W        W37850   0.855  16.225   0.027  0.1946  0.2305 -0.0898
20327W        W37851   6.784   0.718   3.107  0.0515  0.2338  0.0373
20328W        W37852   8.689   8.354  11.567 -0.1694  0.1180  0.1639
20329W        W37853  12.156   1.842   4.221  0.1975  0.1135 -0.1757
20330W        W37854  10.590   6.847  13.884  0.0789 -0.3689 -0.0532
20331W        W37855   1.719  17.842   5.243 -0.2171 -0.3537 -0.0572
20332W        W37856  13.701  11.581  15.724  0.0850 -0.1798 -0.0366
20333W        W37857   8.842   1.249  10.424  0.0724  0.1991  0.1789
20334W        W37858   8.249  13.640   0.041  0.2182 -0.1240  0.1726
20335W        W37859   1.091  16.048   4.908 -0.0848  0.0258 -0.1586
20336W        W37860   7.357   3.684   1.248 -0.0158  0.0486 -0.1046
20337W        W37861   4.316  11.674  13.837  0.1292 -0.0139  0.0475
20338W        W37862   1.770   2.145   0.435  0.0689  0.0839 -0.1318
20339W        W37863   1.683   5.928   1.590  0.0343 -0.1126 -0.0116
20340W        W37864   8.470  14.067   5.310 -0.2395  0.0865 -0.0201
20341W        W37865   5.159   9.486  13.925 -0.1556 -0.0557 -0.1012
20342W        W37866   0.334  16.782  13.213 -0.1317  0.0348  0.3851
20343W        W37867   7.084   2.830   0.182  0.1944  0.2547 -0.1805
20344W        W37868   4.843   9.360   0.703 -0.2522 -0.2686  0.0338
20345W        W37869  16.547   0.982   2.688 -0.0383  0.1911 -0.2310
20346W        W37870   4.401  11.814  14.397  0.1179 -0.1097 -0.1824
20347W        W37871  11.177   1.170   1.120 -0.0045 -0.1426 -0.0856
20348W        W37872   3.763  10.331  12.446 -0.1872 -0.0785  0.1654
20349W        W37873   6.569   5.515  15.279 -0.0399 -0.1011  0.2787
20350W        W37874  17.020  17.603   3.030  0.2842 -0.2026 -0.1704
20351W        W37875  14.630   1.714  11.694  0.0822 -0.1070 -0.0820
20352W        W37876   4.136  15.319  12.017 -0.1949 -0.0330 -0.2205
20353W        W37877  12.632  13.348   3.882  0.0742 -0.1965  0.0005
20354W        W37878   2.888   6.959  11.417 -0.0216  0.3537 -0.1162
20355W        W37879   3.831   9.192   3.888  0.3592 -0.1335  0.1181
20356W        W37880  13.189  17.215   2.156  0.2432 -0.0738  0.1957
20357W        W37881   6.631   5.657  13.611 -0.2371 -0.1352 -0.1367
20358W        W37882  13.059  11.870  11.631 -0.2162  0.1813 -0.1179
20359W        W37883   0.915   9.873  12.806  0.2665  0.2787 -0.0727
20360W        W37884   1.439  11.430  11.036 -0.0102 -0.0033  0.0209
20361W        W37885   8.495   5.986   0.800 -0.1378  0.2154 -0.1268
20362W        W37886   1.337   9.830  15.193 -0.2134  0.1868 -0.0485
20363W        W37887   5.350   8.573   0.290  0.0145  0.1122 -0.2410
20364W        W37888  11.309   2.375   2.733  0.3479  0.0629  0.1902
20365W        W37889  14.571  14.163   2.334  0.4207  0.1727 -0.1052
20366W        W37890  11.238   8.394   2.143  0.0172  0.0984  0.2987
20367W        W37891   1.335  15.307  12.214 -0.1243  0.1494  0.5674
20368W        W37892  10.022  16.856  12.109  0.2295 -0.0002 -0.0057
20369W        W37893  13.127   4.608  14.606 -0.1825  0.0289 -0.2900
20370W        W37894  15.189  11.590  13.374 -0.0854 -0.0414 -0.1087
20371W        W37895   8.546   2.186   2.138  0.2660  0.2274 -0.2172
20372W        W37896   9.857  11.307   3.354 -0.0839 -0.0478 -0.1465
20373W        W37897  17.773   7.564  11.524  0.2120 -0.0568 -0.0205
20374W        W37898   4.704   6.100   2.030 -0.1179 -0.0734 -0.5858
20375W        W37899  14.843  15.506  12.019 -0.2635  0.0752 -0.1916
20376W        W37900   5.784   8.428   0.486  0.0920  0.2360 -0.0922
20377W        W37901  12.804  11.868  15.547 -0.1666 -0.0994 -0.1929
20378W        W37902   5.838  17.166   3.022  0.0996 -0.0819  0.0835
20379W        W37903   5.783   7.950  15.835  0.0249 -0.0021 -0.3558
20380W        W37904   4.257  14.233   1.016 -0.0921  0.3249  0.0358
20381W        W37905   8.836   2.327   3.388  0.0296  0.1281  0.0104
20382W        W37906   4.604  14.035   2.408 -0.0281  0.2039  0.1938
20383W        W37907  10.507   2.013  12.926 -0.3233 -0.0189 -0.0388
20384W        W37908  18.009   2.766  14.306 -0.1121  0.1469 -0.1220
20385W        W37909  18.305  13.613  11.686  0.0167  0.0948  0.2170
20386W        W37910  15.249   5.453  13.626  0.0051 -0.1771 -0.0493
20387W        W37911   3.260   4.308  15.590  0.1691  0.0442  0.1189
20388W        W37912   4.074   6.081  13.640  0.1678  0.4210  0.1950
20389W        W37913   2.386   6.890   1.338 -0.2659  0.0751  0.3294
20390W        W37914  15.510   6.576   2.872 -0.2667 -0.2778 -0.0584
20391W        W37915  17.130  15.661   4.366  0.1422 -0.1115 -0.1246
20392W        W37916  18.342   9.521  11.522  0.2739 -0.1547  0.2124
20393W        W37917   2.918   4.294   3.543  0.0609 -0.2458  0.0288
20394W        W37918   4.692   9.205  13.764 -0.3675  0.2712  0.1876
20395W        W37919  12.589   4.409   5.303 -0.0433  0.2063  0.1782
20396W        W37920  18.390   1.782   9.750 -0.2230  0.0226 -0.0291
20397W        W37921  16.131  15.308   3.008 -0.1861  0.0629  0.1782
20398W        W37922  17.254  17.648   0.283 -0.1106 -0.0098 -0.0253
20399W        W37923  10.281  10.686   5.028  0.1529 -0.0603 -0.2411
20400W        W37924  16.906   7.811   3.911  0.3133  0.1203 -0.2468
20401W        W37925   9.227   1.789   4.801  0.2464 -0.0414  0.0730
20402W        W37926  10.399  12.154   1.916  0.4496 -0.0231 -0.1513
20403W        W37927  12.336   1.317   2.928  0.4563  0.2184  0.2110
20404W        W37928  16.972   5.966  12.632 -0.2939  0.3218  0.1195
20405W        W37929   3.712  12.913   3.262 -0.1352 -0.0200 -0.1120
20406W        W37930   7.464   2.692  12.755  0.0192 -0.1850  0.2515
20407W        W37931  16.683  13.289   4.871  0.1266  0.2130  0.0710
20408W        W37932  10.349  11.414   0.532  0.0339  0.2047 -0.5630
20409W        W37933  10.807   7.727  12.270 -0.1026 -0.1934  0.1066
20410W        W37934   6.870   3.704   0.160  0.2002  0.0891 -0.0352
20411W        W37935   0.413   5.011  14.839  0.0180  0.1756  0.2683
20412W        W37936  16.014   4.815   4.643  0.1327  0.1989  0.1409
20413W        W37937  13.865   0.958  13.908 -0.2279  0.0723  0.1121
20414W        W37938   4.452  13.811   0.681  0.0997  0.1956  0.1670
20415W        W37939  14.275  12.391   3.434  0.4414 -0.2210  0.2031
20416W        W37940   9.278  10.913   2.746  0.0834 -0.1308  0.0685
20417W        W37941  15.785  17.153  15.198  0.0587 -0.3893  0.0317
20418W        W37942  11.793   7.565   0.179 -0.0429 -0.1603 -0.0612
20419W        W37943  12.660   0.873   4.215  0.0255  0.0664  0.1210
20420W        W37944   3.332   9.565  11.527 -0.1267 -0.0875 -0.0232
20421W        W37945   6.296  11.925  10.975  0.4457 -0.1981  0.1183
20422W        W37946   5.611   9.990   5.056 -0.1445  0.4576  0.0231
20423W        W37947   4.632   8.852   3.922 -0.1067  0.1895 -0.0509
20424W        W37948   9.306   9.030   0.019 -0.1790 -0.0605  0.2249
20425W        W37949   3.449  16.146   3.246 -0.2068 -0.3898  0.2131
20426W        W37950  13.587   9.872  13.185  0.1646 -0.1980 -0.2651
20427W        W37951  10.028  17.121  12.849 -0.1568  0.0106 -0.0583
20428W        W37952   1.796  13.678   0.762  0.1142  0.1106 -0.1182
20429W        W37953  13.118   4.101   2.049 -0.0035  0.0893 -0.0697
20430W        W37954   4.735   3.789  15.258 -0.2302  0.1641  0.2006
20431W        W37955   7.022   5.663  14.409 -0.0004 -0.3181  0.0399
20432W        W37956   6.755   0.405   0.314  0.1187 -0.2044  0.1295
20433W        W37957  15.764  16.397   3.854  0.5282 -0.0247  0.0040
20434W        W37958  10.213  12.981   3.767 -0.0265 -0.1186  0.2389
20435W        W37959  12.608  13.807   1.182 -0.2129 -0.0172 -0.3386
20436W        W37960   4.234   7.014  13.877  0.1696  0.2030  0.1226
20437W        W37961   2.451   3.613   3.186  0.0457 -0.0416 -0.1659
20438W        W37962   6.098   2.121   1.742  0.0783  0.0613 -0.2086
20439W        W37963  13.704  16.539   0.475 -0.3185  0.2437  0.0808
20440W        W37964  17.175   6.716   1.941  0.2777  0.3332  0.0291
20441W        W37965   6.096   7.295   5.418  0.1222 -0.3448 -0.1337
20442W        W37966  10.025  13.540  10.469  0.0841 -0.0750  0.1822
20443W        W37967   0.071   1.371  13.275 -0.0505  0.1859  0.0552
20444W        W37968   7.255   7.241  12.989  0.0417 -0.2902  0.1939
20445W        W37969  18.280  13.471   0.772  0.1822 -0.0651 -0.2120
20446W        W37970  16.949   5.915  12.132 -0.0771  0.1518  0.1945
20447W        W37971   3.351   0.035  13.536 -0.0112  0.1998 -0.1222
20448W        W37972   3.030   1.372  13.364 -0.0442 -0.1161 -0.1929
20449W        W37973   8.011  16.806   0.986 -0.0091  0.0534  0.2618
20450W        W37974   0.933  17.468  13.214 -0.1751 -0.2094  0.3397
20451W        W37975  15.097  12.495  14.876  0.2972 -0.2431  0.0516
20452W        W37976   4.309  12.803   4.144  0.2164  0.4397  0.0533
20453W        W37977  13.775  10.550  13.534  0.2853 -0.0268  0.2418
20454W        W37978  17.955  12.545  11.934 -0.0063  0.1749 -0.0754
20455W        W37979  12.503   3.541   3.423  0.1494  0.0297 -0.1421
20456W        W37980  10.065   3.282  15.565  0.0773 -0.1455  0.0951
20457W        W37981   8.732  10.532  12.932 -0.0734  0.1522 -0.2686
20458W        W37982   0.828   7.630  14.222 -0.2275 -0.1080 -0.1964
20459W        W37983   7.502   3.950   2.040 -0.0083  0.2893 -0.1493
20460W        W37984   5.850   5.049  15.463 -0.3112  0.1298 -0.0636
20461W        W37985  11.703   3.349   2.539  0.1964 -0.0630 -0.0682
20462W        W37986  12.613   1.874   1.100 -0.1408 -0.1754  0.0458
20463W        W37987   3.074   7.815  12.393 -0.1089 -0.0470  0.1923
20464W        W37988   3.803  11.578   0.924 -0.2713  0.1546  0.2326
20465W        W37989   9.296   6.869  12.466  0.0911 -0.0330 -0.2336
20466W        W37990   7.229  15.654  12.551 -0.3229  0.1935  0.1763
20467W        W37991   0.449   9.984  13.321  0.1059  0.2178 -0.0298
20468W        W37992   4.258   9.860   2.293 -0.1295  0.5426 -0.0373
20469W        W37993  14.348   1.660   4.037 -0.2896 -0.0187 -0.1954
20470W        W37994   8.468   5.673   0.363  0.0584  0.0560  0.1918
20471W        W37995  11.458   3.791  11.264 -0.0342  0.1708 -0.2557
20472W        W37996   8.604   9.129   1.342 -0.2152 -0.1441 -0.0963
20473W        W37997   2.856   5.376  15.600  0.0142  0.1005  0.2691
20474W        W37998  13.054   9.147  15.325 -0.1253  0.2941 -0.4601
20475W        W37999   3.498   7.430  11.254  0.2222 -0.0674 -0.1077
20476W        W38000   7.761   1.821  12.668 -0.3733  0.2603  0.2413
20477W        W38001   8.125   5.807  15.104  0.1904  0.4160  0.2345
20478W        W38002   6.873  16.865  11.978  0.2824  0.1713  0.1214
20479W        W38003  10.676  13.870  13.513  0.1673 -0.1149 -0.3127
20480W        W38004  14.359  13.583  13.382 -0.0145 -0.1281  0.0491
20481W        W38005   7.483   9.467  10.474 -0.0207  0.0230 -0.0313
20482W        W38006   0.927  16.575   0.371  0.0104 -0.0346  0.0540
20483W        W38007   7.284   1.556   0.784  0.0394 -0.2144  0.0304
20484W        W38008  17.541  17.128   2.011  0.2431 -0.1182  0.1007
20485W        W38009  14.955  16.085  15.067  0.1296 -0.4511  0.2436
20486W        W38010   9.883  17.311   1.912  0.0891  0.3017 -0.1082
20487W        W38011   5.797  10.504  11.260  0.0136  0.1201  0.0410
20488W        W38012   0.211   5.209  12.708 -0.0834  0.1474 -0.2571
20489W        W38013   7.355   7.360  11.691 -0.2560  0.2359 -0.0983
20490W        W38014  11.175   3.276  11.166  0.1719 -0.1195  0.1099
20491W        W38015  18.039  13.438  13.322  0.1478 -0.1933 -0.0154
20492W        W38016  15.589   3.732  11.891  0.2028  0.0932 -0.0050
20493W        W38017  14.746   7.941   4.077  0.0800 -0.1324  0.0911
20494W        W38018  16.589  16.859   1.916 -0.2046 -0.1086 -0.4383
20495W        W38019   4.450   7.827  14.596 -0.2284  0.1314  0.1840
20496W        W38020   7.339  16.174  12.553 -0.4210  0.0693  0.4040
20497W        W38021  17.562  13.403  13.549  0.1830  0.4176 -0.1727
20498W        W38022  12.203   0.691   3.779 -0.3047  0.0946  0.1215
20499W        W38023   3.781   2.720  10.518  0.0049  0.1079  0.2349
20500W        W38024  12.244  15.733  14.635  0.1292  0.1697  0.1629
20501W        W38025   3.917   1.727   4.084 -0.3225  0.1438  0.0458
20502W        W38026   5.250   6.521   1.520  0.1935  0.1553 -0.1222
20503W        W38027  13.997   1.800  13.923 -0.3163 -0.1972 -0.2269
20504W        W38028  14.364   2.715   0.221  0.1032  0.4122  0.1506
20505W        W38029  12.148   7.424   1.799 -0.2842  0.0722  0.0299
20506W        W38030   1.160   2.864   0.143  0.3393  0.3682  0.0828
20507W        W38031   4.898  17.386   0.648 -0.2198 -0.1623 -0.0751
20508W        W38032   1.919  10.002   2.266  0.3398  0.0431  0.3310
20509W        W38033   0.855  11.084  11.773 -0.2179  0.1330  0.0004
20510W        W38034  12.889  11.455   2.516 -0.2530 -0.1085  0.2777
20511W        W38035  12.102  15.026   2.530 -0.1039  0.0920 -0.0853
20512W        W38036  12.996   3.903  15.567  0.1966 -0.0066  0.4686
20513W        W38037   9.318  15.481  11.219 -0.0695  0.0089 -0.0001
20514W        W38038  11.724  18.010   4.634 -0.0489 -0.0330  0.1656
20515W        W38039  13.217   0.005   3.948  0.1143 -0.2917  0.0458
20516W        W38040   0.098  15.609   4.897 -0.0414  0.3310 -0.1102
20517W        W38041  14.582   2.465   1.421 -0.0290 -0.3140  0.3239
20518W        W38042   4.421   9.652  13.944  0.2539 -0.1142  0.0649
20519W        W38043  16.359   9.852  12.093 -0.0732 -0.0084  0.1914
20520W        W38044  14.111   5.664   1.564 -0.2804 -0.1073  0.1588
20521W        W38045   3.417   9.634  15.154  0.0765 -0.3516 -0.0613
20522W        W38046   5.489  13.554   1.535  0.3801  0.1217  0.5223
20523W        W38047   0.144   8.823  12.026  0.2253 -0.2719  0.1567
20524W        W38048   4.141   1.305  11.367  0.0795  0.0037  0.4822
20525W        W38049   0.231  17.052  15.821  0.1367  0.4553 -0.2474
20526W        W38050  10.198   6.253  11.996  0.1925 -0.4889  0.1845
20527W        W38051   3.083  14.316  12.729  0.2819 -0.3266 -0.0875
20528W        W38052  11.934  10.324  14.727  0.0927 -0.1965  0.0495
20529W        W38053   6.003  14.977   4.155  0.1711  0.0367  0.1455
20530W        W38054   7.872  12.984  13.191  0.1558  0.2903  0.1696
20531W        W38055  15.513  11.843   0.098  0.1881 -0.0920  0.1209
20532W        W38056  14.097   6.117  12.953 -0.2401  0.2109  0.1203
20533W        W38057  13.368  10.676   1.932 -0.0956 -0.1643 -0.2053
20534W        W38058  13.264  17.816  11.689  0.0725  0.1473 -0.0552
20535W        W38059   1.709   6.897   1.756  0.0651 -0.3086 -0.0246
20536W        W38060  11.354   5.952   3.480 -0.0787 -0.0123  0.0655
20537W        W38061   2.296   7.404   0.922  0.2293 -0.0526  0.4109
20538W        W38062   2.061   1.551  14.969  0.3339  0.2638  0.0231
20539W        W38063  13.442   7.012  15.267 -0.1047 -0.2525 -0.2587
20540W        W38064  11.439   4.996   1.914  0.4656  0.0682 -0.2037
20541W        W38065  11.081  14.785   4.110  0.3564  0.1159  0.1086
20542W        W38066   0.776   7.184  14.530 -0.0677  0.3352  0.0654
20543W        W38067   1.514   0.578  12.125 -0.1195 -0.1590 -0.3185
20544W        W38068   2.185   2.992  11.811  0.1849 -0.0292  0.0764
20545W        W38069  10.315  11.685  14.988  0.0769 -0.0028 -0.1937
20546W        W38070   8.999  14.387   4.022 -0.0066  0.0680  0.0838
20547W        W38071  16.523  14.991  15.176  0.1285 -0.0601 -0.1780
20548W        W38072  16.471   6.646  10.593  0.1252 -0.1412 -0.1225
20549W        W38073   3.782   6.161   1.489  0.0985  0.1756  0.0869
20550W        W38074   1.511  14.180  12.494  0.0581  0.0580  0.2004
20551W        W38075   7.789  10.920   0.470  0.0091 -0.0413 -0.0733
20552W        W38076  12.977  17.428   4.895 -0.1071  0.1562 -0.1204
20553W        W38077  11.292  18.073  12.390  0.1263 -0.2977 -0.1632
20554W        W38078   6.153   9.649   1.863  0.1535  0.1301  0.3132
20555W        W38079  12.315  11.717   3.438  0.0230  0.0229 -0.0641
20556W        W38080  17.639  11.956   0.768 -0.1699  0.1949 -0.2458
20557W        W38081   9.498  15.296   3.761  0.2024 -0.1105 -0.2253
20558W        W38082  11.281  17.128   5.002  0.0566 -0.0430 -0.0286
20559W        W38083   1.422  16.360   2.599 -0.0120 -0.2847 -0.1532
20560W        W38084  12.923   6.578   1.542 -0.2547 -0.1964  0.0348
20561W        W38085  15.187   0.808  13.152 -0.0763  0.2674  0.0155
20562W        W38086   0.385   8.195   3.919 -0.0920 -0.1504 -0.2698
20563W        W38087  11.784  15.872  12.651 -0.1496 -0.1051 -0.1234
20564W        W38088  14.769   6.288   1.605  0.1950 -0.2398 -0.0537
20565W        W38089   6.816  12.614  11.710  0.0789 -0.1855  0.0805
20566W        W38090   6.676   9.744  14.684  0.0388 -0.1487 -0.2801
20567W        W38091  12.319   9.202   5.465  0.1579  0.0107 -0.2870
20568W        W38092  17.127   1.308  12.267 -0.0623 -0.0163 -0.3545
20569W        W38093  17.036  11.014   4.189 -0.2485 -0.2704 -0.0183
20570W        W38094   8.153   2.912  12.714 -0.4505  0.0520 -0.2053
20571W        W38095   3.087  16.680  13.943 -0.0805 -0.1456 -0.1622
20572W        W38096   3.253   9.668   3.416  0.3386  0.1498  0.1174
20573W        W38097   5.382  17.863   4.494  0.0468 -0.1000 -0.1660
20574W        W38098  10.758   3.669  15.581  0.0392 -0.3053  0.0853
20575W        W38099  11.255   4.205  13.758 -0.1765 -0.0671  0.3822
20576W        W38100   2.344  12.249  13.429  0.0032  0.0201 -0.2180
20577W        W38101   3.532   9.085   2.483  0.0401  0.1113  0.3972
20578W        W38102  11.766  16.413   4.318  0.1302 -0.0677  0.0719
20579W        W38103   6.178  16.693   3.133  0.1449  0.0214 -0.0808
20580W        W38104  16.908  10.951  11.567  0.0811 -0.1950  0.0996
20581W        W38105   8.646   3.189  12.793 -0.0317  0.1357 -0.0429
20582W        W38106  16.133   7.657   5.362 -0.0470  0.0959 -0.1607
20583W        W38107   6.302   1.282   1.211  0.0792  0.0170 -0.0080
20584W        W38108  18.264  15.094  10.062 -0.3384  0.1786  0.1491
20585W        W38109  16.909  14.607   0.930  0.2014 -0.1785  0.1719
20586W        W38110  13.402  12.214  12.581  0.5265 -0.0740  0.1141
20587W        W38111  17.480   9.150   0.564 -0.2470 -0.2898 -0.1664
20588W        W38112  15.130   5.704  12.588 -0.2568 -0.0088 -0.0638
20589W        W38113  11.146   1.250  11.653  0.0078  0.2816  0.1069
20590W        W38114  10.038   6.533   3.098 -0.0738  0.0643  0.1672
20591W        W38115  17.828   3.870  12.746 -0.2291 -0.0105  0.1908
20592W        W38116  13.055   0.237   4.947  0.0600 -0.1496  0.3865
20593W        W38117   0.076   3.089   1.454  0.0962 -0.0202 -0.0215
20594W        W38118   6.434  15.816   0.209 -0.0344  0.1056  0.2833
20595W        W38119  17.060  10.467  12.357  0.0119  0.0227 -0.2808
20596W        W38120   2.071  18.081  13.105 -0.2210  0.0621 -0.1981
20597W        W38121  15.845   8.673  12.763  0.1208 -0.2316 -0.2891
20598W        W38122   4.134  10.920  11.794 -0.3365 -0.3415 -0.0578
20599W        W38123   9.119   2.571   4.279 -0.0166  0.2415  0.3198
20600W        W38124  12.062   7.596  11.312  0.1152  0.1642  0.1269
20601W        W38125   7.019  17.846  14.404  0.1311 -0.1570 -0.4694
20602W        W38126   0.876   3.804  15.365  0.0959  0.0149  0.4624
20603W        W38127  13.456   1.310   4.318  0.3311 -0.1104 -0.0502
20604W        W38128   9.253  13.615  15.064  0.0462  0.1388  0.3127
20605W        W38129   5.191  11.182  13.484  0.2486 -0.0957 -0.4547
20606W        W38130  15.194  13.362   3.885 -0.2042  0.1309  0.0624
20607W        W38131   6.993  11.812   4.120  0.1444  0.2057  0.0628
20608W        W38132  14.683  15.284  14.224 -0.0361 -0.0632  0.3274
20609W        W38133  14.641   9.039  15.808  0.0752  0.0304  0.1847
20610W        W38134  15.402  11.164  11.903  0.1499  0.0164  0.0495
20611W        W38135  12.356   7.490   0.785  0.0911 -0.1861 -0.1221
20612W        W38136   5.005  12.867  13.185 -0.0996  0.2749 -0.2316
20613W        W38137  11.876   6.224  12.180  0.2533  0.2835  0.0888
20614W        W38138  12.914   4.261   0.101  0.0161  0.0941  0.1992
20615W        W38139  14.873  12.983  14.962  0.0065 -0.1586 -0.4190
20616W        W38140  10.642  12.553   4.611 -0.4469 -0.1834  0.0993
20617W        W38141   7.940   2.243  13.594 -0.1133  0.0812  0.1006
20618W        W38142   9.246   0.149   0.543 -0.0277 -0.3308 -0.2806
20619W        W38143  16.754  12.524  15.183 -0.0624 -0.4538  0.0842
20620W        W38144   4.732  13.407   0.573  0.0078 -0.0230  0.0375
20621W        W38145  14.491  14.649   2.554  0.0332  0.3101  0.0549
20622W        W38146   7.259  14.604   0.766  0.2632 -0.1090 -0.1464
20623W        W38147  15.179  15.492  14.371  0.1674  0.0127 -0.1069
20624W        W38148   9.774   5.502  10.346  0.0440  0.2026 -0.0751
20625W        W38149  11.024   2.646  10.439  0.1164 -0.0450 -0.0844
20626W        W38150  10.084  15.109   3.941  0.5951  0.1456  0.1813
20627W        W38151   4.358  11.493   2.350 -0.0148 -0.2893 -0.0827
20628W        W38152   7.656   9.059  14.361  0.0238  0.2457  0.1721
20629W        W38153   6.405  14.810   3.334 -0.1801 -0.1948 -0.0778
20630W        W38154   7.375  10.182   3.332  0.4453  0.2740 -0.1161
20631W        W38155   9.424   9.036   2.469  0.1150  0.1916 -0.2245
20632W        W38156   3.097   5.442   4.488  0.3330  0.3004  0.0665
20633W        W38157   8.905   0.244   0.045 -0.0314  0.0694  0.2069
20634W        W38158   0.720   3.519   4.101  0.1946  0.0066  0.0984
20635W        W38159  13.373   1.689   4.008  0.1722  0.0246  0.1362
20636W        W38160  13.915  16.755   3.744 -0.0596  0.0835  0.1210
20637W        W38161   8.390   7.892  12.228 -0.0216  0.0445 -0.0079
20638W        W38162   0.918  16.258   2.730  0.0123 -0.1734  0.1434
20639W        W38163  10.243  14.874   3.475  0.2597  0.0041 -0.1083
20640W        W38164   0.700  16.196  13.247 -0.0818 -0.2065  0.2910
20641W        W38165  16.294   4.596  15.026  0.0797 -0.0039 -0.0187
20642W        W38166  12.022  14.521  15.266 -0.2052 -0.1967  0.1273
20643W        W38167  11.191  14.171   1.808  0.1728  0.3200  0.0371
20644W        W38168   8.559   5.239  10.969  0.1059 -0.1791  0.2441
20645W        W38169   5.046   3.975   4.718 -0.0719 -0.1189 -0.2276
20646W        W38170  14.007  13.725   2.893 -0.0282  0.2175 -0.0684
20647W        W38171   5.494   1.134  12.085  0.0733 -0.1867  0.1870
20648W        W38172   0.692  17.004   2.134  0.0403  0.1114 -0.2494
20649W        W38173   7.150   4.911   2.084 -0.1292  0.1399 -0.0967
20650W        W38174   7.383  17.228  15.217 -0.3103  0.0646 -0.0467
20651W        W38175   1.513  13.017  14.939 -0.2813 -0.1425  0.2206
20652W        W38176   6.272  16.437   4.846 -0.0014 -0.2910 -0.1115
20653W        W38177   6.180  16.829  13.330 -0.2063  0.2804  0.3365
20654W        W38178   7.103   0.031   0.133 -0.3601  0.1497 -0.1932
20655W        W38179   8.907  14.406  11.971 -0.0721 -0.0112  0.4456
20656W        W38180   3.126   0.197  10.197  0.0443  0.0484  0.2816
20657W        W38181  17.110   1.973  11.617  0.0830 -0.1211 -0.0105
20658W        W38182   1.520   1.737   3.137 -0.0167 -0.3241  0.0454
20659W        W38183   4.330  10.381   4.932  0.0258  0.1085  0.3839
20660W        W38184  12.384   0.424   4.195  0.1224 -0.0571 -0.1268
20661W        W38185  11.465  12.902   5.760 -0.0003 -0.0838  0.0456
20662W        W38186   3.047   4.611  14.136 -0.1632 -0.0698  0.1156
20663W        W38187   1.515  18.397   4.219 -0.3670 -0.0501  0.0228
20664W        W38188   4.104  17.428  13.731 -0.0881  0.1739 -0.0294
20665W        W38189  11.825  16.586   3.872  0.1738 -0.2525 -0.1414
20666W        W38190  13.170  12.709  12.082 -0.0492  0.0161 -0.2147
20667W        W38191   9.263   8.812   4.339  0.0310 -0.5175  0.0467
20668W        W38192   5.641  17.155   4.494  0.1091 -0.1900 -0.0547
20669W        W38193   8.640   0.781  14.402 -0.0795  0.1878  0.0974
20670W        W38194  17.594  15.253  11.269  0.3704  0.2010  0.1360
20671W        W38195  11.516  10.344   2.058 -0.0439  0.1997 -0.2377
20672W        W38196  12.899   6.588  13.397 -0.0302  0.3996 -0.0060
20673W        W38197  12.334  18.354   2.859 -0.1052  0.0865 -0.1357
20674W        W38198   1.320   3.745   2.554 -0.0973 -0.0409  0.0046
20675W        W38199  11.163   1.535  15.136  0.1428 -0.0191 -0.3125
20676W        W38200   0.408  17.107  15.082  0.0989 -0.1461  0.0723
20677W        W38201  16.229  10.173   0.947 -0.1473  0.1061  0.0267
20678W        W38202  14.674   1.741   0.744 -0.0863  0.0274  0.2286
20679W        W38203   3.749   5.162   1.781  0.3404 -0.1341  0.2202
20680W        W38204   2.980   2.977   2.233 -0.3128 -0.2122  0.1810
20681W        W38205  14.889  15.005   0.731 -0.1195 -0.2090 -0.3633
20682W        W38206  12.568  14.582   1.230  0.1231 -0.0731 -0.0105
20683W        W38207  17.636  12.102  13.588 -0.1321  0.1566  0.0756
20684W        W38208  17.321  14.327   1.794 -0.0050  0.1027 -0.3367
20685W        W38209  12.299   7.957   2.466  0.1486 -0.0636 -0.1289
20686W        W38210   2.144   4.866   3.434  0.3317  0.0755  0.0225
20687W        W38211   4.248  13.170  15.408  0.0537 -0.2468  0.2430
20688W        W38212  14.071   9.503  13.129 -0.0355  0.2386 -0.2251
20689W        W38213   7.265  13.410   2.454 -0.0592 -0.2489  0.0114
20690W        W38214   9.211  11.920   4.329 -0.1593  0.2433 -0.0693
20691W        W38215   5.233   7.649   3.287  0.3553  0.2067  0.1178
20692W        W38216   4.464   3.514  12.760  0.1461 -0.1050  0.3687
20693W        W38217  12.330  17.429   4.004 -0.2341 -0.1583 -0.0127
20694W        W38218  13.625   2.969  15.044 -0.3400  0.1843 -0.1096
20695W        W38219   7.053  11.026   3.124 -0.1120  0.0074  0.1737
20696W        W38220  12.803  17.768   5.166  0.0273 -0.1600 -0.1273
20697W        W38221   5.975  10.689  11.649 -0.3420 -0.3350 -0.1862
20698W        W38222  15.338  11.257   0.119 -0.0324 -0.0817 -0.1565
20699W        W38223   4.642   7.388  15.838 -0.0362  0.1411 -0.1173
20700W        W38224  14.975   6.847   2.259 -0.3592  0.1829  0.1465
20701W        W38225  17.246   3.093  14.281 -0.0427  0.1487 -0.1487
20702W        W38226   3.431  11.653  14.713 -0.3324 -0.2133  0.3354
20703W        W38227   7.808   5.814  12.758 -0.2038 -0.0180 -0.0270
20704W        W38228  13.327  15.245   3.928  0.2555 -0.0136  0.1999
20705W        W38229   9.175  12.827  13.637  0.1082  0.2214  0.2341
20706W        W38230  16.629  17.147  15.543 -0.1437 -0.0991 -0.0554
20707W        W38231   7.171   8.204   0.135 -0.3570 -0.0105  0.0452
20708W        W38232   6.704  10.673   0.861  0.1119  0.1310  0.1670
20709W        W38233   1.722   6.468   4.108 -0.4004  0.0256 -0.0493
20710W        W38234  11.038   8.042   3.076 -0.1401 -0.2422 -0.1578
20711W        W38235  13.917   7.666  12.770  0.0922  0.1122  0.2296
20712W        W38236  16.965   8.053  12.752  0.1059 -0.1418  0.1063
20713W        W38237  12.191  10.966   3.731 -0.2151 -0.1842 -0.2015
20714W        W38238   8.812   8.308   0.509  0.0552  0.0720  0.2052
20715W        W38239  16.637  14.541   2.016  0.1034  0.3105  0.2243
20716W        W38240   1.511   1.763  13.985  0.3814 -0.0592 -0.0196
20717W        W38241  17.119   0.236  14.959  0.0731 -0.3298  0.3206
20718W        W38242  11.157   1.829   1.442 -0.2019 -0.1639 -0.3323
20719W        W38243  10.583  16.383   2.093 -0.1305  0.1821  0.1312
20720W        W38244   2.463  15.717   1.805 -0.5310 -0.1641  0.1313
20721W        W38245   8.170  17.497   3.244  0.0374 -0.2735  0.0403
20722W        W38246   6.821  15.973  13.879  0.1066 -0.0460  0.1357
20723W        W38247  16.523   2.890   0.858 -0.2747 -0.0632 -0.1260
20724W        W38248  15.459   6.338   1.954 -0.3264  0.0089 -0.0177
20725W        W38249   5.299   6.706  13.276  0.2174  0.0567  0.2398
20726W        W38250   5.492  13.054   2.168  0.3100  0.1819 -0.3342
20727W        W38251   9.603  13.621   1.369 -0.1344 -0.1720 -0.1308
20728W        W38252  10.730  14.726  14.772  0.1569  0.3005  0.3093
20729W        W38253   6.069  15.223   0.274  0.3111 -0.0211  0.0596
20730W        W38254  11.211  13.897   4.702 -0.2050 -0.1294 -0.0862
20731W        W38255  12.253  15.601   3.198 -0.1365 -0.1475 -0.0467
20732W        W38256  17.853   0.904   3.319  0.2437 -0.0276  0.1796
20733W        W38257   7.438  10.833  12.112  0.3269 -0.0781 -0.1179
20734W        W38258   9.368  15.064   5.220  0.3115  0.0031 -0.2451
20735W        W38259  14.624  12.015   3.470 -0.4499  0.1962  0.1764
20736W        W38260  16.321  14.371  14.043  0.2765  0.0377  0.0893
20737W        W38261  16.142  11.045   4.705 -0.0329 -0.0678  0.4468
20738W        W38262   2.501   4.827   1.380  0.0255 -0.1385  0.0064
20739W        W38263  18.069  11.453   4.778 -0.3411  0.1295 -0.1947
20740W        W38264   4.506  14.741  12.441  0.0462  0.1048  0.1501
20741W        W38265  12.989   6.319  14.635  0.0279 -0.0332  0.0274
20742W        W38266  11.987   5.733  13.516 -0.0353 -0.1627 -0.1095
20743W        W38267   8.743  12.913   4.169  0.3281  0.0181  0.1341
20744W        W38268   8.932  12.503   2.518  0.1210  0.3290 -0.1951
20745W        W38269  17.407   7.232   4.320 -0.3491  0.0341  0.0192
20746W        W38270   6.285  16.112  12.296 -0.0284 -0.0449 -0.1580
20747W        W38271   3.965   7.408  13.656 -0.0836 -0.2316 -0.0456
20748W        W38272  16.949   0.153  11.438  0.0860  0.0739  0.3623
20749W        W38273   5.428  13.993  13.178  0.2807  0.0464  0.0930
20750W        W38274   5.547  12.807   3.814  0.0756  0.0933  0.2751
20751W        W38275   0.564   7.098  12.817  0.1105 -0.0232  0.0274
20752W        W38276  16.130  11.011   0.523  0.0623  0.0928  0.1519
20753W        W38277   6.482  14.911   3.842 -0.2067  0.2218  0.4270
20754W        W38278   1.633   2.810  13.925  0.0301  0.1060 -0.0334
20755W        W38279   3.507   6.453   1.218  0.0967 -0.3004 -0.0376
20756W        W38280   5.632  16.768   3.859 -0.1325 -0.1392  0.3088
20757W        W38281  11.581  16.708   2.650 -0.0686  0.3510 -0.0014
20758W        W38282   3.469  18.282   1.615 -0.0978  0.1925 -0.4286
20759W        W38283   4.416  15.611   0.262  0.2578 -0.1836  0.0744
20760W        W38284   9.795   6.342  15.581  0.0420  0.2158 -0.0266
20761W        W38285   8.780  14.265  15.556  0.1658 -0.1569 -0.0503
20762W        W38286   8.805   7.475  11.603  0.0652 -0.3584 -0.1857
20763W        W38287   3.993  15.223   2.759  0.1342 -0.0428 -0.2047
20764W        W38288   4.122  12.834  11.455  0.0525  0.2218  0.1673
20765W        W38289  11.897   1.042   4.723  0.2444 -0.0513 -0.4275
20766W        W38290   5.861   9.039   3.007 -0.1597 -0.0147  0.0661
20767W        W38291  14.443   5.703  14.103  0.3852 -0.0972 -0.1507
20768W        W38292  12.941   7.895  14.882  0.3637 -0.0883  0.0637
20769W        W38293   0.058  18.071   3.657 -0.0988  0.0274 -0.1352
20770W        W38294   3.536   1.636  15.568 -0.3242  0.1207 -0.0315
20771W        W38295  17.853   7.328   2.653 -0.0897  0.1324 -0.2942
20772W        W38296   8.009  13.327  11.448 -0.1374  0.2372 -0.0666
20773W        W38297   9.520  13.480   3.372  0.2613  0.0638  0.0079
20774W        W38298  13.651   1.858  12.140 -0.2703  0.0615 -0.3382
20775W        W38299  15.756   9.117   2.457  0.0622 -0.0181  0.2371
20776W        W38300   8.183   2.598  11.784  0.1309 -0.2568  0.0713
20777W        W38301  12.683  17.047   4.772  0.1715 -0.0428 -0.4744
20778W        W38302  13.872   7.432  13.421  0.0579  0.1564 -0.1373
20779W        W38303   0.412  17.527   2.871  0.3318  0.0128 -0.2701
20780W        W38304  10.944   3.635   4.756  0.0094  0.2184  0.2523
20781W        W38305  11.993   2.261   1.328 -0.2568  0.0598 -0.1253
20782W        W38306  14.898   1.898  12.197  0.3691  0.0334  0.2594
20783W        W38307   4.437   7.575   3.609  0.0140 -0.1003  0.1925
20784W        W38308  15.429  12.673  13.521  0.2199  0.2228 -0.1635
20785W        W38309   0.062   7.500  15.474 -0.3581 -0.1771 -0.0080
20786W        W38310  12.315   8.016   1.006 -0.0933 -0.3143  0.3730
20787W        W38311  11.144   7.170  11.218  0.1923 -0.2590 -0.1030
20788W        W38312  16.811   1.420   2.877 -0.0021  0.1122 -0.1670
20789W        W38313   2.771  14.962   2.727  0.0667 -0.2327  0.0511
20790W        W38314   4.925   6.336  14.477 -0.3000  0.3088  0.0503
20791W        W38315   9.172   4.288   0.346 -0.1864  0.1058 -0.4342
20792W        W38316   0.555  14.490   3.595  0.1354  0.2073 -0.5770
20793W        W38317   1.583  13.984  14.558 -0.0600 -0.0263  0.3085
20794W        W38318   1.393  10.387  12.870 -0.2059 -0.0251 -0.0250
20795W        W38319  15.142  16.002  14.505 -0.2031 -0.0046 -0.0221
20796W        W38320   0.020  16.805   1.658 -0.1305 -0.1408 -0.0199
20797W        W38321  17.854  10.919   0.427  0.2194  0.0315 -0.1426
20798W        W38322  14.776  17.258  11.194 -0.0510 -0.2425  0.6315
20799W        W38323   5.875  14.370  11.092 -0.3321 -0.0965  0.1556
20800W        W38324   9.608   8.327   3.604 -0.2172 -0.0267 -0.1906
20801W        W38325  13.927  14.908   0.218 -0.1389 -0.3769  0.0058
20802W        W38326  10.661   2.857   1.498  0.1072  0.2439  0.1447
20803W        W38327   7.570   6.865   4.627  0.0493 -0.1521  0.1326
20804W        W38328  13.040  13.878   6.069  0.2352 -0.1298 -0.0884
20805W        W38329  12.941  17.804   0.594 -0.0010  0.3219 -0.1479
20806W        W38330  12.170   6.389  11.759  0.2315 -0.4081  0.2162
20807W        W38331  14.754   6.058   2.621  0.2497 -0.1647  0.3301
20808W        W38332   7.273   8.419  13.765 -0.0078  0.0565  0.1818
20809W        W38333   0.623   0.305   4.413 -0.3753  0.2150  0.2468
20810W        W38334   4.522   8.118  15.522  0.0816 -0.2252  0.0418
20811W        W38335  12.582   4.109  11.665 -0.1963  0.2623  0.1082
20812W        W38336   4.496  15.135   3.702  0.1115 -0.2506  0.1819
20813W        W38337   4.997  17.348  12.104  0.0623 -0.0721 -0.1726
20814W        W38338  18.377   9.899  13.281  0.1269 -0.2270  0.2394
20815W        W38339   3.038   0.292   0.301  0.0214  0.0253 -0.2662
20816W        W38340  13.225   1.761   0.218  0.2438 -0.0422 -0.1529
20817W        W38341   2.476  14.981   9.715  0.1777  0.0187 -0.1384
20818W        W38342   6.083  10.795   3.839  0.1319  0.2497  0.0078
20819W        W38343   6.452  10.466   3.918  0.1424  0.0436  0.0879
20820W        W38344   9.044  15.542  15.689 -0.1054  0.1322 -0.0041
20821W        W38345  13.305   6.984   2.736  0.1515  0.0617 -0.0725
20822W        W38346   7.809   6.426  14.583  0.4590  0.2634 -0.0960
20823W        W38347   7.821   1.581   2.184 -0.0903  0.0910 -0.1700
20824W        W38348   9.636   5.260  12.954 -0.2280  0.2151  0.1912
20825W        W38349   8.754  12.537  12.190 -0.1385 -0.5115  0.0157
20826W        W38350   7.443  10.072  15.540  0.2101 -0.5155  0.3412
20827W        W38351  18.324   3.565   1.395  0.4242  0.2843 -0.1246
20828W        W38352  11.013  14.628   3.059  0.0721  0.0510 -0.0937
20829W        W38353   1.049  15.414   3.382 -0.1409  0.0862 -0.1672
20830W        W38354   8.289  17.515  15.680  0.1745 -0.2596  0.2439
20831W        W38355   9.219   8.357   1.797 -0.1229 -0.0685 -0.3523
20832W        W38356   4.545   8.947   2.308  0.0490 -0.2516 -0.0387
20833W        W38357  10.070   9.636   2.188 -0.2210  0.3597  0.0025
20834W        W38358   1.524  10.506   0.194 -0.1984  0.0340  0.1466
20835W        W38359   1.490  10.258   2.328 -0.1887  0.2141 -0.2639
20836W        W38360   9.976   8.720   0.632  0.0977  0.0218 -0.1154
20837W        W38361   7.504   0.651  11.992  0.2315 -0.2055  0.0411
20838W        W38362   9.358  12.614  14.070 -0.1460  0.0523  0.0934
20839W        W38363  18.007  14.584  13.550  0.0319 -0.1360 -0.2245
20840W        W38364  10.639  15.966  14.562  0.2061  0.1368 -0.2257
20841W        W38365  17.527  17.402  15.194  0.0911 -0.0607  0.0755
20842W        W38366   2.550  18.327  12.968  0.1035  0.1979 -0.2339
20843W        W38367   3.483  13.875  11.159  0.0759  0.2207  0.0546
20844W        W38368   8.490  14.680  12.068 -0.1736 -0.2391  0.0807
20845W        W38369   8.493   2.597   3.080  0.0674  0.2642  0.4116
20846W        W38370  17.896   8.565  12.351 -0.1853 -0.2081 -0.4469
20847W        W38371   4.210  14.438  12.841  0.4348  0.1275 -0.0530
20848W        W38372  10.532   2.709   3.699 -0.0048 -0.1522 -0.2234
20849W        W38373  15.010   2.710   4.188 -0.3899  0.1630 -0.1614
20850W        W38374  11.044   6.280  12.302  0.1871 -0.0016 -0.2643
20851W        W38375  12.192  17.604  10.870 -0.2563  0.1030 -0.4550
20852W        W38376  13.697   5.798  15.843 -0.0117  0.1268 -0.0621
20853W        W38377  11.643   6.927  14.363  0.3187 -0.0044 -0.2146
20854W        W38378   9.982   3.332   0.956 -0.0757 -0.0247  0.1662
20855W        W38379   2.210   6.175  12.403  0.2227  0.1420 -0.1313
20856W        W38380   9.262   4.306  14.502  0.0149  0.1130  0.1478
20857W        W38381  17.889  17.426  11.782  0.1962  0.1016 -0.0041
20858W        W38382  13.684   2.106   4.248 -0.1634  0.1706 -0.2268
20859W        W38383  17.604  15.585   4.326 -0.0182 -0.0845 -0.3071
20860W        W38384  15.408  16.848   1.031 -0.0260 -0.0566 -0.0620
20861W        W38385  12.502   6.653  11.172  0.1492 -0.2629 -0.0058
20862W        W38386  14.525   1.516   0.262 -0.2213  0.2183  0.1481
20863W        W38387   6.281   1.849  11.863 -0.1320 -0.3537  0.2618
20864W        W38388  12.313   3.086  10.582 -0.0001  0.1601  0.0576
20865W        W38389  10.739   8.406  14.344 -0.1699  0.1148  0.1989
20866W        W38390  14.576  16.956   1.395  0.0614  0.2429  0.0312
20867W        W38391   6.628  11.370  11.723  0.0149  0.2170 -0.1847
20868W        W38392   8.812   3.701  11.467  0.1459  0.2948 -0.0549
20869W        W38393  15.500   0.744  11.460  0.0815 -0.1738 -0.0550
20870W        W38394   5.621   4.994   0.584  0.0640 -0.0954  0.0087
20871W        W38395  10.074  16.683  15.554 -0.2220  0.0854 -0.1956
20872W        W38396   6.064  16.026  13.394 -0.0119 -0.3263  0.1071
20873W        W38397   3.938   5.332   2.248  0.1018 -0.1398  0.1000
20874W        W38398  11.698   3.387  13.663  0.2336 -0.2280  0.0465
20875W        W38399   3.367  17.104   2.429  0.1913 -0.0894 -0.0917
20876W        W38400   1.290   0.526   4.090  0.0698  0.1052 -0.2913
20877W        W38401   6.088   8.451  13.645 -0.0126  0.1017 -0.1159
20878W        W38402   0.058   1.081   2.538  0.1466  0.1781  0.0113
20879W        W38403  14.711   9.054  11.798 -0.0065  0.0804  0.1210
20880W        W38404  12.819  12.954   0.677  0.2685 -0.0256 -0.2147
20881W        W38405   5.805   3.662  14.960 -0.0809  0.1975 -0.0095
20882W        W38406  13.582   4.058   3.078 -0.0760  0.3654  0.0161
20883W        W38407   8.037  18.140   0.352 -0.0398  0.4183  0.3507
20884W        W38408  14.125   1.206  15.220  0.0697  0.2998 -0.0498
20885W        W38409  15.074   9.471   1.373  0.0338  0.1568  0.2275
20886W        W38410  12.227   4.504  12.821 -0.0829  0.0976 -0.0757
20887W        W38411   7.162  13.120   0.642 -0.0952 -0.0633 -0.0876
20888W        W38412  18.163  15.329  13.112  0.0238 -0.0666  0.0370
20889W        W38413   6.670   8.252  14.329 -0.0742 -0.2607 -0.0937
20890W        W38414   3.697  11.336  11.050  0.1904 -0.0153  0.1074
20891W        W38415   5.738   5.579  10.886  0.2656  0.0557  0.1858
20892W        W38416  11.621  13.616  15.407 -0.1585  0.3448 -0.2894
20893W        W38417   1.907   3.503  11.661 -0.1462  0.0515 -0.1723
20894W        W38418  15.869   8.919  13.347  0.1801 -0.2620  0.0575
20895W        W38419  15.250   1.112  15.511 -0.1603  0.0872  0.0858
20896W        W38420   0.815  14.716  14.886 -0.1487  0.1147 -0.0582
20897W        W38421   6.361  11.286   4.134  0.1424  0.3922 -0.0456
20898W        W38422   4.002   5.236   4.683  0.1341  0.2045 -0.1599
20899W        W38423  14.655  12.665   4.294  0.1795  0.0349  0.0887
20900W        W38424   8.063   9.907   2.115  0.1421 -0.5152  0.2355
20901W        W38425  16.629  13.602  14.443 -0.0198 -0.0400  0.1537
20902W        W38426   7.679   7.247   4.918 -0.1659  0.2781 -0.2131
20903W        W38427   8.360   4.461  14.758  0.0308  0.3367 -0.4236
20904W        W38428   8.752  15.127  14.125 -0.1203 -0.2092 -0.1837
20905W        W38429   8.247   1.550   1.203 -0.1133 -0.0533  0.2362
20906W        W38430  12.683  16.595   3.830 -0.1122 -0.0811  0.1947
20907W        W38431  12.758   3.758  13.567 -0.1010 -0.4240 -0.1351
20908W        W38432   2.639  16.968  12.726  0.6094  0.2539  0.0608
20909W        W38433   7.818   4.235   3.068 -0.0143 -0.2240 -0.1040
20910W        W38434   6.178  17.821   1.795 -0.2686 -0.1185 -0.2745
20911W        W38435   0.079  12.273  15.207 -0.1680  0.1702  0.0606
20912W        W38436  13.439   5.981   5.166 -0.0782 -0.1836  0.2727
20913W        W38437  13.419  12.657   4.871 -0.2754 -0.3760 -0.2461
20914W        W38438  15.957  18.042  12.722  0.0110  0.0155 -0.1494
20915W        W38439  15.942   3.458  11.751 -0.2079  0.3539 -0.0494
20916W        W38440   5.162  18.348  10.443 -0.1971  0.1093 -0.2651
20917W        W38441  12.701  10.479  14.815  0.1935  0.2757  0.3323
20918W        W38442   3.570   7.198  12.665 -0.2924  0.1062  0.1697
20919W        W38443  17.386  13.184   2.060  0.0093 -0.4393 -0.0361
20920W        W38444  13.024  14.286   2.088  0.2663  0.1808 -0.2262
20921W        W38445   7.392  14.271   1.804 -0.1784  0.0179 -0.1792
20922W        W38446   7.968  18.013   4.410  0.0796 -0.1543 -0.1096
20923W        W38447   6.991   2.905   4.514  0.0263  0.3487  0.0573
20924W        W38448  15.292  13.584  13.028  0.2949  0.3989 -0.0984
20925W        W38449   0.150  12.416  14.075  0.2524  0.1354  0.0093
20926W        W38450   6.601  11.325   3.374 -0.2382  0.0609  0.2588
20927W        W38451  17.433  18.173   2.898 -0.1344 -0.0444  0.0846
20928W        W38452   8.685  16.088  12.899  0.0276  0.0423 -0.0836
20929W        W38453  12.673  14.693   1.700 -0.1024  0.0623  0.2108
20930W        W38454   3.753  10.531  14.176 -0.3741 -0.0938  0.2010
20931W        W38455   2.354   9.743   3.935 -0.1820  0.0641  0.2859
20932W        W38456   7.824  10.587   3.526  0.0622  0.0760 -0.1618
20933W        W38457  11.259  12.535  14.487 -0.2192 -0.0937  0.0442
20934W        W38458   3.108   7.330   1.812 -0.0145  0.2594 -0.1466
20935W        W38459  12.887  10.524   4.792 -0.0429  0.2135 -0.0123
20936W        W38460   4.608   2.581   3.250 -0.1618 -0.0858 -0.0995
20937W        W38461  14.429  15.038  12.088  0.0281  0.1406 -0.0206
20938W        W38462   0.979  13.519  10.658  0.0897  0.0289  0.2167
20939W        W38463   3.795   0.920  13.965 -0.1039  0.1399 -0.0618
20940W        W38464   4.440   9.132   5.577  0.0795  0.1796 -0.0774
20941W        W38465   9.718  13.570   5.310  0.0708  0.3146  0.0449
20942W        W38466   2.899   9.073  13.580  0.1926  0.0894 -0.2292
20943W        W38467   7.866  18.015   3.916  0.1500 -0.0216  0.1370
20944W        W38468   9.510   5.905  11.342 -0.0118 -0.3082  0.0752
20945W        W38469  11.627  13.912   3.110  0.1568 -0.1624  0.0231
20946W        W38470  11.051   3.396   3.455 -0.1164 -0.0799  0.0189
20947W        W38471  16.025   3.557  12.698 -0.0249  0.1625 -0.1360
20948W        W38472  17.186  17.001  15.536 -0.2056  0.1404 -0.0355
20949W        W38473  16.729  10.003   1.213 -0.0198 -0.2809 -0.3123
20950W        W38474   6.368   2.172   0.424 -0.0129 -0.3774  0.1431
20951W        W38475  10.580   3.282  13.343  0.1749 -0.0404 -0.0910
20952W        W38476   9.114   1.743  12.704  0.0895  0.2964  0.3380
20953W        W38477  18.384   1.222   4.409 -0.1876 -0.1770  0.3868
20954W        W38478  13.514  17.897   4.414 -0.4350  0.0018  0.0265
20955W        W38479   5.050  16.465  13.693  0.0815 -0.0851 -0.0462
20956W        W38480  17.235   2.597   3.484  0.3216 -0.1430 -0.0170
20957W        W38481   2.813  13.489   1.696  0.1617  0.1298 -0.5133
20958W        W38482  11.431   3.376  11.562 -0.1697  0.1659  0.2109
20959W        W38483   6.373   7.011   5.077 -0.0583  0.1266 -0.2040
20960W        W38484   7.201   6.468  12.104 -0.0632  0.0158 -0.1603
20961W        W38485   2.781   6.937   1.816 -0.1855 -0.1803  0.2933
20962W        W38486  11.546  15.203  12.749 -0.0880  0.1497  0.1058
20963W        W38487  12.986  14.690   4.482  0.1456 -0.2351 -0.0953
20964W        W38488   1.698   1.398  12.176  0.0346 -0.0943  0.0820
20965W        W38489  10.100  13.428  11.635 -0.4265  0.1887  0.3076
20966W        W38490   6.442   1.910  15.218 -0.1637  0.2350  0.0096
20967W        W38491   8.863   1.455   1.329  0.0605  0.0564  0.2417
20968W        W38492   5.636   0.849  15.351  0.0589  0.1531  0.2671
20969W        W38493   3.368  15.752  12.954  0.2445 -0.2721  0.1989
20970W        W38494   6.491   9.132   4.141 -0.2910  0.1935 -0.0112
20971W        W38495   6.924  14.980   4.191  0.1189 -0.1728 -0.4079
20972W        W38496   5.418   4.739  11.206  0.0303  0.2485  0.0989
20973W        W38497   7.161  11.776  11.351 -0.0184  0.2699  0.0901
20974W        W38498  17.939  17.817   3.162 -0.1036  0.1535 -0.1457
20975W        W38499   7.585   8.256  15.089  0.2076 -0.0768 -0.1302
20976W        W38500  13.160   2.097   4.199 -0.1761 -0.3040 -0.1913
20977W        W38501  14.989  12.424  10.772  0.2485  0.0680 -0.0449
20978W        W38502  13.277  13.079   0.524 -0.0707  0.0041  0.1152
20979W        W38503   4.460   5.483   3.967  0.0137 -0.1458 -0.5927
20980W        W38504   1.856   2.959   2.798 -0.0049 -0.0892  0.0985
20981W        W38505   3.183  16.545   3.836 -0.0755 -0.1791 -0.0696
20982W        W38506  11.907  12.680  14.718  0.1077  0.0771  0.0438
20983W        W38507  16.914   6.344  15.347  0.2017  0.1759  0.1282
20984W        W38508   5.089  11.161  10.988 -0.5781 -0.0313 -0.0091
20985W        W38509   9.054   3.062  10.759 -0.1244 -0.0259  0.3359
20986W        W38510   4.038  15.863  14.602  0.0762 -0.2345 -0.2695
20987W        W38511  12.482  13.784   0.332 -0.3373  0.1720 -0.4173
20988W        W38512  15.537  17.113  12.569 -0.2816  0.2720  0.0002
20989W        W38513   2.985  11.537   4.777  0.1554  0.1961 -0.0880
20990W        W38514  13.252   9.203   4.092 -0.0845  0.1540 -0.2106
20991W        W38515  13.847   0.387   2.156  0.1258  0.1428  0.0876
20992W        W38516  12.559   5.770  11.187  0.0821  0.1678  0.0357
20993W        W38517  18.002   0.338  13.532 -0.3653 -0.2494  0.2320
20994W        W38518   0.130  15.371   3.588 -0.1730 -0.0826 -0.0326
20995W        W38519  17.321  12.284   3.432 -0.0362 -0.0864  0.2610
20996W        W38520  12.081  13.371   0.307  0.2211 -0.2408 -0.2258
20997W        W38521  18.244  11.358  13.481 -0.2365  0.0759 -0.0538
20998W        W38522   2.678  14.433   2.889  0.4330 -0.1228 -0.1969
20999W        W38523  16.009  16.365  14.860  0.1276 -0.2401  0.0399
21000W        W38524   5.837   7.728   3.085 -0.0311  0.1651  0.0798
21001W        W38525  11.869  15.215   5.338  0.3470  0.1666 -0.1627
21002W        W38526   3.666  16.588  13.217  0.0710  0.2034 -0.1717
21003W        W38527   2.953  12.423  15.386  0.0313 -0.1495  0.0167
21004W        W38528  15.007   8.685   2.514  0.1768  0.1055 -0.0906
21005W        W38529   0.942   0.556   1.137 -0.1284  0.0568 -0.2684
21006W        W38530  12.938   3.802   3.179 -0.2266 -0.0730 -0.3772
21007W        W38531   8.638   3.730   3.948 -0.2937 -0.1570  0.1395
21008W        W38532  16.476  13.182   1.524  0.0271 -0.1402 -0.2080
21009W        W38533  17.845   4.951   0.998  0.2704 -0.0854  0.0726
21010W        W38534   4.928   0.879  12.974 -0.1695 -0.0449 -0.2261
21011W        W38535   2.120   2.460   9.832  0.2785  0.0451  0.1644
21012W        W38536   6.802   0.431  13.278  0.4364 -0.3087 -0.0759
21013W        W38537  16.666  10.315   0.790  0.1531 -0.0064  0.0494
21014W        W38538  14.376   1.170  15.731 -0.0321 -0.0582  0.1672
21015W        W38539   8.095   3.537   0.773 -0.3123 -0.2715 -0.1079
21016W        W38540  15.575  12.523  13.034  0.0382 -0.3333 -0.0245
21017W        W38541   9.662   1.642   3.465 -0.2721  0.0924  0.1050
21018W        W38542  10.215   3.118   1.390  0.0019 -0.0836 -0.0184
21019W        W38543   4.752  14.767  14.280  0.0948  0.2657  0.0798
21020W        W38544  10.567  17.724  13.427  0.2091 -0.2352  0.3558
21021W        W38545  13.388  12.537   3.448  0.0561 -0.0522 -0.2134
21022W        W38546  17.400   1.250  11.368  0.1061 -0.0296 -0.3313
21023W        W38547  13.717   3.062   4.050  0.0313  0.2268 -0.3163
21024W        W38548   5.027   3.081  10.850  0.0858 -0.2574  0.2060
21025W        W38549   4.742   5.150  11.824  0.1468  0.1611  0.1216
21026W        W38550   9.970   1.992   3.123 -0.0166 -0.0830 -0.4222
21027W        W38551   6.644   7.903   3.048 -0.0647 -0.1673  0.2171
21028W        W38552  10.791  14.301  13.860 -0.1436  0.1017 -0.2615
21029W        W38553  11.577   7.726  13.324  0.0875  0.0578 -0.0608
21030W        W38554   5.979   6.199   1.435  0.1300 -0.1477  0.1393
21031W        W38555  12.057   4.003  13.036  0.0879  0.1156 -0.0106
21032W        W38556  18.077  14.668   0.548 -0.0925 -0.3658  0.4766
21033W        W38557   2.419   8.623   3.477  0.0711 -0.0400 -0.2497
21034W        W38558  18.365   5.725  15.716  0.0862  0.1168 -0.3083
21035W        W38559   0.436  12.884  12.125 -0.1479 -0.1497 -0.0382
21036W        W38560   0.701  10.691   0.622 -0.1773  0.0494  0.0350
21037W        W38561  16.052   3.465  14.659  0.5505 -0.0800  0.1475
21038W        W38562   7.983   3.078   3.471 -0.0833 -0.2418  0.2469
21039W        W38563   1.414   9.570  12.263  0.0723  0.0978  0.0287
21040W        W38564  14.203   5.456  15.037  0.1385 -0.2982 -0.3284
21041W        W38565   8.293  15.542  12.911 -0.2178 -0.0292 -0.1298
21042W        W38566   0.550  17.164  12.272  0.2654 -0.1126  0.0317
21043W        W38567  16.991  15.441   0.417 -0.1985 -0.2647 -0.0319
21044W        W38568  18.069  18.223  13.241  0.1797  0.2142 -0.1773
21045W        W38569   2.056   3.938   2.900 -0.2441 -0.0004  0.0163
21046W        W38570  15.768   1.486  13.100  0.1105 -0.0064 -0.1244
21047W        W38571  17.984  11.836   5.077 -0.1679  0.1968 -0.1112
21048W        W38572   5.756  11.287   0.803 -0.3790  0.3800 -0.3521
21049W        W38573   2.192  17.003   3.375 -0.2166 -0.3164  0.1004
21050W        W38574  14.706   4.521  13.516  0.1323  0.0687  0.1183
21051W        W38575   5.990   9.111   1.138 -0.1204 -0.1037 -0.1552
21052W        W38576   7.118  12.383   4.785  0.1505  0.2587  0.0493
21053W        W38577   9.098  11.889  11.486 -0.2652  0.2142  0.4064
21054W        W38578   0.116  15.773  14.285  0.0905 -0.0912  0.0188
21055W        W38579   0.708  11.600   0.781 -0.1195  0.1708  0.3347
21056W        W38580   3.165  13.644   1.303  0.0455 -0.1210  0.2375
21057W        W38581   0.975   2.554  12.518  0.2357  0.2265 -0.2490
21058W        W38582  13.012   4.683  12.328 -0.1848 -0.1091  0.0938
21059W        W38583  14.648   8.568   1.525 -0.1632 -0.0868  0.4639
21060W        W38584  14.122  12.939   4.591  0.0411 -0.3813 -0.0588
21061W        W38585   5.732  12.245   1.148 -0.1072  0.1043  0.1130
21062W        W38586  11.459   5.510  11.972 -0.1795 -0.2090 -0.2895
21063W        W38587  14.373  16.882   3.690 -0.0756 -0.1026  0.0975
21064W        W38588   1.454   7.001  12.300 -0.1126 -0.1504 -0.3524
21065W        W38589  10.731   1.483  11.914 -0.0995 -0.1501 -0.1093
21066W        W38590  10.381   0.242   2.722  0.0141  0.1626  0.2669
21067W        W38591   5.424  11.268  12.421  0.5155  0.0817  0.1681
21068W        W38592  17.038   3.915  11.564  0.1154  0.0367  0.1222
21069W        W38593   3.986   1.368  12.028 -0.0809  0.3859 -0.2465
21070W        W38594   6.234  15.373   3.018 -0.4976 -0.2278  0.3955
21071W        W38595   1.799  12.960  11.649  0.1360 -0.0630 -0.2651
21072W        W38596   1.416  17.467   5.223 -0.0321  0.2371 -0.1170
21073W        W38597  17.338  12.433   2.008  0.0194 -0.1987  0.2950
21074W        W38598  14.578  18.413   0.175  0.1883 -0.2217 -0.0650
21075W        W38599   0.349   3.484   1.665  0.1478  0.1496 -0.2200
21076W        W38600  10.264   1.709  11.014  0.0575 -0.2058 -0.3299
21077W        W38601  18.099   3.807  11.322  0.1374  0.3614 -0.2515
21078W        W38602  10.964   9.655   0.484 -0.0795 -0.0889  0.0422
21079W        W38603  11.667  14.059   1.398  0.0187 -0.0059  0.1298
21080W        W38604   9.863   1.997   3.855  0.5583 -0.1153  0.1754
21081W        W38605   2.335  17.448   1.425  0.0348 -0.0592 -0.0892
21082W        W38606   9.783   2.132  15.487  0.0654 -0.0630  0.0013
21083W        W38607  11.521   1.343   3.645 -0.0089  0.3231  0.2025
21084W        W38608  14.881  16.955  15.436 -0.1361  0.1308  0.0391
21085W        W38609  14.813  14.480  13.465 -0.2068 -0.1362 -0.3161
21086W        W38610  13.100   5.783  13.735 -0.4105 -0.1146  0.3454
21087W        W38611   9.187   1.653   0.364  0.2322  0.2985 -0.0378
21088W        W38612   3.046   2.811  11.740 -0.0422  0.2063  0.0250
21089W        W38613   3.554  16.693   2.678 -0.0364  0.1077 -0.1569
21090W        W38614   4.843   0.207   4.514  0.1105 -0.2132  0.0742
21091W        W38615  16.789   0.178   0.258  0.0081 -0.0096  0.0351
21092W        W38616  15.190   5.451  10.864  0.1305 -0.3727  0.1800
21093W        W38617   6.763   8.596  13.969  0.0636 -0.1514 -0.1692
21094W        W38618   2.861   9.505  11.534  0.0745  0.1063  0.0235
21095W        W38619   9.932  13.432  12.247 -0.1839  0.3123 -0.1801
21096W        W38620  16.571  12.932   2.504 -0.1708 -0.2849 -0.2015
21097W        W38621  16.077  13.401   3.471 -0.0301 -0.2222 -0.0461
21098W        W38622   6.923   8.043   4.399 -0.0339  0.1148 -0.1780
21099W        W38623  13.892   3.361  13.359 -0.1539 -0.0707 -0.1174
21100W        W38624   4.579   4.206  15.031  0.2136 -0.1094 -0.2849
21101W        W38625   1.707  15.111  11.975 -0.1154 -0.1377  0.3614
21102W        W38626  11.305   2.651   3.192 -0.1263 -0.0376 -0.1836
21103W        W38627   3.748   0.524  11.788  0.3395  0.0404  0.0724
21104W        W38628  17.716  18.363  13.616  0.0374 -0.3109  0.1855
21105W        W38629   8.856   5.768  10.897  0.0746  0.2090 -0.0606
21106W        W38630   3.158   1.374  14.265 -0.0087  0.2565  0.0593
21107W        W38631  16.985  13.743  10.184 -0.0547  0.0084  0.0430
21108W        W38632  18.343   0.220  11.354  0.1102 -0.1455  0.1878
21109W        W38633   4.252   3.297  10.057  0.0392 -0.0975  0.2083
21110W        W38634   8.004   2.986   2.260  0.1526  0.0140 -0.0593
21111W        W38635   4.744   7.793  15.039 -0.0984 -0.0444  0.1652
21112W        W38636   2.057   9.855  14.007 -0.1752 -0.2969 -0.1367
21113W        W38637   6.910  10.224  12.503  0.0843 -0.0887  0.1488
21114W        W38638   5.012   8.488   1.425  0.0594  0.0724 -0.1162
21115W        W38639   7.350  16.819   1.242  0.5421 -0.2783 -0.0429
21116W        W38640   0.545  10.411  15.045  0.1372 -0.0181 -0.0006
21117W        W38641  14.525   7.423  14.531 -0.1605  0.0716 -0.1084
21118W        W38642   7.724   0.644  14.163  0.1927  0.1926 -0.1379
21119W        W38643   5.666  17.606   2.837  0.0139 -0.0834 -0.1180
21120W        W38644  16.931  15.720  12.483 -0.0989  0.3146  0.1773
21121W        W38645   3.327  13.286  12.238  0.0905  0.2861 -0.1926
21122W        W38646   3.585  14.933   0.800  0.3378  0.1233 -0.0822
21123W        W38647  16.389  12.836   0.167  0.3972  0.1511 -0.0077
21124W        W38648   6.826   8.638   4.494 -0.1011  0.0834  0.2598
21125W        W38649   1.650   4.176   2.626 -0.1389 -0.0868  0.1833
21126W        W38650  14.893  11.834  14.817 -0.0190  0.1029 -0.1711
21127W        W38651   4.485  11.615  12.125  0.0459 -0.1163 -0.0434
21128W        W38652   2.524  15.346  11.404 -0.2029 -0.1942  0.1663
21129W        W38653  14.317  15.506  14.456  0.4365  0.1162  0.2513
21130W        W38654   8.145   8.817  14.406 -0.1075  0.0758 -0.1761
21131W        W38655   6.257  12.877   1.964  0.2009 -0.2176 -0.0811
21132W        W38656  17.244   0.088   0.069  0.0152 -0.2343 -0.0710
21133W        W38657  17.689  16.075  13.478  0.2013  0.0105 -0.1937
21134W        W38658  14.881  10.203  15.113 -0.2070 -0.0736  0.2628
21135W        W38659   5.602  16.547  10.552  0.5066 -0.3388  0.0808
21136W        W38660  10.255  10.594   3.574  0.0716  0.0356 -0.0501
21137W        W38661   8.111   4.965  11.966 -0.0275  0.1649 -0.2385
21138W        W38662  13.999   8.302  11.782  0.1750  0.2188  0.0104
21139W        W38663   5.993   3.018   0.654 -0.0200  0.0602 -0.0013
21140W        W38664  10.512   5.359  13.949  0.2402 -0.0036 -0.1346
21141W        W38665  14.164   5.238   1.155 -0.1267 -0.0945 -0.4629
21142W        W38666   8.386  14.241   2.029 -0.3059 -0.1075 -0.0614
21143W        W38667  15.750  15.558   1.630 -0.0471  0.0919 -0.0854
21144W        W38668  10.953   7.596  12.740 -0.1047 -0.2067  0.1054
21145W        W38669  16.377   5.685   3.731 -0.0981 -0.1614 -0.1173
21146W        W38670  10.718   1.948  14.169 -0.0151 -0.1739  0.1354
21147W        W38671  16.289  13.210   4.462  0.0018 -0.0131  0.3179
21148W        W38672   1.454   4.396  11.428 -0.2040 -0.3031  0.1119
21149W        W38673   9.954  13.845  13.401  0.0303  0.0115 -0.2301
21150W        W38674   4.672   2.845   2.866  0.3452 -0.0525  0.3510
21151W        W38675   4.371  12.411  13.805 -0.1310  0.2585  0.1796
21152W        W38676  17.453  15.611  10.595 -0.2570 -0.2897 -0.0409
21153W        W38677   2.890   9.378   3.008 -0.2303  0.3710 -0.1721
21154W        W38678   8.397   4.478  11.079 -0.3663  0.4279  0.0400
21155W        W38679  16.759  14.583  15.775  0.0486  0.1225 -0.1240
21156W        W38680  17.762   1.616   4.217 -0.0165  0.3215 -0.1347
21157W        W38681   1.928   9.455   2.188 -0.0476 -0.0544 -0.1393
21158W        W38682  11.682  13.575   1.226  0.2015  0.4796  0.0619
21159W        W38683  12.692  12.380  15.386  0.1070 -0.1202  0.0079
21160W        W38684  15.346   9.331  10.645 -0.1294  0.2164 -0.1437
21161W        W38685   2.825   7.089  13.907 -0.2006  0.2339  0.2395
21162W        W38686   9.330  14.251   1.048 -0.3826 -0.0859 -0.1334
21163W        W38687  10.301   5.841   4.559  0.3040  0.0028  0.1938
21164W        W38688  15.914  14.526  10.423  0.1354 -0.2529  0.0579
21165W        W38689   8.806   6.291   3.591 -0.0213 -0.2185  0.0483
21166W        W38690   7.654   6.212   6.049 -0.0513 -0.2851  0.0460
21167W        W38691  10.628   8.698  12.978 -0.0311 -0.1313  0.0345
21168W        W38692  17.115   3.556   2.237 -0.1056 -0.0345 -0.0561
21169W        W38693   0.953   8.381  12.663  0.0639  0.1251 -0.0284
21170W        W38694  16.679  12.047  15.668  0.0632  0.0105 -0.1528
21171W        W38695  12.201   5.807  15.065 -0.2423 -0.2661  0.4171
21172W        W38696   3.222   0.147   1.251  0.0341  0.0840 -0.0208
21173W        W38697  13.272  11.886   5.549 -0.0175  0.1304 -0.3171
21174W        W38698   8.876   1.877  15.600 -0.2688 -0.2475  0.0833
21175W        W38699   2.042   1.910   0.042  0.4104 -0.2727  0.1317
21176W        W38700   1.874  13.248  13.986 -0.0752 -0.3623  0.1417
21177W        W38701   7.031   4.241  15.578  0.0818 -0.1844  0.2679
21178W        W38702   2.791  10.927  13.421  0.1999  0.0790  0.1165
21179W        W38703  11.098  15.715  11.149 -0.1741  0.1601  0.1751
21180W        W38704   8.890   0.276   3.978  0.1333  0.2054  0.1931
21181W        W38705  14.000  14.815  11.930  0.0970  0.0710  0.0771
21182W        W38706   5.201  18.204   5.788  0.0582 -0.0793 -0.0150
21183W        W38707  11.587  16.949   4.278  0.0514  0.0090 -0.0060
21184W        W38708  15.064  13.280  11.578 -0.2562  0.0704  0.4914
21185W        W38709   6.215   4.644  15.243 -0.3489 -0.2514 -0.0868
21186W        W38710  13.916  14.616  14.209 -0.3400  0.1474  0.2018
21187W        W38711   8.835   9.616  14.536  0.0494 -0.0422 -0.3739
21188W        W38712  11.441  17.398  13.939  0.0269  0.1575  0.1584
21189W        W38713  14.659  11.495  13.187 -0.1159  0.1359 -0.1545
21190W        W38714  15.740   4.915   1.755 -0.2185  0.1151  0.1619
21191W        W38715  14.276   7.699  13.246 -0.0471 -0.1782  0.1916
21192W        W38716  12.150   1.831   2.308  0.1533 -0.0470 -0.0153
21193W        W38717  15.400  13.924   1.069 -0.2008  0.3186  0.4694
21194W        W38718   0.456  15.776   0.196 -0.0183  0.1888 -0.0552
21195W        W38719   6.333   5.194  11.460 -0.1226 -0.0260  0.0099
21196W        W38720  10.451  18.315   4.215  0.1664 -0.2709  0.0478
21197W        W38721  12.866   6.022  14.180  0.4243 -0.0004  0.2538
21198W        W38722   4.243  11.292   1.036 -0.3897 -0.0899 -0.3698
21199W        W38723   0.862  12.415  11.359 -0.2196  0.2118  0.0623
21200W        W38724   4.361  10.422  15.671 -0.1837 -0.1890 -0.2856
21201W        W38725   9.540   8.048  11.632  0.5096  0.4524 -0.1406
21202W        W38726  12.609  15.910   0.912  0.1870 -0.4563 -0.1246
21203W        W38727  12.339   9.619   0.093 -0.1433 -0.0010  0.1399
21204W        W38728   8.612   2.961  11.432  0.1252  0.3140 -0.1910
21205W        W38729  13.566  17.872  14.902 -0.0313  0.0452  0.1343
21206W        W38730   1.848  11.123   2.900 -0.1331  0.1032 -0.0032
21207W        W38731   0.551   4.810  12.388 -0.1856 -0.0835 -0.3974
21208W        W38732   9.188  11.116   5.033 -0.0848 -0.1531  0.0345
21209W        W38733  11.449   6.280  12.660  0.0652  0.2320  0.1062
21210W        W38734   1.106   2.990  15.490 -0.0192 -0.1021  0.1131
21211W        W38735   3.241   2.021   1.093  0.2248 -0.1786 -0.2461
21212W        W38736   5.039  14.762  12.681 -0.0538  0.1442 -0.0084
21213W        W38737   9.072   1.358  15.346  0.1553 -0.3016 -0.2253
21214W        W38738  11.218  16.091  14.356 -0.1008  0.1232  0.0489
21215W        W38739   9.581  10.110  12.228  0.0200  0.0332 -0.2250
21216W        W38740  17.572   6.074  14.416  0.1436 -0.0253 -0.1683
21217W        W38741   8.432  16.894  11.983 -0.0125 -0.1980 -0.0015
21218W        W38742  14.801  18.028   2.946 -0.2513  0.2655 -0.2060
21219W        W38743  10.563   4.959   3.358 -0.0430 -0.0348  0.1932
21220W        W38744  11.572  14.442   3.143  0.5557 -0.1477  0.3314
21221W        W38745   0.376   4.368  15.024  0.0966  0.0545 -0.1948
21222W        W38746   5.430   3.341  14.739 -0.0283 -0.3376  0.3091
21223W        W38747  17.762  13.753   4.627 -0.0336 -0.0922  0.0194
21224W        W38748  12.123   9.740   3.272 -0.2647 -0.0562 -0.3139
21225W        W38749   6.192  18.268   3.369 -0.0094  0.0680 -0.0694
21226W        W38750   9.609  13.660  10.743  0.0180 -0.2492  0.0708
21227W        W38751  18.109   7.860   4.310 -0.1610 -0.2941  0.2537
21228W        W38752  16.072  10.852  11.762  0.0433  0.1288  0.0512
21229W        W38753   2.926   0.239  10.876  0.0147  0.1810 -0.0124
21230W        W38754   9.430  16.862   3.497  0.0909 -0.0197  0.0894
21231W        W38755   2.183   1.278   3.339 -0.0235  0.0380  0.2945
21232W        W38756  10.320   7.010  15.826 -0.1913 -0.0456  0.1334
21233W        W38757  16.803   2.828  14.386 -0.1377  0.0462  0.1441
21234W        W38758   2.546   2.378  13.561  0.2421  0.0797 -0.0717
21235W        W38759  11.182  14.205   3.935 -0.0216  0.0281  0.0988
21236W        W38760   4.384   2.019   4.006 -0.2742  0.2497  0.0388
21237W        W38761  11.811   2.652   0.496  0.2433 -0.1805 -0.0881
21238W        W38762   7.850  16.803  11.754 -0.1084  0.0897  0.2514
21239W        W38763  12.588   2.080  13.550 -0.0102 -0.2189 -0.1838
21240W        W38764  14.333  16.557   0.169 -0.2879 -0.1072  0.2074
21241W        W38765   7.505   4.723   5.008  0.0785  0.0371  0.0299
21242W        W38766  13.632  18.047  12.882  0.3379 -0.2236 -0.0701
21243W        W38767   2.862  15.200  14.377 -0.2031 -0.1828  0.0977
21244W        W38768  17.850   7.257   4.536 -0.0793 -0.3347  0.0187
21245W        W38769   1.420  17.890   2.577  0.2408  0.2873  0.0986
21246W        W38770  14.746  18.146   1.005 -0.2999 -0.0906 -0.1695
21247W        W38771   7.519   6.622   3.383 -0.0609 -0.0956  0.0136
21248W        W38772   4.275   1.636   3.689  0.0226 -0.0968  0.0100
21249W        W38773   2.095   4.272  11.695 -0.1683  0.0651 -0.2242
21250W        W38774   1.082  14.945   1.982  0.1128 -0.0205  0.0570
21251W        W38775   1.947  12.045  13.062  0.2644 -0.0382  0.0560
21252W        W38776  15.022   8.647  12.823  0.5260 -0.1804 -0.2474
21253W        W38777  11.429   2.175   4.624 -0.2691  0.1848  0.1513
21254W        W38778   6.721   2.886  12.163 -0.0738  0.3165  0.0028
21255W        W38779   9.203  17.170   2.494 -0.2419 -0.1747 -0.0103
21256W        W38780   8.106  14.226  13.394  0.0475 -0.0112  0.0174
21257W        W38781   8.964   3.284  11.228 -0.0353 -0.0940 -0.0579
21258W        W38782   2.170   3.206  14.806 -0.1437 -0.1469 -0.1464
21259W        W38783   2.136   2.631  10.610 -0.0463  0.1419 -0.1529
21260W        W38784  17.815   3.602  15.470  0.2560  0.2451  0.1768
21261W        W38785   5.184   5.791   2.972 -0.0203 -0.2035  0.0441
21262W        W38786   0.084   2.503  14.218  0.1336  0.1572 -0.1107
21263W        W38787  12.333  16.337   2.380  0.1411 -0.1828 -0.0470
21264W        W38788   6.081   4.006   3.782  0.0663 -0.4792 -0.0627
21265W        W38789  14.348  10.133  15.200  0.2797  0.0832  0.3165
21266W        W38790  17.762  14.659  11.794  0.0331 -0.3326 -0.0806
21267W        W38791   9.675  16.688  11.473  0.1067 -0.3949 -0.0828
21268W        W38792  15.073  10.965   0.553  0.2149 -0.3271 -0.4929
21269W        W38793  10.589  12.125   1.385 -0.0505  0.1216 -0.1236
21270W        W38794   7.945   7.727  11.712  0.1029  0.0553 -0.0124
21271W        W38795  16.833   3.406  11.672 -0.0446 -0.0966  0.0103
21272W        W38796  15.553   5.245  14.814  0.0577 -0.2035  0.1043
21273W        W38797   7.977  12.453   3.709 -0.0550  0.2110  0.1356
21274W        W38798   3.129  11.889   3.066 -0.2364 -0.0916 -0.1366
21275W        W38799   9.570   3.609   0.955  0.2781 -0.2338  0.2566
21276W        W38800   8.145   4.766  15.693  0.1971  0.0663 -0.1872
21277W        W38801  13.934  18.302  11.954  0.0812 -0.1576  0.0087
21278W        W38802  15.606  16.123  14.509  0.0558  0.2174 -0.1053
21279W        W38803   8.595   5.652  12.410 -0.0434  0.0694 -0.0432
21280W        W38804   6.382  16.538  11.289  0.2093  0.0974 -0.0784
21281W        W38805   9.853  16.474   2.213 -0.2949 -0.3295  0.0986
21282W        W38806   6.139  17.069  15.392  0.3212  0.2709 -0.0341
21283W        W38807   6.674   6.751   4.608 -0.2159  0.2617 -0.2654
21284W        W38808  13.745   7.937  13.156  0.0678 -0.1966  0.1140
21285W        W38809   0.328  11.045  10.306 -0.0899 -0.2149 -0.0406
21286W        W38810  12.883   3.994   3.623 -0.2431 -0.4270 -0.2544
21287W        W38811  15.220  11.252   1.562  0.0646 -0.0840 -0.1638
21288W        W38812   5.441  17.741   1.321 -0.0188  0.1826 -0.2400
21289W        W38813   2.736   4.183   1.902 -0.1012  0.0362  0.1041
21290W        W38814  11.915   4.493   0.980 -0.0950 -0.0554 -0.1291
21291W        W38815  15.836  18.379  12.319 -0.3397 -0.1879  0.0584
21292W        W38816  13.007   5.804   4.386  0.1914 -0.0939  0.0914
21293W        W38817  12.870  13.468  11.569  0.1649  0.0632  0.0358
21294W        W38818   4.916   4.492   2.570  0.2253  0.1266  0.0523
21295W        W38819   0.592   9.388   1.336 -0.2404  0.2328 -0.0995
21296W        W38820  16.240  16.481   1.995 -0.0511 -0.1043 -0.2514
21297W        W38821  17.583  12.794   1.694  0.1780  0.6117 -0.2522
21298W        W38822  12.628  10.481   1.057  0.1239 -0.0918 -0.1760
21299W        W38823  17.806   0.381   4.284  0.0485  0.3053 -0.1543
21300W        W38824  11.909  12.880  11.504 -0.2315  0.1249 -0.1673
21301W        W38825   1.456   5.135  12.093  0.2233  0.5759 -0.2528
21302W        W38826   2.170   4.827   4.833 -0.3391  0.0505  0.0028
21303W        W38827   1.913   1.300  11.175 -0.1581  0.2037  0.3187
21304W        W38828  12.873   2.583   5.558  0.0865 -0.1906 -0.2182
21305W        W38829   9.912   1.891  11.745 -0.0057  0.0969  0.5054
21306W        W38830  14.129   2.616  12.335 -0.1833 -0.1379  0.4452
21307W        W38831   5.097   1.732   2.530  0.0268 -0.0004  0.1377
21308W        W38832   9.442  15.634   2.024 -0.1748  0.0737 -0.0312
21309W        W38833   4.734   5.468  15.480 -0.1320 -0.0563 -0.1468
21310W        W38834  15.432  18.023  12.663 -0.0464 -0.2019 -0.2840
21311W        W38835   8.805   0.869  12.929  0.0941 -0.0062  0.2215
21312W        W38836  11.661  11.303   4.489 -0.0539 -0.2283  0.0467
21313W        W38837  16.248   8.904   2.475  0.1656 -0.0580 -0.0480
21314W        W38838   7.986  15.252  11.471 -0.1406  0.3925  0.2169
21315W        W38839   2.976  11.766   0.672  0.1774  0.1271  0.1727
21316W        W38840   7.113  12.619   0.669  0.1300 -0.1282 -0.2397
21317W        W38841  13.292  16.666   4.482  0.2871 -0.3219 -0.1941
21318W        W38842   6.182   3.501  11.843 -0.0085 -0.0482 -0.1531
21319W        W38843   1.329   3.088  12.969 -0.3725 -0.0605 -0.0813
21320W        W38844  17.797   6.222   3.909  0.0159  0.0861 -0.0578
21321W        W38845  11.256   3.246   0.859 -0.0139 -0.0200  0.1153
21322W        W38846   6.350  14.485  10.240  0.0071 -0.1030  0.3451
21323W        W38847   8.325  17.949  13.160 -0.0958 -0.0036  0.1709
21324W        W38848  11.878  11.443   0.485 -0.2833 -0.0752 -0.3913
21325W        W38849   5.049   3.593   3.324 -0.2740 -0.3786 -0.3077
21326W        W38850  11.206  14.861  14.858 -0.1129  0.2166 -0.3387
21327W        W38851   3.592  14.634   2.998  0.1810  0.2592  0.0562
21328W        W38852  18.191  16.212  12.498  0.1452 -0.2113 -0.0908
21329W        W38853   9.651  12.340   4.323  0.2453  0.1289 -0.1234
21330W        W38854   7.890  11.852   1.440  0.1285  0.5021 -0.0978
21331W        W38855  14.891  16.187  15.574 -0.2649 -0.3514  0.1386
21332W        W38856   5.289   3.014   1.112 -0.1456  0.2227  0.1534
21333W        W38857   2.024  16.990  15.207  0.4695  0.5027  0.1088
21334W        W38858   5.388  10.736   3.012 -0.2704 -0.0743 -0.1472
21335W        W38859  12.593   6.409   0.020  0.3234  0.1516  0.0077
21336W        W38860  10.228  17.892  13.784 -0.2139  0.0067 -0.2932
21337W        W38861  15.481   7.588   3.179 -0.2366  0.1313  0.4006
21338W        W38862   2.114  18.203  10.343  0.1218  0.2833 -0.0542
21339W        W38863  11.759  17.089   5.157  0.0561 -0.1822  0.1735
21340W        W38864  18.025  16.104   3.350 -0.1147  0.2604 -0.2007
21341W        W38865  13.648   1.474  11.850  0.6557 -0.2406  0.3660
21342W        W38866  13.808  13.446  12.146  0.1541 -0.2034 -0.0932
21343W        W38867   2.897   1.045   0.152  0.0329 -0.0810 -0.0710
21344W        W38868  13.032  16.240   4.504  0.1160  0.0254 -0.0207
21345W        W38869   7.036   2.409   2.600 -0.1111 -0.2818 -0.1980
21346W        W38870  12.284   2.194  13.162  0.1327  0.1142  0.1456
21347W        W38871   3.412   8.705  11.802 -0.1877 -0.2785 -0.1337
21348W        W38872   4.275   6.964   2.314  0.3299  0.1544 -0.2171
21349W        W38873  13.817   1.245   1.837 -0.2015 -0.2189  0.1061
21350W        W38874   0.070  17.408   1.593 -0.2618  0.3158 -0.1874
21351W        W38875   8.150  10.014   0.831 -0.1707 -0.1038 -0.1425
21352W        W38876   7.100   6.009   1.720 -0.0597 -0.1548 -0.0537
21353W        W38877   2.823  18.045  14.725  0.3972 -0.3445 -0.2643
21354W        W38878   1.007  15.072  15.720  0.2745 -0.2533  0.0329
21355W        W38879  17.798  10.367  13.539 -0.0203 -0.0701  0.0019
21356W        W38880  10.138  15.107  12.762  0.2219  0.1473 -0.0857
21357W        W38881   2.990   5.608   3.646 -0.0243  0.1112  0.0393
21358W        W38882   9.717   6.849   4.982  0.2966 -0.0415 -0.1442
21359W        W38883  10.932   1.499  12.815 -0.0791  0.0634  0.1700
21360W        W38884  15.213  16.301   1.171 -0.1385  0.0937 -0.2000
21361W        W38885   1.228  16.884   3.305  0.0497 -0.0815 -0.1175
21362W        W38886  14.086  15.457   3.582 -0.1965 -0.0052 -0.0769
21363W        W38887   6.298  18.406  14.748 -0.0868 -0.3513 -0.3199
21364W        W38888  11.097   6.022   2.114  0.1206  0.0400 -0.2316
21365W        W38889  17.305   3.716  15.705  0.0840 -0.1175  0.0760
21366W        W38890   2.378   1.140   1.245 -0.1583  0.1758 -0.2447
21367W        W38891   3.341   5.780  14.320  0.0909 -0.0162 -0.3307
21368W        W38892  16.424   6.997   3.406 -0.1678  0.0809 -0.1497
21369W        W38893   4.642  11.497   3.991 -0.0855  0.0320  0.1033
21370W        W38894   7.457   2.438   4.594 -0.0651 -0.2781  0.1047
21371W        W38895   1.976   8.777  12.379  0.2685  0.2585 -0.0234
21372W        W38896   5.861   1.070  10.158 -0.1153 -0.2167  0.1391
21373W        W38897   4.821  10.474  12.041 -0.3628  0.1923 -0.2093
21374W        W38898   3.429   6.008   2.114 -0.3101 -0.0153 -0.2025
21375W        W38899  18.124   5.320   5.607  0.1131 -0.1281  0.1026
21376W        W38900   4.496  17.719   3.405 -0.1165 -0.3628 -0.0009
21377W        W38901   7.870   0.561   1.720 -0.1652  0.1962  0.2858
21378W        W38902   4.660  12.115  14.720 -0.3603 -0.1189  0.1363
21379W        W38903  12.479  17.626   0.380 -0.2418 -0.1784 -0.1577
21380W        W38904   6.340  15.846   3.300  0.0685  0.1702  0.2602
21381W        W38905   0.484   4.005   1.933 -0.1361 -0.0119  0.0066
21382W        W38906  15.202  16.744   4.659 -0.0427 -0.0828 -0.1636
21383W        W38907   9.482   1.162   2.616 -0.2061 -0.1713 -0.1798
21384W        W38908   2.880   2.947   0.892  0.1398 -0.0139  0.0169
21385W        W38909   3.367  13.218   1.008 -0.0898  0.1377  0.0375
21386W        W38910   9.228   9.771  12.649 -0.4273 -0.0769 -0.2731
21387W        W38911   6.379   4.516   0.560  0.1301  0.1782 -0.1027
21388W        W38912  10.297  13.940   3.476  0.1470  0.0554 -0.0104
21389W        W38913  16.832  12.772  11.142 -0.0197  0.3902 -0.2954
21390W        W38914   5.923   7.392  14.273 -0.1307 -0.0346 -0.3014
21391W        W38915   9.188   2.762  15.210  0.1924 -0.1772 -0.1882
21392W        W38916   2.666   5.824   2.439 -0.0242 -0.0088  0.1303
21393W        W38917  14.012   6.111  12.194 -0.0589  0.0078 -0.2022
21394W        W38918   6.129   9.011   2.327 -0.1202 -0.3151  0.1958
21395W        W38919  17.842  14.637  14.917  0.1528 -0.3666  0.2558
21396W        W38920  15.213  14.694  14.657 -0.3287  0.1718 -0.3579
21397W        W38921  17.748  10.506   2.278 -0.0049  0.0981 -0.0640
21398W        W38922   5.941   3.296   3.542 -0.1578  0.1311 -0.0446
21399W        W38923   6.773  16.625   0.487 -0.0489 -0.2411 -0.1434
21400W        W38924   8.359  18.008   4.082 -0.4971  0.2229  0.0479
21401W        W38925   2.693   2.101  12.150  0.1272 -0.3359 -0.2314
21402W        W38926   1.189  11.147  13.205 -0.2328  0.0106  0.3367
21403W        W38927   9.358  12.421   2.880 -0.2779 -0.0392 -0.0931
21404W        W38928   2.873  14.435   0.860  0.2329 -0.1877  0.1653
21405W        W38929  17.531  16.640   2.417  0.1409 -0.4913 -0.2040
21406W        W38930   5.703  15.865  13.049  0.0294 -0.0756 -0.1838
21407W        W38931  16.385   7.006   0.964 -0.2577 -0.0466 -0.0989
21408W        W38932   3.694   9.770   0.038 -0.0105 -0.1121 -0.4112
21409W        W38933  18.331  14.132   2.106  0.0963  0.0056 -0.0851
21410W        W38934   6.468   4.828   0.957 -0.0184  0.0532  0.1451
21411W        W38935   8.559  12.241   3.401 -0.0710 -0.1855  0.0176
21412W        W38936  11.809   7.513  13.782 -0.0376 -0.1609 -0.1645
21413W        W38937   9.843  14.060   4.455 -0.2524 -0.0519 -0.1268
21414W        W38938  16.846   4.347   0.525 -0.1946 -0.2753 -0.0412
21415W        W38939   5.754  11.684  13.881 -0.1852 -0.1211 -0.2226
21416W        W38940   2.259   9.918   3.471 -0.0467  0.6162  0.1174
21417W        W38941   6.859   5.259   3.087  0.1892  0.0766  0.1701
21418W        W38942   2.672  13.153   3.825 -0.0710  0.1383  0.0797
21419W        W38943   3.796  14.954  12.078 -0.0736 -0.1267  0.0391
21420W        W38944   0.892   1.538   3.004 -0.3135 -0.1303  0.0210
21421W        W38945  16.479   4.284   0.849  0.2341  0.0944  0.0655
21422W        W38946   1.965   1.007   3.708  0.3575 -0.1053  0.1905
21423W        W38947   2.630   5.451   0.154  0.0539 -0.0755 -0.1794
21424W        W38948  14.688   4.531  15.447  0.1359 -0.1603 -0.0729
21425W        W38949  16.830   5.603  13.034 -0.1916 -0.1382 -0.0755
21426W        W38950   8.140   2.547  10.815  0.0044  0.1997 -0.1705
21427W        W38951   3.240   3.232   3.865 -0.0413  0.1741  0.2090
21428W        W38952   8.205   0.619  11.782  0.0639  0.2977  0.2457
21429W        W38953   7.257  12.107  14.945 -0.1916  0.3698  0.1612
21430W        W38954   5.624   1.405  15.413  0.0163  0.3732  0.1767
21431W        W38955   8.480  15.952   0.757 -0.0245  0.1676 -0.1643
21432W        W38956  16.480   8.362   2.185 -0.1816  0.1971 -0.0264
21433W        W38957   1.537   0.076   2.728  0.2052 -0.1293 -0.1569
21434W        W38958   3.766  12.762   0.122 -0.0094 -0.4318  0.2210
21435W        W38959  13.414   2.824  11.106  0.1101 -0.1389  0.0569
21436W        W38960   1.631   9.888   9.892  0.1307  0.0989  0.5551
21437W        W38961   2.811   6.590   1.411  0.2413 -0.3178 -0.0512
21438W        W38962  11.887  11.337  15.340 -0.1409  0.0067  0.0415
21439W        W38963   2.543   5.415   3.656 -0.0062 -0.2909  0.1888
21440W        W38964  10.935   2.697   2.855 -0.0548 -0.2007  0.5131
21441W        W38965   8.825   8.636   3.974 -0.1785 -0.3217 -0.1723
21442W        W38966  10.824  17.898  15.474 -0.0430  0.2345  0.0523
21443W        W38967   9.447   3.580  12.449  0.2577 -0.2262  0.1587
21444W        W38968  15.504   9.798   3.832  0.0256 -0.0533 -0.0895
21445W        W38969  10.417  14.599  15.178 -0.3903  0.0865 -0.4171
21446W        W38970  15.991   2.251   4.329 -0.1057 -0.2313 -0.1585
21447W        W38971  14.131   1.696  11.919 -0.0511 -0.1182 -0.0157
21448W        W38972   5.218   0.685  15.149  0.1422  0.1059  0.0909
21449W        W38973   3.630  15.458   2.573  0.3327  0.1964 -0.0645
21450W        W38974   7.532  17.695  12.740 -0.1504  0.2247 -0.0852
21451W        W38975   6.003  10.309  13.558 -0.1798 -0.1877 -0.0313
21452W        W38976   3.069   8.870   0.175 -0.1577  0.0044  0.2501
21453W        W38977   3.395   1.741   4.307 -0.1651 -0.1593 -0.2016
21454W        W38978  13.398  16.404   2.130  0.0001 -0.3025 -0.2091
21455W        W38979   9.313  13.246  12.913 -0.1047  0.1071  0.0845
21456W        W38980   9.112   9.544   3.598  0.1546  0.0880  0.1730
21457W        W38981   3.768   2.656   4.364  0.0622 -0.1414  0.3038
21458W        W38982   7.160  10.317   2.365 -0.1372  0.2860  0.0801
21459W        W38983   5.553  17.286  14.561 -0.0211  0.0997  0.0479
21460W        W38984   5.418   1.799  14.178 -0.2464  0.3306 -0.2485
21461W        W38985  16.881   4.893   0.372  0.2776  0.1920 -0.0039
21462W        W38986   5.307  15.162   2.713  0.0219 -0.0429  0.2769
21463W        W38987  16.500  13.974  12.723  0.0553 -0.0045 -0.2459
21464W        W38988  13.906  13.491   3.844  0.1713 -0.0698  0.1827
21465W        W38989   5.457   1.955   0.160 -0.1504 -0.0334 -0.0909
21466W        W38990  18.185  13.962  11.994 -0.0668  0.0244 -0.1259
21467W        W38991   4.081  12.043  14.080  0.0071  0.2772 -0.1403
21468W        W38992   6.698   6.601   4.007 -0.1633 -0.1488 -0.0700
21469W        W38993  17.733   2.082   2.070  0.0836 -0.1962  0.4601
21470W        W38994   3.684   6.743  11.027  0.2049  0.1343  0.2058
21471W        W38995  10.869   5.637  13.635  0.2290 -0.1024  0.2611
21472W        W38996   0.332  12.800   2.300  0.0659  0.1112  0.2185
21473W        W38997  18.030   1.288   1.533  0.0531 -0.1167  0.0505
21474W        W38998  11.434  11.131   1.565 -0.2953  0.0729  0.0251
21475W        W38999  15.136   9.873   3.459 -0.2749  0.0746  0.0469
21476W        W39000  11.223  17.346  14.345  0.1911 -0.0216  0.1341
21477W        W39001   0.877  18.279  12.637  0.2402 -0.1838  0.0393
21478W        W39002  14.771  17.542   0.302 -0.0368  0.1936  0.2399
21479W        W39003  12.559  13.825  13.100  0.1589 -0.0738  0.3390
21480W        W39004   2.740   9.690   3.388  0.0092 -0.3637  0.2429
21481W        W39005  12.463  16.131  14.950 -0.0905  0.0420  0.0235
21482W        W39006   5.348   0.403  13.211 -0.1173 -0.2360 -0.0620
21483W        W39007   6.856   4.354  10.430  0.1435 -0.0682 -0.0660
21484W        W39008   1.607   7.769   0.482 -0.2539 -0.2443 -0.0212
21485W        W39009  16.153   1.859  14.506  0.0498 -0.0677  0.2276
21486W        W39010  12.507  16.589  15.066 -0.0682 -0.2707  0.0333
21487W        W39011   6.531   8.417  15.342  0.5708 -0.0862 -0.0166
21488W        W39012   8.508  16.955   2.146  0.2168  0.0498  0.1743
21489W        W39013   6.098   7.687  15.136  0.1205 -0.0175 -0.1415
21490W        W39014   9.844   3.483  11.433  0.0781  0.1499 -0.0852
21491W        W39015   5.979  11.303   3.218  0.0675  0.1066 -0.4023
21492W        W39016   1.039  15.852  11.297 -0.0934 -0.1962 -0.3422
21493W        W39017   9.025   6.023  10.339 -0.1673 -0.1743 -0.2286
21494W        W39018   2.753   2.356   4.797 -0.0603 -0.0146 -0.2482
21495W        W39019   8.654   4.345  13.916  0.3106 -0.4451  0.3208
21496W        W39020   8.969   5.343  10.608  0.3133  0.0208  0.2503
21497W        W39021   5.100   9.597  14.412  0.2363 -0.2678  0.0760
21498W        W39022   1.143   3.585  15.784 -0.0571  0.1349  0.2498
21499W        W39023   5.358  18.218  15.761  0.3564 -0.1147  0.4667
21500W        W39024   2.541   5.224  14.008  0.0596  0.4825  0.0344
21501W        W39025  15.325   5.266  10.437  0.0322 -0.3626  0.3844
21502W        W39026  11.579  16.437  15.361 -0.3394  0.0344 -0.2151
21503W        W39027  17.973  12.883  13.330 -0.0500  0.1622  0.3955
21504W        W39028  11.305  10.927   4.252 -0.3195 -0.3141  0.1084
21505W        W39029  12.660   9.149   3.698 -0.0759 -0.0517 -0.0634
21506W        W39030   3.038  15.255   0.132 -0.0798 -0.2408  0.0151
21507W        W39031   1.930   6.386  14.362  0.3927 -0.1393  0.0402
21508W        W39032  16.831   7.260   3.627 -0.3113 -0.1288 -0.1130
21509W        W39033  17.279  18.225   1.186  0.0919  0.4180  0.1404
21510W        W39034   7.690  17.224  14.830 -0.2326  0.2378  0.2987
21511W        W39035  13.050   1.255   3.935  0.2487 -0.2936  0.1411
21512W        W39036  15.564  14.688   2.982  0.0273 -0.0095  0.0817
21513W        W39037   0.358   3.294  13.766  0.1521 -0.0303 -0.0472
21514W        W39038  13.585  17.433   0.941 -0.1757 -0.0912  0.0145
21515W        W39039   6.613   6.533  11.716  0.3639 -0.3577 -0.3899
21516W        W39040   3.599   6.429  10.631  0.1065 -0.0542  0.2236
21517W        W39041  15.289  15.570  13.046 -0.2127  0.0717  0.4799
21518W        W39042   1.060   6.724  14.229  0.1158 -0.0060 -0.2320
21519W        W39043   3.474   3.174  13.405  0.0898 -0.2284 -0.0846
21520W        W39044  14.723   7.905  11.486 -0.0452 -0.3231 -0.0406
21521W        W39045  17.460  16.211   2.069  0.0627  0.0212  0.4424
21522W        W39046  10.390   9.809   0.439  0.0695 -0.1288 -0.0918
21523W        W39047  17.641  13.164  15.459 -0.1489 -0.1135 -0.3685
21524W        W39048  17.945  11.100   2.726 -0.1276  0.0595 -0.4620
21525W        W39049  18.379   7.325  14.943  0.3852  0.0087 -0.0674
21526W        W39050   9.640   1.584  12.594 -0.0011  0.0500 -0.0609
21527W        W39051  11.610  14.144   4.747 -0.2517 -0.1194 -0.0785
21528W        W39052  12.228  11.854  13.767  0.5130  0.2508  0.0986
21529W        W39053   1.092  12.935   0.904  0.4319  0.1088 -0.3169
21530W        W39054  14.631   7.970   5.146  0.2758 -0.0258  0.1414
21531W        W39055   2.846   0.039  15.006 -0.4255  0.0749  0.1177
21532W        W39056  13.218  12.953   1.601 -0.0939  0.1246 -0.2760
21533W        W39057  14.279  17.163  13.974  0.1682 -0.2669 -0.0208
21534W        W39058  10.076   2.554   3.872  0.0899  0.1313  0.0824
21535W        W39059  11.133  12.163   5.321 -0.1341 -0.0959  0.1773
21536W        W39060   0.942   1.496   0.004  0.0039  0.0433  0.2936
21537W        W39061  17.096  10.569  13.791 -0.0664 -0.0398  0.0774
21538W        W39062  17.980   8.018  12.358 -0.1171 -0.1977  0.1786
21539W        W39063   3.083   9.001  14.086 -0.0993 -0.2256  0.3991
21540W        W39064   4.363  13.869   3.922 -0.0426 -0.0202  0.0724
21541W        W39065   4.498   8.045   3.955 -0.0400 -0.1064 -0.3329
21542W        W39066  14.465  14.106  13.444  0.0208  0.1090 -0.3002
21543W        W39067   3.746  17.319  14.231  0.4544 -0.1933 -0.0928
21544W        W39068  18.146  16.314  11.985  0.1887  0.1378 -0.2773
21545W        W39069  17.625  13.061  11.696 -0.1018  0.3575  0.3419
21546W        W39070   9.395  17.944   4.486  0.0215  0.0788  0.2076
21547W        W39071   2.075   8.971  11.880 -0.0285 -0.1555  0.2198
21548W        W39072  13.256  12.201   4.852  0.2750  0.1076 -0.0248
21549W        W39073  16.635   3.249   2.322 -0.0619  0.0327 -0.2305
21550W        W39074   7.859  17.394  15.269  0.1893 -0.2037  0.1129
21551W        W39075   7.540   2.561   2.910 -0.1151 -0.2314 -0.1300
21552W        W39076  12.957  14.047  14.896 -0.1595 -0.0999 -0.1089
21553W        W39077   5.418  13.845   9.763 -0.0265  0.0012  0.1471
21554W        W39078   5.131   5.531  13.249 -0.3545 -0.0725  0.0029
21555W        W39079   3.928  16.994   4.739  0.0428 -0.3563 -0.1990
21556W        W39080  12.057   7.264   3.793 -0.1756 -0.2611 -0.0422
21557W        W39081   5.436  14.388   3.079 -0.3096 -0.0449 -0.3483
21558W        W39082  13.356  14.351   2.831  0.3409  0.1553 -0.3885
21559W        W39083   2.977  17.279   2.616  0.0645 -0.1249  0.0915
21560W        W39084  13.504   6.597  13.546  0.0036  0.1433  0.0340
21561W        W39085  16.212  16.133   2.407 -0.2666 -0.0618 -0.0116
21562W        W39086  17.676   3.570   4.853  0.0862 -0.2028 -0.2977
21563W        W39087  12.274  17.076   1.551 -0.3131 -0.1875 -0.1896
21564W        W39088  11.957   3.738  14.006  0.0009 -0.2382 -0.2815
21565W        W39089  17.392  15.080   1.558  0.1140 -0.2307  0.2720
21566W        W39090   2.765   9.367  12.059  0.0174 -0.2098  0.2828
21567W        W39091  16.417   0.607   2.389 -0.0280  0.2404  0.3522
21568W        W39092   1.908  16.165   3.863  0.1404 -0.0474 -0.1433
21569W        W39093  15.592  14.804  12.478 -0.0871 -0.1517 -0.0949
21570W        W39094  18.088  11.906  13.494 -0.3914 -0.3140  0.0283
21571W        W39095  18.082   2.226  14.169  0.2296  0.3367 -0.0964
21572W        W39096   6.862   1.949   2.374 -0.0548 -0.1017 -0.1256
21573W        W39097  16.022   0.957   0.664 -0.0566  0.1385  0.2489
21574W        W39098  12.691   0.649  13.437  0.0097  0.1098 -0.1355
21575W        W39099   5.595  12.100  15.751  0.2639  0.1211  0.2232
21576W        W39100   2.157   4.481   1.250  0.2009 -0.1179  0.3855
21577W        W39101   1.298   6.713  12.872 -0.0273  0.0415 -0.0571
21578W        W39102  10.244   9.141  10.941  0.2396  0.3153  0.1833
21579W        W39103  15.846   2.799   3.797  0.0121 -0.0913 -0.0382
21580W        W39104  10.137   5.778  10.021  0.0041 -0.0961  0.1095
21581W        W39105  12.372   8.218   1.465 -0.0052  0.3877  0.2280
21582W        W39106   2.312  13.226   3.403  0.0273  0.1104  0.0063
21583W        W39107  10.128  11.043  12.791 -0.0478  0.2187 -0.4724
21584W        W39108   2.041   2.740  15.653 -0.0289  0.1378 -0.1028
21585W        W39109   9.389  16.353   2.717  0.1009  0.1503  0.0037
21586W        W39110   2.032  10.357   3.578  0.3943  0.4957  0.1323
21587W        W39111   6.070   9.530   4.223 -0.0752  0.0208  0.4107
21588W        W39112   5.910  17.864   4.493 -0.1066 -0.1627  0.0364
21589W        W39113   8.545   7.367   1.941 -0.0152  0.0555  0.1349
21590W        W39114  15.958  16.414  10.973  0.1240 -0.0066 -0.2580
21591W        W39115   6.681   5.263  11.065 -0.2000 -0.0945  0.1377
21592W        W39116  10.696  15.649   0.783  0.2820 -0.1228  0.1586
21593W        W39117  18.352  13.241  14.690  0.0120  0.1191 -0.1397
21594W        W39118   6.366   3.506  12.782  0.0776 -0.1524  0.3706
21595W        W39119  16.698   0.093  15.228  0.0969 -0.0037  0.0664
21596W        W39120   3.893  16.295   1.516 -0.1051 -0.1215 -0.3990
21597W        W39121   1.272   8.994   0.350  0.0662 -0.2031 -0.4475
21598W        W39122   0.267  16.339  11.093 -0.2664  0.1693  0.0177
21599W        W39123   0.510   8.547  11.795 -0.1119  0.3429 -0.1577
21600W        W39124  17.971  11.208   0.025 -0.4489  0.0156 -0.0588
21601W        W39125  14.976   9.468   0.674  0.2771  0.5468  0.1757
21602W        W39126   3.452  12.724   1.842 -0.2452  0.1081 -0.1084
21603W        W39127  15.244  11.432   2.796 -0.2734 -0.1720  0.0053
21604W        W39128  10.047   1.906   2.166  0.3559  0.0380 -0.2577
21605W        W39129  13.115  10.190   0.451  0.1301  0.2296 -0.0340
21606W        W39130  16.732   9.120  11.719  0.1568  0.0900  0.0159
21607W        W39131  16.968  15.715  14.039  0.0057  0.1100 -0.0991
21608W        W39132   7.010   8.906   2.863  0.0596  0.1068 -0.3658
21609W        W39133  17.281   1.072  14.594  0.0569  0.1661 -0.0253
21610W        W39134  18.133  11.581   4.325 -0.0891  0.1438  0.1095
21611W        W39135  15.072  14.632  15.752  0.2173  0.2094  0.0282
21612W        W39136   0.463  14.992  10.604  0.2095 -0.0411 -0.1857
21613W        W39137   9.804  15.966   3.159 -0.0478 -0.1796 -0.1219
21614W        W39138   0.975  12.363  15.440 -0.2933  0.0101  0.1037
21615W        W39139   3.582   5.526  15.336 -0.0412 -0.2513  0.1964
21616W        W39140  12.946   9.781   1.769 -0.1990 -0.1865 -0.0659
21617W        W39141  15.670   9.900  13.298  0.0951  0.1208 -0.0371
21618W        W39142   2.966   2.068   4.412  0.0176  0.0426 -0.0769
21619W        W39143  11.996  17.832  15.694 -0.0500  0.2479 -0.1323
21620W        W39144  14.943   1.505  12.811  0.1437  0.0631  0.1310
21621W        W39145   7.436  11.255   1.189 -0.3101  0.0414 -0.0640
21622W        W39146  16.650  11.112   3.903  0.0938 -0.0182  0.1849
21623W        W39147  14.550   5.837   3.769  0.1824  0.1066 -0.1472
21624W        W39148   9.523   3.090   0.653  0.1224 -0.1997 -0.1367
21625W        W39149   6.176  11.602   4.521  0.1321 -0.1415  0.1699
21626W        W39150  11.873   4.915   0.738 -0.1434 -0.0928  0.0278
21627W        W39151   8.187   1.265  13.794 -0.0274  0.0510  0.0191
21628W        W39152   2.314  12.313   0.709  0.0366 -0.5400 -0.0488
21629W        W39153   7.408   7.301  13.560  0.0399 -0.3310  0.0347
21630W        W39154  12.855  18.300   5.988 -0.1598 -0.1873  0.0460
21631W        W39155   3.057  10.281  11.117  0.0744  0.0606 -0.0714
21632W        W39156  17.119   8.769   1.937 -0.1062 -0.1963  0.1717
21633W        W39157  13.105   8.589   4.389 -0.0598  0.2861  0.1293
21634W        W39158  15.500   8.730   2.533  0.2662  0.2915 -0.1439
21635W        W39159   7.234   6.637   0.321  0.1834 -0.1851  0.0564
21636W        W39160  16.123  13.007  14.117 -0.0793 -0.1307 -0.1636
21637W        W39161  11.983   7.907   1.472  0.2292  0.0317  0.0159
21638W        W39162  15.701   3.432   2.790 -0.0124 -0.0667 -0.2236
21639W        W39163   2.866   2.617   5.238 -0.1433 -0.0336  0.3678
21640W        W39164  14.592  17.022  14.370 -0.0522  0.1887  0.2984
21641W        W39165   0.122  13.267   4.295 -0.0390  0.5203 -0.1341
21642W        W39166  16.301   6.482   2.564 -0.0943 -0.3185  0.2608
21643W        W39167   3.822   6.876  15.486  0.1210 -0.0480 -0.0039
21644W        W39168   5.935  12.103  13.378  0.0118  0.2279  0.1168
21645W        W39169   2.506  12.697  13.577  0.1494 -0.0690 -0.0079
21646W        W39170  16.001   6.359  10.574 -0.0854  0.3636 -0.0880
21647W        W39171  14.954  10.356   1.259 -0.0159 -0.2727  0.2603
21648W        W39172  12.272   6.244  13.248 -0.0257 -0.0201  0.4595
21649W        W39173   1.432  17.630   0.779 -0.0189 -0.0767  0.3228
21650W        W39174   6.751   1.243  14.729  0.1701  0.4906  0.1275
21651W        W39175   9.747   8.532   2.875 -0.0657 -0.1263  0.0487
21652W        W39176   4.746   9.618   2.705  0.2876 -0.2582  0.1165
21653W        W39177   3.613  13.372   4.619 -0.2820 -0.0579  0.0846
21654W        W39178   2.395   4.570   4.393  0.1639  0.0790  0.2851
21655W        W39179   6.012   5.558  12.319 -0.0571  0.2759  0.2602
21656W        W39180   7.532  13.794   2.058  0.5062  0.0452 -0.2882
21657W        W39181   1.354   5.827  13.803 -0.4909  0.0926  0.2194
21658W        W39182   2.409   8.606  11.490  0.4351 -0.0776  0.1248
21659W        W39183   6.020  10.861   2.974 -0.0713  0.0714  0.2087
21660W        W39184   9.623  11.683   3.688 -0.0054  0.0633  0.0229
21661W        W39185   4.029  15.964  15.102  0.0584 -0.2790  0.3725
21662W        W39186  12.995  10.426   0.045 -0.0462  0.0922  0.5268
21663W        W39187   8.755   1.927   2.558  0.0481  0.1419 -0.0431
21664W        W39188  10.724   1.377  11.360 -0.0828  0.0906  0.0415
21665W        W39189   9.244   3.848  15.716  0.2591 -0.1702  0.1359
21666W        W39190  17.864   4.432   1.314 -0.4168 -0.1135  0.2969
21667W        W39191  10.039   5.003   4.219 -0.1805  0.0627  0.1936
21668W        W39192   4.472  12.268   3.260  0.2969  0.2084 -0.1038
21669W        W39193   3.682   7.297   1.672  0.1936  0.2518 -0.2383
21670W        W39194  17.487   2.954  15.098 -0.0400  0.1097  0.0265
21671W        W39195   6.815   0.568  13.919 -0.1969  0.2030  0.0743
21672W        W39196  11.282   1.492   1.936 -0.1792 -0.2027 -0.1514
21673W        W39197   4.553  15.987  15.305 -0.0105 -0.0788 -0.6483
21674W        W39198  10.354   9.258  11.455 -0.0058 -0.1774  0.0857
21675W        W39199   9.059  17.305   0.000  0.3108 -0.0513 -0.1345
21676W        W39200  14.603   5.386   0.163 -0.0895 -0.2315  0.1012
21677W        W39201   1.062   1.810   4.010  0.0176 -0.0242 -0.0531
21678W        W39202  16.006  12.316   5.080 -0.0665 -0.0107 -0.0433
21679W        W39203  16.273   3.640   2.095 -0.2456  0.1452 -0.1126
21680W        W39204   2.574   5.969   0.316 -0.0585 -0.2696 -0.0933
21681W        W39205   1.876  13.784  13.695  0.0177 -0.0674 -0.1609
21682W        W39206  10.986   2.683  14.224 -0.3123 -0.2474  0.1431
21683W        W39207   8.567   4.368   5.575 -0.2886  0.0491  0.0089
21684W        W39208  12.206   8.733   2.314  0.0581 -0.1656 -0.0468
21685W        W39209  15.370  11.885  11.585 -0.1577 -0.0673 -0.1876
21686W        W39210   8.633  16.816   5.658  0.1039  0.1651  0.2464
21687W        W39211   7.155  16.364   3.075 -0.1241  0.1046 -0.2610
21688W        W39212  14.325   0.413  14.540  0.0883 -0.0756  0.0635
21689W        W39213   9.029   0.602   0.731 -0.0362 -0.2137  0.1531
21690W        W39214   9.438  17.358   2.106  0.0378 -0.1008 -0.0670
21691W        W39215  17.455  16.986  12.876  0.1045 -0.1141  0.1470
21692W        W39216  14.573   0.115  13.632  0.0575  0.2599 -0.0130
21693W        W39217   0.977   0.681   5.076 -0.0101  0.0723  0.0104
21694W        W39218   3.742  18.346  13.809  0.0066  0.2148 -0.1078
21695W        W39219  11.081   2.460   4.909  0.3450  0.0903  0.1012
21696W        W39220   9.323   1.291   3.089 -0.2099 -0.1476  0.0311
21697W        W39221   8.752  10.271  10.727  0.1392 -0.0575 -0.1963
21698W        W39222   4.673  14.191   4.739  0.1776 -0.1340  0.0537
21699W        W39223  12.490   6.638   2.326  0.0761 -0.4160  0.0781
21700W        W39224   8.773  17.238  11.767  0.0060  0.0942 -0.3013
21701W        W39225   4.471   5.087   4.496  0.2946  0.0716  0.0970
21702W        W39226   9.191   2.740  11.078  0.0748 -0.0105 -0.1915
21703W        W39227  11.645   6.149  14.362 -0.0809  0.0255 -0.2264
21704W        W39228  18.212   4.883  12.680 -0.1255  0.1353  0.1937
21705W        W39229   4.391  18.209  11.656  0.0090  0.4078  0.2155
21706W        W39230  16.705   9.259   2.714  0.3188  0.1573  0.0499
21707W        W39231   7.108   8.954  14.193 -0.2720  0.1360  0.0597
21708W        W39232  10.738   8.633  13.920  0.1277 -0.2850 -0.0238
21709W        W39233   7.014   7.724   3.495  0.3428 -0.3568 -0.1911
21710W        W39234   0.168   5.160   2.472  0.0956  0.1193 -0.0548
21711W        W39235   1.558   7.898  12.042 -0.2762 -0.1106 -0.1031
21712W        W39236  18.152  15.512   4.145 -0.0974 -0.1341 -0.0266
21713W        W39237   8.514   9.297  13.623  0.0465 -0.4323 -0.1657
21714W        W39238   5.360   1.226   2.748 -0.1246 -0.0858  0.0005
21715W        W39239  10.454   4.599  14.370  0.1608 -0.4073  0.2896
21716W        W39240   7.000  10.072  13.684 -0.0250 -0.1349  0.0003
21717W        W39241  12.682   2.780  11.463 -0.1039 -0.2821  0.0709
21718W        W39242  17.210  17.895   5.127 -0.2232  0.1976 -0.2313
21719W        W39243  16.388   4.320   2.886 -0.1958  0.0937 -0.0436
21720W        W39244  16.836  16.734  15.814 -0.0627  0.1583 -0.2301
21721W        W39245   8.976   8.826   1.223  0.1519 -0.1284  0.0870
21722W        W39246   8.881   0.863   4.690 -0.1958 -0.0603  0.3594
21723W        W39247   3.173  17.654   0.926  0.0915  0.2523 -0.0936
21724W        W39248  18.315   7.117   3.569  0.0585 -0.0771 -0.0777
21725W        W39249   1.024   9.652   1.711  0.0884  0.2281  0.0253
21726W        W39250   5.062  17.064  14.410  0.0080 -0.3707  0.2864
21727W        W39251   9.643   7.572   1.953 -0.1962  0.0168  0.2009
21728W        W39252  17.215   6.968  13.048  0.0342  0.1824  0.0106
21729W        W39253   9.223   9.496   9.839  0.2176  0.0382 -0.1074
21730W        W39254   6.198  13.388   0.149 -0.3343 -0.4444  0.1904
21731W        W39255   2.765  12.709  11.244  0.3436 -0.1847  0.2642
21732W        W39256  13.198  17.452  15.287 -0.0886 -0.1309 -0.1309
21733W        W39257   7.615   1.696  13.129  0.0166  0.1018 -0.0312
21734W        W39258  13.485  17.210  14.268 -0.3097 -0.0696  0.2106
21735W        W39259   0.496  12.009  14.669  0.2110  0.2098 -0.0876
21736W        W39260  12.241  10.017  15.177 -0.0844 -0.3227  0.1380
21737W        W39261   7.204   9.847  14.637  0.0143  0.1175  0.0328
21738W        W39262   7.573   0.820  13.273 -0.2911  0.0559  0.4083
21739W        W39263   4.198   3.304  12.084  0.0216 -0.0446  0.2300
21740W        W39264  12.517  17.139  12.507 -0.5195  0.1118  0.0931
21741W        W39265  15.575   6.564  13.973 -0.0530 -0.0002 -0.0500
21742W        W39266   2.812  15.330   1.830 -0.1033 -0.0177 -0.1348
21743W        W39267  15.132   2.262   4.322  0.2548 -0.0951 -0.0596
21744W        W39268  14.297  14.399  11.870  0.1967 -0.0918  0.0979
21745W        W39269   0.051   2.070  14.797 -0.1497  0.1151  0.2314
21746W        W39270  13.497  11.811   4.699  0.1879 -0.1850  0.1700
21747W        W39271   5.677  15.131  15.372 -0.1386 -0.0710  0.0850
21748W        W39272   8.429   2.804  13.742 -0.1735 -0.1650  0.1116
21749W        W39273  17.891  13.408  11.378 -0.2193  0.2347  0.1174
21750W        W39274  15.819   7.235  14.671  0.2146 -0.0608  0.0420
21751W        W39275  11.774  12.600  12.746 -0.0068 -0.3089 -0.0058
21752W        W39276   0.327  16.161   4.221 -0.0656  0.1018  0.2050
21753W        W39277  14.431   6.454  15.018 -0.0242 -0.0853  0.2638
21754W        W39278   6.401  15.160   2.605 -0.0248  0.1212 -0.2451
21755W        W39279   1.421   8.469  15.225  0.1069  0.0283 -0.0541
21756W        W39280  16.433  14.867  14.178 -0.0872  0.0145  0.3801
21757W        W39281   5.156   7.806   0.717  0.2183 -0.0564 -0.0985
21758W        W39282   6.415   1.675  12.977 -0.0703  0.0699  0.3066
21759W        W39283  10.244  14.669   3.016 -0.0616  0.1193 -0.0432
21760W        W39284   6.934   8.459   0.963  0.0715 -0.0131 -0.0251
21761W        W39285   5.632   3.250   0.112 -0.1863  0.3261  0.0144
21762W        W39286  16.390   4.163   0.323 -0.2379 -0.0234  0.0022
21763W        W39287  17.700  16.083  14.380 -0.1241 -0.3447 -0.0693
21764W        W39288   8.419  12.972  13.130  0.3307 -0.1086  0.0989
21765W        W39289  15.033   8.956   0.721  0.0498 -0.2712 -0.0701
21766W        W39290  15.686  18.269   2.569  0.1135  0.4985 -0.0039
21767W        W39291   7.766   6.632   2.896  0.0070  0.0516  0.1001
21768W        W39292  12.151  10.474   3.661  0.1242  0.0265 -0.2661
21769W        W39293  11.423  11.256   0.549 -0.1754 -0.0370  0.2717
21770W        W39294   4.847   1.916   3.773  0.2177  0.1060 -0.1552
21771W        W39295   9.402  16.182  12.329 -0.1330 -0.1427  0.0254
21772W        W39296  10.809  15.414   3.121  0.0882 -0.1580  0.0283
21773W        W39297  17.245   3.595   3.086 -0.1755 -0.0973  0.4259
21774W        W39298  13.092  13.075   4.708  0.0787  0.3090 -0.1532
21775W        W39299   1.843   7.074  10.338 -0.0119  0.0303  0.0438
21776W        W39300  11.099   0.174  12.572 -0.0930 -0.0790  0.1398
21777W        W39301  18.074   7.593  15.729  0.0555 -0.0197  0.1871
21778W        W39302  13.046   5.298  15.317 -0.2480  0.1235  0.2811
21779W        W39303  11.232   1.818  12.647  0.1278 -0.2818  0.1359
21780W        W39304   7.962   0.108  12.170  0.0510  0.1471 -0.1661
21781W        W39305  13.105  17.968   2.650 -0.0066  0.3029 -0.0078
21782W        W39306   7.139   7.642   4.159 -0.1222 -0.3260 -0.2901
21783W        W39307   3.384   0.051  14.218  0.0042 -0.1339 -0.0447
21784W        W39308  15.380   5.249  11.755 -0.1081  0.0401  0.0765
21785W        W39309  14.297   8.646  11.105  0.1294 -0.0901  0.2066
21786W        W39310  14.879   9.062  13.693 -0.1220 -0.1018 -0.2325
21787W        W39311   4.629   8.985   4.448  0.1806  0.1571  0.4883
21788W        W39312  10.879  18.250  14.289 -0.0427  0.0616 -0.0597
21789W        W39313   5.028  12.262  12.537 -0.2151  0.0894  0.2906
21790W        W39314  17.926   7.578   0.331 -0.1067 -0.0017 -0.2775
21791W        W39315  11.389  16.070  15.612  0.0698 -0.0372 -0.1758
21792W        W39316   2.786   2.069  15.458 -0.3219 -0.0813  0.1605
21793W        W39317   5.348   4.356   2.729 -0.0823  0.0312  0.5921
21794W        W39318  16.154  13.187  15.090 -0.3175  0.1442 -0.1004
21795W        W39319  14.406  17.758   3.830 -0.2252 -0.0167  0.3502
21796W        W39320  15.640  14.891  12.971  0.3046  0.0825 -0.3272
21797W        W39321   3.314  16.346  11.585  0.3540  0.1569 -0.2632
21798W        W39322   4.569   1.576   5.086  0.0057 -0.1912  0.0595
21799W        W39323  13.907  17.983   1.113 -0.1625 -0.2029  0.1583
21800W        W39324  13.547  10.433   3.879  0.2021  0.3198  0.0599
21801W        W39325   2.999  12.993   1.767 -0.0305 -0.0461 -0.1140
21802W        W39326   9.935  17.446  14.772 -0.0525 -0.0621  0.3968
21803W        W39327  10.353   1.035   4.981 -0.0489  0.3603  0.1130
21804W        W39328  15.097   8.986  15.662 -0.2361 -0.3052  0.0091
21805W        W39329   4.437   0.508  12.318 -0.1709 -0.3000 -0.2170
21806W        W39330   9.878  11.859   5.184 -0.0963  0.0406 -0.0698
21807W        W39331  14.964   2.130   1.037  0.3858  0.4003  0.2267
21808W        W39332  14.716  10.272  14.406 -0.2434 -0.0629 -0.1721
21809W        W39333  18.385   4.457   1.520 -0.1215 -0.0549  0.1730
21810W        W39334   5.802  11.362   4.903 -0.1807  0.3423 -0.2123
21811W        W39335  13.278  14.758   4.058 -0.1477  0.1508  0.4088
21812W        W39336  17.206   6.293  12.305 -0.1006 -0.0914  0.1572
21813W        W39337  10.658   0.870   4.016  0.1520  0.1483  0.1272
21814W        W39338  12.547  12.440  12.613  0.3695 -0.0150 -0.1500
21815W        W39339   5.490   0.106   2.555  0.0848  0.0679  0.0133
21816W        W39340   5.470  11.748  10.952  0.0570  0.3097  0.3325
21817W        W39341  18.054   5.964  14.421  0.2053 -0.0295 -0.0577
21818W        W39342   7.934   6.617  12.952 -0.2528 -0.0862 -0.1966
21819W        W39343  13.609  12.089  15.611 -0.1569  0.0689 -0.0077
21820W        W39344  10.832   7.869   3.502 -0.1261 -0.0082  0.2655
21821W        W39345   1.548  11.148  11.448 -0.1191  0.0073  0.1344
21822W        W39346  14.705  14.211   3.095  0.0204  0.1826 -0.2658
21823W        W39347   4.437   7.164  12.417 -0.1617  0.1004 -0.0142
21824W        W39348  13.987   9.803   0.768 -0.2790 -0.3405  0.1075
21825W        W39349  12.553   6.465  14.438 -0.0529 -0.2408  0.2733
21826W        W39350   4.769  14.542   1.080 -0.2099 -0.2768 -0.1894
21827W        W39351   1.158  15.672   3.843 -0.0897 -0.2029  0.0372
21828W        W39352   0.426  15.380   5.875  0.0178  0.3592  0.2041
21829W        W39353  13.973  10.146   3.896 -0.0543 -0.2245  0.0925
21830W        W39354   5.732   2.466   1.465  0.0360 -0.3313 -0.1755
21831W        W39355  12.380   6.541  12.258  0.0464  0.1384 -0.2070
21832W        W39356  16.648  15.812   2.553  0.3511  0.1144  0.2457
21833W        W39357  17.614   5.647  10.692 -0.2862 -0.1616 -0.3170
21834W        W39358  16.127   3.885   0.974 -0.0473  0.1766  0.0656
21835W        W39359   7.952   2.646   0.578  0.1554  0.0313 -0.3635
21836W        W39360   6.159   6.842   4.616 -0.4334 -0.1488 -0.1439
21837W        W39361   0.150   4.498  14.131 -0.3517  0.0024 -0.1262
21838W        W39362  15.136   1.019  14.132  0.1593 -0.3332  0.1139
21839W        W39363   8.718  17.745  15.809 -0.1089  0.2473 -0.0769
21840W        W39364   3.273   7.249   5.441  0.0791 -0.0408 -0.1888
21841W        W39365   7.933   0.070   1.388 -0.0474 -0.3872  0.1796
21842W        W39366   0.102   6.913  12.707 -0.1784 -0.1469 -0.1394
21843W        W39367  10.020   8.154   1.406 -0.2717 -0.1710  0.0917
21844W        W39368   6.571  16.058  11.089 -0.1259  0.0671 -0.1233
21845W        W39369   7.926   5.167  11.498 -0.0401 -0.1491  0.0868
21846W        W39370   5.793  15.964  13.808  0.1761  0.0753 -0.1402
21847W        W39371  10.414   1.042  14.000  0.0825  0.0758 -0.0271
21848W        W39372  17.426  16.561  10.685  0.0575 -0.2351 -0.2104
21849W        W39373   2.652   5.627   1.709 -0.1421  0.0554  0.1571
21850W        W39374  17.496  11.513  14.501 -0.0055 -0.1705  0.1005
21851W        W39375  12.510   5.433   4.310  0.1531  0.1400 -0.0139
21852W        W39376   5.306  11.540   4.015  0.0548 -0.2343  0.0881
21853W        W39377  15.298   6.198   0.908  0.4258 -0.1949  0.2605
21854W        W39378   5.911  13.844   0.033  0.0082  0.0872 -0.0349
21855W        W39379   3.962  12.456   0.466  0.2283 -0.0853 -0.2703
21856W        W39380   6.996  14.120  13.076  0.3816 -0.3888  0.0879
21857W        W39381   8.322  13.331  15.449  0.0391  0.0512 -0.0845
21858W        W39382   1.770  12.254  13.655 -0.4463  0.0026  0.1543
21859W        W39383   4.005   5.450  15.675  0.0955 -0.0842  0.3131
21860W        W39384  14.197  12.883   0.926  0.2487  0.0950  0.2232
21861W        W39385  16.405   9.584  15.508 -0.0411 -0.3060 -0.1102
21862W        W39386   5.429   2.912  11.920  0.0376 -0.4109  0.1616
21863W        W39387  13.558   4.618  10.824 -0.0602 -0.0261 -0.0248
21864W        W39388   8.346   2.276   1.726  0.3603  0.3777  0.1683
21865W        W39389  16.619   5.531   2.515  0.0407 -0.6840 -0.0241
21866W        W39390   2.228  16.351  15.429  0.0814 -0.0440  0.2287
21867W        W39391  11.299   5.885  13.043  0.0281  0.0575  0.3537
21868W        W39392  12.449   9.236  13.184  0.0714 -0.0073  0.1338
21869W        W39393  10.304  11.325  12.290  0.1839  0.0146  0.1119
21870W        W39394  14.742   2.023  13.448 -0.2785  0.1745  0.0294
21871W        W39395   6.471   5.520   5.336 -0.0138 -0.0611 -0.3152
21872W        W39396   7.719  10.594   4.458  0.1893  0.2961  0.1181
21873W        W39397   3.971  13.197  14.744 -0.0505  0.2027  0.0305
21874W        W39398  13.842   1.197  13.360 -0.1699  0.1275 -0.3221
21875W        W39399  13.159  13.610  13.324 -0.1064 -0.0538 -0.1411
21876W        W39400  15.865  17.109   0.499 -0.2417  0.4570 -0.2154
21877W        W39401   9.698   0.134  11.480 -0.1141  0.1289 -0.1324
21878W        W39402  17.611  13.452  14.245 -0.2621  0.0842  0.0101
21879W        W39403  12.992  10.521   6.034 -0.3124  0.0781 -0.1572
21880W        W39404  14.689  10.545   3.093  0.0888 -0.0763 -0.0602
21881W        W39405  14.227  11.006  13.933  0.3285 -0.0255 -0.0485
21882W        W39406  18.324   7.887  14.267  0.0493  0.3382 -0.2177
21883W        W39407   4.615  12.693  13.493 -0.0616 -0.0338 -0.1313
21884W        W39408   9.685   1.567   2.924 -0.3332  0.0892 -0.2099
21885W        W39409   9.883  10.681  12.522 -0.2317  0.2701  0.0630
21886W        W39410  16.532   5.518   4.140 -0.0082 -0.0451  0.1685
21887W        W39411  17.973   4.182  13.738 -0.0674  0.2090  0.3055
21888W        W39412   1.388   1.533  11.248 -0.3514 -0.1566 -0.1528
21889W        W39413   0.322   7.686  13.974  0.0892 -0.1271  0.0284
21890W        W39414   7.611  17.322   5.033 -0.1389 -0.0485 -0.0957
21891W        W39415   5.145  16.945  11.766  0.0610  0.0117  0.0011
21892W        W39416   3.214  11.422   0.303 -0.0849 -0.1203  0.2100
21893W        W39417   9.081   6.026   0.721  0.0927  0.3383 -0.1274
21894W        W39418   3.351  11.708   3.506 -0.0992 -0.3716 -0.1371
21895W        W39419  13.803  12.919  11.402 -0.2061 -0.2017  0.3203
21896W        W39420   0.975  18.068   0.739  0.0120 -0.2613 -0.0346
21897W        W39421  15.811  16.212  13.043 -0.1853  0.0137  0.1108
21898W        W39422  15.576  16.761  12.190 -0.0368  0.1604  0.0582
21899W        W39423   5.498  10.228  13.378 -0.2394  0.1750 -0.0603
21900W        W39424   8.508  10.123  11.191 -0.0238 -0.1020  0.2686
21901W        W39425  17.085  15.579  15.780 -0.3239 -0.0312  0.0726
21902W        W39426  14.810  15.233  12.464  0.1218 -0.0331  0.1512
21903W        W39427   2.770   6.196  15.140  0.0243 -0.0221  0.0333
21904W        W39428   3.352   0.477   4.144  0.3169 -0.1332 -0.0564
21905W        W39429  10.993  17.453   2.668 -0.2595  0.2766 -0.2110
21906W        W39430   2.141  17.637   2.957  0.0988  0.1370  0.2360
21907W        W39431   0.339   2.252   0.195  0.1701 -0.2776 -0.1353
21908W        W39432  11.147   0.018  15.639 -0.2640  0.3293  0.0944
21909W        W39433  13.206   7.002   5.069  0.2377  0.1064  0.1286
21910W        W39434  15.306   0.217  10.778  0.0094 -0.3630  0.2891
21911W        W39435  17.704   4.791  10.896  0.0953 -0.1283 -0.0492
21912W        W39436  17.112   5.600   4.136 -0.0471  0.2332 -0.1519
21913W        W39437   0.311   6.367  10.607  0.2676  0.0278 -0.1438
21914W        W39438   9.239  13.720  14.164  0.2166 -0.2729  0.1311
21915W        W39439   7.366   9.091   4.505  0.0010 -0.2723  0.1559
21916W        W39440   4.081  12.761  10.778 -0.1311 -0.4321 -0.3527
21917W        W39441   4.258   9.451   3.668  0.1338 -0.2432  0.0674
21918W        W39442  15.569  11.580  13.039  0.0785 -0.0989  0.0709
21919W        W39443  18.219  14.272  15.548  0.1176 -0.2123 -0.0665
21920W        W39444  12.464   5.698  13.305 -0.0476  0.0087  0.0762
21921W        W39445  12.110  12.201  15.001  0.0959  0.0212  0.3070
21922W        W39446   4.126   2.583   2.824  0.3472 -0.2805 -0.2755
21923W        W39447  16.020   8.764   4.331 -0.2506 -0.1351 -0.0219
21924W        W39448   8.233   1.359  15.675  0.1403 -0.1175  0.0887
21925W        W39449  16.707   4.288   2.474  0.3615  0.1305  0.0389
21926W        W39450   8.850  10.092  14.347  0.1066 -0.1468  0.6063
21927W        W39451   7.235  10.662  10.716 -0.3197 -0.0212 -0.1189
21928W        W39452  12.811   9.069   5.094  0.1159  0.0734 -0.1994
21929W        W39453   3.544  13.318   4.131 -0.0885  0.0824  0.2178
21930W        W39454   9.788  14.659  12.796  0.0655 -0.1143 -0.1478
21931W        W39455   2.388  13.034   1.466  0.0101  0.2431  0.0367
21932W        W39456   1.987  12.426   1.546 -0.0617  0.1212  0.0094
21933W        W39457   3.120  17.331  14.971  0.3944 -0.4118  0.3238
21934W        W39458  14.661   9.991  13.955 -0.0179  0.0741 -0.2416
21935W        W39459   1.543   6.865  13.689 -0.1174 -0.2360 -0.2556
21936W        W39460   0.862   6.433   3.739  0.0667  0.2787  0.0104
21937W        W39461   7.186   5.827  12.863  0.0266 -0.1421  0.2517
21938W        W39462   2.012  18.335   4.460 -0.1501 -0.1472  0.2493
21939W        W39463  10.460  13.670   2.884 -0.1204  0.2072  0.0253
21940W        W39464   6.025   1.861   2.220 -0.0678 -0.1637 -0.1949
21941W        W39465   2.102  10.008  11.657  0.3019 -0.0645 -0.1578
21942W        W39466  11.033  10.060  13.137 -0.1820  0.2167 -0.0846
21943W        W39467  12.076   3.162   2.883 -0.0694  0.0552  0.1820
21944W        W39468   3.618   5.262  14.259  0.1039  0.1147  0.2064
21945W        W39469  17.919   8.378   4.316 -0.2721 -0.1516 -0.1056
21946W        W39470   6.723  10.570   2.255 -0.2877  0.0310  0.1144
21947W        W39471   3.720   2.009  10.937 -0.1800  0.3733 -0.0025
21948W        W39472  12.339   1.195   3.428  0.1478  0.0240  0.0616
21949W        W39473   4.902  15.045   4.688  0.0488  0.0184 -0.3015
21950W        W39474  12.790  18.229   3.821  0.2438 -0.2952 -0.0758
21951W        W39475  16.452   4.624   4.839 -0.0015 -0.1767 -0.0448
21952W        W39476  10.742  15.261  14.668 -0.0099  0.0819  0.0504
21953W        W39477   5.379  14.136   5.467  0.1336  0.0732 -0.2070
21954W        W39478  18.396  18.329   0.493  0.1115  0.1106 -0.2445
21955W        W39479  14.403  12.836  14.693 -0.0691 -0.1756  0.1003
21956W        W39480   8.010  14.981   0.229 -0.2703 -0.0932 -0.2200
21957W        W39481   8.649   7.011   0.951  0.2492 -0.1311 -0.1834
21958W        W39482   4.636  18.314  13.968  0.0667  0.1635  0.3931
21959W        W39483   0.104  13.439  13.774  0.1739 -0.2790  0.1351
21960W        W39484   4.935   9.332  11.307 -0.2186 -0.1141  0.3377
21961W        W39485  15.709   1.850   0.093  0.4249  0.3808  0.1245
21962W        W39486   4.605   4.232  11.075 -0.0968 -0.2250 -0.1930
21963W        W39487   5.441   5.795  12.921  0.0689 -0.0429  0.2369
21964W        W39488   6.819   1.620   4.530  0.1231 -0.1207 -0.0324
21965W        W39489  17.637  11.203  12.777  0.1211  0.2558  0.3780
21966W        W39490   2.295  18.161   3.313  0.1060 -0.2708  0.3274
21967W        W39491   1.619  13.393   0.351  0.1385  0.2828 -0.0271
21968W        W39492  18.006  16.332  13.231 -0.2599 -0.0618  0.0075
21969W        W39493  12.953   4.804  15.314  0.1757  0.1911 -0.0579
21970W        W39494  17.001  12.676  13.030 -0.3100  0.0231 -0.0146
21971W        W39495  13.003   6.096  15.079  0.1962  0.0578 -0.1450
21972W        W39496  14.199  15.668   2.133 -0.0499  0.0569 -0.1536
21973W        W39497   9.975   5.598  11.437  0.3539  0.0556  0.0864
21974W        W39498  11.502   2.051  11.253 -0.1261 -0.3869 -0.0562
21975W        W39499   7.094  17.202   2.809 -0.2920  0.3168 -0.2668
21976W        W39500   6.836   2.678  13.390  0.1713 -0.0517  0.2291
21977W        W39501  14.244  12.640  13.392  0.2141  0.0869 -0.2519
21978W        W39502   6.767   5.364  12.368 -0.0921 -0.1553  0.0351
21979W        W39503   2.354   8.300  14.695 -0.0905 -0.0456  0.0032
21980W        W39504  10.464  12.620  13.918  0.1267 -0.2451 -0.3950
21981W        W39505   8.553  10.901  13.352  0.0879 -0.0954  0.3476
21982W        W39506   4.474   6.029  11.995  0.5262 -0.0804 -0.0172
21983W        W39507   3.645   5.177   2.688  0.0728  0.0316 -0.3525
21984W        W39508  10.788  17.892   1.814  0.1447  0.1317 -0.2139
21985W        W39509   3.149  16.794  14.488 -0.2729  0.0089 -0.1340
21986W        W39510   5.661  10.675   0.640  0.1750  0.2269  0.0760
21987W        W39511  12.079  10.975  12.170 -0.0009  0.4167 -0.0237
21988W        W39512   2.987  17.744  15.177  0.2042  0.0505  0.1013
21989W        W39513  17.149   1.707   3.179  0.1251  0.1657 -0.2943
21990W        W39514  13.938   2.268  14.419  0.3452 -0.0963  0.0874
21991W        W39515   8.150   5.435  11.128  0.1941  0.1182 -0.0905
21992W        W39516  12.492  16.586   3.375 -0.0737  0.1171 -0.2820
21993W        W39517   7.847   6.044  14.286 -0.0890 -0.1449  0.1949
21994W        W39518   5.620   8.010   0.938  0.3260 -0.0350 -0.0848
21995W        W39519   1.340   0.733   2.057  0.0504 -0.2871  0.4159
21996W        W39520   8.934   6.841  15.076 -0.0511 -0.0827  0.0803
21997W        W39521  17.613   2.622  14.542  0.0003 -0.2635 -0.2909
21998W        W39522   1.738  12.564   2.227  0.1131  0.1085  0.0453
21999W        W39523  15.706  13.954   3.713  0.1568 -0.0959 -0.0550
22000W        W39524  14.581  11.440   3.657  0.3018 -0.0241 -0.1006
22001W        W39525  17.798   0.040  12.789 -0.0261  0.0460 -0.0440
22002W        W39526   2.743   6.688  15.627  0.3316  0.1144  0.2389
22003W        W39527   2.315   2.889  14.165  0.1146  0.1563  0.1890
22004W        W39528   9.340  13.754   1.947 -0.1346  0.1912 -0.0431
22005W        W39529   0.941   9.032   4.398  0.2027  0.0111 -0.0172
22006W        W39530  13.636  17.223   3.675 -0.1454 -0.1977 -0.1246
22007W        W39531   1.381   8.052   2.981  0.3821  0.0071 -0.2158
22008W        W39532  18.378  17.451  14.430  0.0754 -0.1931 -0.3485
22009W        W39533   5.352   8.630  15.549  0.0504 -0.0489 -0.0414
22010W        W39534   7.641  16.407  12.230 -0.0901 -0.1207 -0.1953
22011W        W39535  15.851  10.273   4.034 -0.2216  0.1757  0.1305
22012W        W39536   5.690   5.562  14.006  0.0920  0.0303  0.0680
22013W        W39537   8.575   5.637  12.963 -0.1372  0.0118 -0.0699
22014W        W39538   6.235   4.094   4.885  0.0272  0.1069 -0.1670
22015W        W39539   7.869  17.006  12.941  0.3045 -0.3434 -0.0917
22016W        W39540  16.730   0.138  12.756 -0.1496 -0.1531  0.3127
22017W        W39541   8.033  12.232   2.762 -0.1245 -0.0790  0.2904
22018W        W39542   0.404   5.634  15.577  0.0098 -0.4081  0.1365
22019W        W39543  16.125  15.368   2.407 -0.1354 -0.0039  0.1373
22020W        W39544  18.181   9.431  13.343 -0.2507  0.0482  0.0868
22021W        W39545  14.536   5.051   2.179 -0.0326  0.0929 -0.4702
22022W        W39546   8.742  18.213  11.888  0.0056 -0.0605 -0.1119
22023W        W39547   0.580  15.116  13.298  0.2443  0.1397  0.0472
22024W        W39548  17.944   7.056   4.112  0.0721  0.1854 -0.3438
22025W        W39549  15.444   5.687  14.361 -0.0049  0.0514 -0.2016
22026W        W39550  17.075   9.293  15.759  0.2917 -0.1861  0.0530
22027W        W39551   5.434  15.747   0.629  0.0643 -0.1279  0.3527
22028W        W39552   5.613   0.596   0.277  0.1089 -0.0506 -0.1912
22029W        W39553  10.712   5.572   0.851  0.1234 -0.0109 -0.2548
22030W        W39554   8.850   1.455  11.692  0.1793 -0.1875  0.0039
22031W        W39555  13.891   9.768   1.225  0.0268  0.2942 -0.1611
22032W        W39556   5.340  10.508   2.457 -0.0653 -0.1511 -0.0474
22033W        W39557  12.718   9.573  14.623 -0.1092  0.2022  0.2407
22034W        W39558  14.182   8.490   2.907 -0.0954  0.3183 -0.1120
22035W        W39559  10.811  13.201   0.505  0.0974  0.2632 -0.3535
22036W        W39560   1.641   6.063  12.284  0.2619 -0.0744  0.3927
22037W        W39561   3.719  18.127   2.072  0.2394  0.3467 -0.0073
22038W        W39562   3.277   9.527   2.217 -0.0706  0.0882  0.0701
22039W        W39563  13.316  17.897   0.295 -0.0084  0.0708  0.1614
22040W        W39564   2.355  17.797   3.816 -0.1808  0.3230 -0.1027
22041W        W39565  15.645   9.160  14.380  0.1245 -0.0525 -0.1330
22042W        W39566  15.133  12.348  14.308 -0.0930 -0.2032 -0.4031
22043W        W39567  13.620   6.622   4.328  0.2667 -0.0921 -0.3815
22044W        W39568  12.610  14.733   2.717  0.2508 -0.2380  0.1744
22045W        W39569   0.878   0.212   3.219 -0.0167 -0.0162 -0.5626
22046W        W39570   5.640  15.344   3.122 -0.0765  0.0215 -0.0603
22047W        W39571   6.109   7.353  14.773  0.1123 -0.2694  0.3651
22048W        W39572   0.215  10.011  11.540 -0.4122 -0.1561 -0.1015
22049W        W39573   4.785  12.624   4.112  0.2402  0.4039 -0.2194
22050W        W39574   2.792  10.789  12.837  0.2976  0.0867  0.1701
22051W        W39575  17.322   0.223   2.132  0.3120  0.2328  0.3104
22052W        W39576   4.913   3.013  15.563  0.2027 -0.0631 -0.1769
22053W        W39577  11.149   7.780  11.402  0.2730 -0.0972  0.2344
22054W        W39578   9.212   9.822   1.399 -0.3367  0.2424  0.0675
22055W        W39579   2.303   1.889   0.475 -0.1025 -0.0931 -0.3733
22056W        W39580  17.395   6.442  14.177 -0.3586  0.3518 -0.1717
22057W        W39581   7.229   0.532   2.938 -0.0241 -0.1711 -0.1181
22058W        W39582  17.265   6.367   3.883  0.0008  0.0653 -0.0652
22059W        W39583  18.385  16.341  14.581 -0.0288  0.1197 -0.0603
22060W        W39584  13.598   9.760  11.232  0.1722  0.1879 -0.0423
22061W        W39585   0.607  17.278   0.981 -0.1241 -0.1411 -0.1350
22062W        W39586   0.047  16.623   4.629  0.4416  0.1935 -0.1159
22063W        W39587   6.004   5.019   3.438  0.1992  0.0397  0.2316
22064W        W39588  14.750   9.695  14.412 -0.0387 -0.0694 -0.1090
22065W        W39589   6.677  13.800   0.927  0.3489  0.3385 -0.2364
22066W        W39590   0.549  12.049  13.760 -0.2332  0.0846 -0.0454
22067W        W39591   8.346   7.558  11.350 -0.0531 -0.0983 -0.2344
22068W        W39592  16.664   3.765   2.396 -0.1958  0.2248  0.3477
22069W        W39593   9.748   2.192  12.454 -0.0971 -0.0441 -0.0343
22070W        W39594  10.367   8.258  13.122  0.1605 -0.1791 -0.2968
22071W        W39595   5.068   0.634   0.428 -0.0502  0.0452 -0.1773
22072W        W39596  16.836   2.215   3.156  0.1881  0.0881  0.3137
22073W        W39597   5.647   4.777   0.056  0.2915 -0.0970  0.0689
22074W        W39598  11.935   6.755  15.501  0.2705  0.2588  0.0490
22075W        W39599   3.580   8.612   3.005 -0.1291  0.1334  0.0700
22076W        W39600   0.298  11.925   2.963  0.0721 -0.1863  0.0757
22077W        W39601  15.771   5.302  13.696  0.1510  0.1933  0.4836
22078W        W39602   0.463   6.631  12.553  0.2376 -0.0288  0.1364
22079W        W39603  13.198  12.364  14.376  0.1051 -0.1007  0.0089
22080W        W39604  10.047   3.239  13.445  0.0515  0.0901 -0.0455
22081W        W39605  15.628   9.367  13.079  0.0830 -0.2399 -0.0737
22082W        W39606  12.277  13.173   0.689  0.2448  0.0259  0.0251
22083W        W39607  12.831   0.559   2.740  0.0330  0.3937 -0.2890
22084W        W39608  13.199   2.336   2.682  0.0191 -0.2604 -0.2375
22085W        W39609   8.396  17.411  14.832 -0.1096  0.0091 -0.2644
22086W        W39610  13.402  16.590  12.331 -0.5957 -0.2967  0.2041
22087W        W39611   9.491   9.579  11.375  0.2846  0.1324  0.3599
22088W        W39612  12.500  14.985   4.678 -0.0052 -0.0164  0.0131
22089W        W39613   0.801  12.412   1.740  0.0923 -0.0227 -0.1463
22090W        W39614   6.876   7.874   2.198  0.3211 -0.0084  0.1756
22091W        W39615   5.392  10.058   1.854 -0.1899  0.1234  0.1714
22092W        W39616  16.284   5.715  13.098  0.1779 -0.1661 -0.0121
22093W        W39617  17.938   9.141   0.611  0.0735 -0.0001 -0.2007
22094W        W39618   4.680   6.835   2.075  0.1265  0.0199  0.2301
22095W        W39619   0.383   6.131  12.696  0.0699  0.1333  0.0489
22096W        W39620  10.394   7.811   1.245 -0.0174  0.1778 -0.3186
22097W        W39621  17.413  18.395   4.369 -0.2762  0.0786 -0.1777
22098W        W39622  11.560  11.982   1.275 -0.2812  0.1211  0.4124
22099W        W39623  15.223  16.801   3.141 -0.1081  0.0925 -0.0100
22100W        W39624   2.110  13.076   2.995  0.6284  0.1669 -0.1631
22101W        W39625  16.448  15.937  10.171 -0.3101  0.2543 -0.4921
22102W        W39626   3.464   7.981   3.757 -0.0610  0.0399 -0.0207
22103W        W39627  17.788   4.020   4.384  0.0585 -0.3337  0.1774
22104W        W39628   3.321  17.500   1.402  0.0018  0.1053 -0.2199
22105W        W39629   1.232  15.894  14.929  0.3098 -0.0540 -0.0246
22106W        W39630   5.209  10.658  15.546 -0.0110 -0.0900  0.2998
22107W        W39631  11.463   4.786  14.773 -0.0138  0.3307  0.0965
22108W        W39632  12.287   5.227   2.555 -0.0642  0.0377  0.0533
22109W        W39633  10.359   3.872   3.026  0.0241 -0.2323 -0.1040
22110W        W39634  13.944   5.056   2.043 -0.1711 -0.0170 -0.1318
22111W        W39635  13.504   2.714   2.479  0.3253 -0.0081  0.3257
22112W        W39636  13.003  16.596   3.364 -0.4831  0.0094 -0.0271
22113W        W39637   0.553   2.253  15.595  0.1604  0.2943  0.0790
22114W        W39638   6.277  17.559  15.681  0.0900 -0.2082 -0.1299
22115W        W39639   9.796  17.768   4.809 -0.3473 -0.1666 -0.2815
22116W        W39640   9.508   8.629  12.297  0.0859  0.1336  0.0244
22117W        W39641  12.511   9.270  11.465 -0.0250 -0.0755 -0.1617
22118W        W39642  11.420   6.006  12.080 -0.0629  0.0531  0.0449
22119W        W39643   9.520   1.789   0.944 -0.3103 -0.0860 -0.3473
22120W        W39644  14.842  15.627  14.809 -0.3119  0.2866  0.0857
22121W        W39645   1.641  13.799   1.212  0.0246 -0.0005 -0.0532
22122W        W39646   1.719  10.858   1.677  0.0214 -0.0030 -0.2186
22123W        W39647  11.961   3.842  11.130 -0.2439  0.1547  0.1059
22124W        W39648   8.822   3.138   1.347  0.0247 -0.0124 -0.1866
22125W        W39649  15.848   9.456   4.666 -0.0737  0.5419  0.1005
22126W        W39650   0.903   2.063   1.053  0.1534  0.2162  0.0883
22127W        W39651  11.299   4.735   0.512 -0.0550 -0.1943 -0.2017
22128W        W39652  10.918  12.507   0.641  0.0271  0.1726 -0.1631
22129W        W39653  18.274   1.343  13.771  0.1978  0.0684 -0.1468
22130W        W39654  12.628  15.834   5.467  0.1033 -0.2041 -0.1673
22131W        W39655  11.017  14.777  12.377  0.0039 -0.2051  0.0947
22132W        W39656  16.267  12.648  15.270 -0.6215  0.2030 -0.1079
22133W        W39657   2.017  12.288  12.606  0.0014 -0.2372  0.3241
22134W        W39658   9.911  16.864  14.628  0.1100  0.1069  0.1521
22135W        W39659  10.656   7.472   4.071 -0.1025 -0.2301 -0.0506
22136W        W39660  12.233  17.066   3.198  0.2493  0.1142  0.0856
22137W        W39661   8.433   2.697   0.615 -0.2409 -0.1451  0.0348
22138W        W39662  11.329  17.467   1.154 -0.1247  0.0151  0.2250
22139W        W39663  16.930  17.872   1.349  0.0915 -0.1190  0.3156
22140W        W39664   2.843   7.361  15.020 -0.2568  0.3171  0.1047
22141W        W39665   9.626  11.752  11.385 -0.0587  0.0331 -0.0390
22142W        W39666  18.151  12.312  14.392 -0.1864  0.0340 -0.0395
22143W        W39667  16.710   7.384   1.122 -0.2142  0.3045  0.2509
22144W        W39668   0.760   6.064  13.096  0.3369  0.0323  0.1646
22145W        W39669   9.514  16.544  11.996 -0.1207 -0.1587  0.2343
22146W        W39670  10.035   4.385   5.183  0.0641  0.0142 -0.2079
22147W        W39671  17.528  17.031   3.678 -0.1427  0.3385  0.0914
22148W        W39672   5.279  18.388  11.847  0.0120  0.0664  0.1195
22149W        W39673   6.144  14.356  11.561  0.0909  0.1208  0.1765
22150W        W39674  16.408   0.459  13.909  0.0052  0.3354  0.1904
22151W        W39675   0.751   1.100  14.875 -0.2343  0.0623 -0.1983
22152W        W39676  10.570   5.815  12.261  0.0043  0.4147 -0.2517
22153W        W39677  16.780  11.314  12.936  0.0587  0.5549 -0.0192
22154W        W39678  17.561   1.071  15.849  0.2868  0.2739 -0.1732
22155W        W39679   5.594   9.543  14.246 -0.1813 -0.2623 -0.1682
22156W        W39680  11.467  14.595  12.633 -0.3428  0.0169 -0.1005
22157W        W39681  13.799   5.618  11.857  0.2052 -0.0678 -0.1084
22158W        W39682  18.197   7.993   0.220  0.0284 -0.0775  0.2142
22159W        W39683   0.107   7.831   4.632 -0.1947 -0.1384 -0.1146
22160W        W39684   3.307   2.020  11.232  0.2131  0.0145  0.0157
22161W        W39685  14.372  18.249  15.473 -0.0030  0.4724  0.3038
22162W        W39686   2.543  18.013  10.126 -0.0774 -0.1507 -0.3208
22163W        W39687  14.564  11.633   2.248 -0.2853 -0.4420  0.0905
22164W        W39688   8.288   0.523   3.931  0.0205 -0.2613 -0.0562
22165W        W39689  12.776   8.778   4.710 -0.0320 -0.2668  0.0475
22166W        W39690  10.723   0.942  15.108 -0.4726  0.0477 -0.1731
22167W        W39691   6.316   3.747   1.116  0.1407 -0.2405 -0.3973
22168W        W39692   4.879   7.584   4.520 -0.0844  0.3042  0.1755
22169W        W39693   4.200   9.971   5.768  0.1764 -0.0207  0.2839
22170W        W39694   2.596   6.328   3.045  0.0202  0.1103 -0.0928
22171W        W39695  12.515   8.269   4.286 -0.3005 -0.1438  0.0329
22172W        W39696   1.953   5.975   1.148 -0.0031  0.3000 -0.1061
22173W        W39697   4.828   1.141  14.400 -0.1274 -0.1112 -0.2486
22174W        W39698  16.714   3.890  13.199 -0.0765  0.2070 -0.0212
22175W        W39699   2.295   7.165  14.832 -0.0692  0.0374 -0.0149
22176W        W39700   8.084   7.120   0.671  0.1069 -0.0255 -0.0343
22177W        W39701   9.909  18.081  11.516  0.0863  0.3310  0.1588
22178W        W39702   5.072  15.767   2.015  0.1229  0.2749 -0.1115
22179W        W39703  16.561   7.793   4.312  0.0078 -0.1580 -0.0517
22180W        W39704   0.684   8.050   0.215 -0.1861 -0.0858  0.0842
22181W        W39705   9.298  16.983  12.199  0.0304 -0.0439  0.2310
22182W        W39706   3.044   4.290   1.105  0.0375 -0.1197  0.1157
22183W        W39707   8.067  11.869   3.254  0.2520 -0.0362  0.1296
22184W        W39708  11.345   4.697  13.944  0.2788 -0.1000  0.1796
22185W        W39709   8.014  14.819   1.235 -0.0715  0.1024 -0.0230
22186W        W39710   2.506   1.940   1.908  0.2259 -0.1162 -0.2596
22187W        W39711   6.498  10.891  15.395  0.1738  0.1130  0.2263
22188W        W39712  11.404  17.269   2.913 -0.2246 -0.5484 -0.2397
22189W        W39713   9.618   6.898   4.138  0.1557  0.3001  0.0705
22190W        W39714  12.937   1.182   3.309  0.0498  0.1829  0.0452
22191W        W39715  11.200   0.492   2.174  0.3247 -0.0443 -0.1721
22192W        W39716  16.058   3.465  15.723  0.0153 -0.1032 -0.0747
22193W        W39717  15.328   0.368   0.676  0.1089  0.1627 -0.0302
22194W        W39718   6.584   1.492  13.946  0.2071 -0.0323 -0.4525
22195W        W39719  15.714   1.851   2.733 -0.1410 -0.1999  0.0250
22196W        W39720  11.086   2.719   2.254 -0.1661 -0.1523 -0.1175
22197W        W39721   3.465  17.398   0.530  0.1679 -0.3158  0.3121
22198W        W39722  14.195   5.248   5.865  0.0850  0.1403 -0.0585
22199W        W39723  13.285   1.404  14.459 -0.2290 -0.2586  0.0012
22200W        W39724   3.043   8.515   4.428  0.1280 -0.1155  0.3226
22201W        W39725   7.679   1.998  10.210  0.2883 -0.0822 -0.0110
22202W        W39726   6.466  17.913  13.618 -0.0055  0.0907  0.1315
22203W        W39727   5.437  10.952   1.614 -0.1448 -0.0031  0.0438
22204W        W39728  17.485   5.566   1.452  0.1836 -0.1448 -0.1610
22205W        W39729   6.358   0.374   3.204 -0.0451  0.0452 -0.0236
22206W        W39730  18.364   1.726  11.603  0.4278  0.1104 -0.0629
22207W        W39731   0.693   7.284  13.903 -0.0229  0.1618  0.1293
22208W        W39732  13.642  18.309   0.313 -0.0257  0.0938 -0.0790
22209W        W39733   0.121  14.791  15.621  0.0480 -0.0368  0.2908
22210W        W39734  13.485  13.500   4.608 -0.1746  0.1855  0.0837
22211W        W39735   3.617   3.835  13.879  0.1161 -0.0691 -0.0119
22212W        W39736   8.931  10.197   1.723  0.0149 -0.1657 -0.0465
22213W        W39737   3.216  13.242   0.543 -0.3171  0.2057 -0.3229
22214W        W39738  12.882   5.820   2.911  0.0831 -0.1149  0.3621
22215W        W39739   9.569   2.264   1.013 -0.0525  0.0538 -0.0318
22216W        W39740   9.052   2.241   2.826 -0.2002 -0.1451 -0.1378
22217W        W39741  11.717   4.603   4.016  0.0508  0.0303  0.2828
22218W        W39742  18.056   3.265  14.395  0.0669  0.2241  0.1587
22219W        W39743   5.030  16.208  15.067 -0.0310 -0.3247  0.0144
22220W        W39744  12.987  14.189   4.339 -0.0435  0.0992  0.0265
22221W        W39745  17.088  12.868  14.982 -0.3243  0.0525  0.2498
22222W        W39746  13.437   8.391  12.902  0.1098  0.0919 -0.2343
22223W        W39747   9.298   6.592   0.522 -0.1161 -0.1588  0.0544
22224W        W39748   9.398  12.129   1.740  0.1599 -0.1811  0.0961
22225W        W39749  13.972   4.803  11.215 -0.1347 -0.1876  0.4647
22226W        W39750   6.834   2.150   0.693 -0.1285 -0.1049  0.0068
22227W        W39751   4.296  15.136  14.241  0.1911 -0.2387  0.2098
22228W        W39752  14.741  11.100   0.220  0.0157 -0.2797  0.2756
22229W        W39753  11.604   5.327   0.937  0.0435 -0.0993  0.0933
22230W        W39754   1.228  10.656  15.424 -0.1964  0.2042 -0.1778
22231W        W39755  14.161  17.021   4.539  0.0181 -0.1238  0.4185
22232W        W39756  13.122  11.022   3.397 -0.0797 -0.1648  0.0883
22233W        W39757   1.701   7.691  14.620 -0.0725  0.1484 -0.2673
22234W        W39758  11.766   3.097  13.241  0.2247 -0.4207 -0.0480
22235W        W39759  15.794  18.098  14.168 -0.3021 -0.0948 -0.0654
22236W        W39760   8.877   0.076   0.946 -0.1206 -0.2368  0.3255
22237W        W39761   9.105  10.649   1.786 -0.2294 -0.0082  0.1816
22238W        W39762   8.611   0.903  11.918 -0.0109 -0.1246 -0.1855
22239W        W39763   8.636   8.852  11.911  0.2653  0.3345  0.3287
22240W        W39764   2.295  12.389  11.179  0.3074  0.4032 -0.0732
22241W        W39765  14.763  16.261   5.497 -0.1415 -0.0277  0.0443
22242W        W39766  18.052  15.267  11.812  0.1072 -0.2134  0.1639
22243W        W39767   6.408   3.136  15.237  0.0444  0.0935  0.0233
22244W        W39768   2.518   9.000   0.736 -0.0932 -0.1345 -0.0466
22245W        W39769   6.519   3.342  11.516  0.1647  0.2544  0.1850
22246W        W39770   0.276  16.649  15.333 -0.1427  0.1019  0.2067
22247W        W39771  14.143  12.807  15.090 -0.1740  0.2371 -0.1281
22248W        W39772  13.307   4.027  13.731 -0.2292  0.0609 -0.1022
22249W        W39773  17.923   4.241   3.977  0.3387  0.1440 -0.1786
22250W        W39774   7.940  15.506   2.043  0.0331 -0.1455 -0.1053
22251W        W39775   0.010  17.094  14.085  0.2664  0.1000 -0.0033
22252W        W39776  15.808  13.498  12.983 -0.0633 -0.2991 -0.0328
22253W        W39777   8.494  12.189   2.532  0.3317  0.0279 -0.1160
22254W        W39778   6.942   7.787   5.515  0.1203 -0.0941 -0.0922
22255W        W39779   2.423   5.757  13.866  0.0762  0.1517 -0.0335
22256W        W39780   0.349   3.902   4.204 -0.2152 -0.0279 -0.1706
22257W        W39781  12.145   4.674  13.267 -0.2727  0.0817 -0.0302
22258W        W39782   9.631  14.337  11.516 -0.0698  0.5424  0.0538
22259W        W39783   9.426   8.659   2.120  0.1366  0.0401 -0.1407
22260W        W39784  15.043  17.758  15.715  0.1650 -0.1618 -0.3095
22261W        W39785  10.981  13.878  14.872  0.1035 -0.2706  0.1209
22262W        W39786   6.271  15.748  11.944  0.0336  0.0811 -0.0662
22263W        W39787   4.494  12.222   0.944 -0.0849 -0.1241  0.2074
22264W        W39788  15.600  11.900  14.262  0.0503  0.4760 -0.1539
22265W        W39789  11.288   0.618  15.715 -0.5002 -0.0694 -0.0526
22266W        W39790  17.026  17.139   1.949  0.4945  0.1923 -0.1451
22267W        W39791  16.893   0.803   2.234 -0.3452 -0.2610 -0.0977
22268W        W39792   5.477  11.755  15.449 -0.2073  0.1690  0.2826
22269W        W39793   9.825   7.506  12.008  0.0830  0.1374  0.0277
22270W        W39794   9.933  11.876   0.423 -0.1986  0.1166  0.0594
22271W        W39795  18.288   1.572  12.801 -0.0179 -0.1326 -0.0201
22272W        W39796   1.125   9.693  15.630  0.3206  0.2093 -0.3164
22273W        W39797   8.478   6.544   2.368  0.1585 -0.1532 -0.1876
22274W        W39798   4.888  12.695  15.609  0.0749  0.1533 -0.1976
22275W        W39799  11.628   0.307   3.193 -0.0759  0.4278  0.1209
22276W        W39800  12.688  17.124   2.286  0.3087  0.0387  0.0392
22277W        W39801  15.432   3.269   0.915  0.3077 -0.0160 -0.3230
22278W        W39802   3.456   4.148   0.190 -0.0721 -0.3644 -0.0088
22279W        W39803   1.104  16.029  11.774 -0.1812 -0.0176  0.0494
22280W        W39804  14.996  17.164  12.564  0.1811  0.0975 -0.2250
22281W        W39805  10.412   8.020  14.063 -0.0163  0.1561 -0.1350
22282W        W39806   3.904   2.853   2.412 -0.1032  0.1478  0.1590
22283W        W39807  17.439  10.882   4.494 -0.1422  0.2007  0.0341
22284W        W39808  17.438  13.835  10.761  0.0385 -0.4250 -0.0099
22285W        W39809  15.811   4.036   1.423  0.3413  0.0053  0.0590
22286W        W39810  10.860  12.620   3.761  0.1269  0.0879  0.2561
22287W        W39811  13.341   1.898   3.280 -0.0073 -0.0767 -0.3452
22288W        W39812   2.774   3.409   4.027  0.0287  0.1486  0.0356
22289W        W39813  11.516   3.031  14.670  0.3091  0.1089  0.0222
22290W        W39814   4.150   7.155   1.509  0.3082  0.0721 -0.1540
22291W        W39815   6.346   8.905   2.963 -0.2059  0.0762 -0.2313
22292W        W39816  15.600  16.499   5.714  0.0731 -0.2826 -0.1084
22293W        W39817   9.283   6.153   2.815  0.3094  0.1389  0.0230
22294W        W39818   0.937   4.512  14.124 -0.1736 -0.1449  0.1957
22295W        W39819  15.134   4.787   0.888  0.1902  0.1642 -0.2628
22296W        W39820   3.333  14.487  13.674  0.0204  0.0040  0.1404
22297W        W39821  14.608   4.244  10.969 -0.0345 -0.3636 -0.0833
22298W        W39822   3.258  15.410   2.182  0.0936  0.3088  0.2308
22299W        W39823  14.769   8.954  11.267 -0.0121 -0.0164 -0.0539
22300W        W39824  13.143  12.628  15.353  0.1510  0.4904  0.3797
22301W        W39825  13.151  16.543  13.823  0.2201 -0.1941  0.0623
22302W        W39826  14.516   3.658  11.484  0.2284 -0.1557 -0.0340
22303W        W39827   9.047  14.694  14.093 -0.0755  0.3313 -0.1473
22304W        W39828  17.763   0.074   1.158  0.0604  0.0161 -0.1116
22305W        W39829   6.431  11.163  13.062  0.0500 -0.1556  0.1144
22306W        W39830   7.380   7.113   3.645 -0.1835 -0.2100  0.1751
22307W        W39831  15.689  15.663  14.610  0.3030  0.1086 -0.0603
22308W        W39832  12.439  11.320   2.684  0.0079  0.1069 -0.1016
22309W        W39833   0.475   4.067  11.299 -0.1473 -0.0056  0.1833
22310W        W39834  12.285  12.285   2.491 -0.1658 -0.1527 -0.0693
22311W        W39835  14.323   3.037   2.600  0.3389  0.0993 -0.1715
22312W        W39836   9.687  11.696  15.822 -0.1410  0.0850 -0.0018
22313W        W39837   6.439   8.365   3.003  0.2535  0.0786 -0.1240
22314W        W39838  13.407  18.384  13.251 -0.1633 -0.2718  0.0862
22315W        W39839  13.902  17.773   5.183 -0.0904  0.1692  0.3435
22316W        W39840   8.981  13.732   0.453  0.0976  0.1683  0.0339
22317W        W39841   9.991   6.437   3.577  0.1799  0.2218  0.0224
22318W        W39842  10.961   9.719  14.028  0.0363 -0.0708 -0.1999
22319W        W39843  16.675  17.484  14.974 -0.3048  0.0079 -0.2412
22320W        W39844   6.623   0.017   4.628  0.1023  0.0814 -0.1113
22321W        W39845   2.579   9.811   0.721  0.3677  0.0289  0.4317
22322W        W39846   4.123   8.525   2.150 -0.2011  0.0355  0.0806
22323W        W39847   6.696   1.444  12.140 -0.1271 -0.0570 -0.1341
22324W        W39848  17.737   6.823   2.634  0.2507 -0.1777 -0.0763
22325W        W39849  16.991  12.787   1.756 -0.0830  0.1050  0.1619
22326W        W39850  13.415   5.034   1.085 -0.2208 -0.0386  0.2103
22327W        W39851  12.145  13.793  14.315  0.7138  0.0689 -0.2832
22328W        W39852  17.616   3.139  14.608 -0.1369 -0.0479 -0.2963
22329W        W39853   7.961   8.975  12.484 -0.1245  0.1227  0.3003
22330W        W39854   2.173  15.503  10.907 -0.5105 -0.2729 -0.0557
22331W        W39855   8.067  13.869  15.432 -0.1892  0.3947 -0.1937
22332W        W39856  14.277   3.108  12.612  0.3693 -0.1260  0.0839
22333W        W39857   6.101   7.359   3.283  0.0943  0.0866 -0.3188
22334W        W39858   0.565  10.249  14.117  0.0323 -0.3104  0.0952
22335W        W39859  15.747  17.755   3.185  0.0183 -0.1456  0.0929
22336W        W39860   0.077  12.758  14.458  0.1593  0.1043  0.4413
22337W        W39861   0.790  14.351  11.196  0.1452 -0.1435  0.0165
22338W        W39862   6.927  13.026  12.083  0.1259 -0.1880 -0.3111
22339W        W39863   7.157  15.719   0.691 -0.1050 -0.2591 -0.2302
22340W        W39864  10.398  13.534   4.548  0.3535  0.2472  0.3389
22341W        W39865   1.931  13.412   4.615 -0.0909 -0.1547  0.0938
22342W        W39866   2.602   0.587  13.549 -0.0912  0.0577 -0.0648
22343W        W39867   3.230   2.576  15.094 -0.0402  0.1697  0.0060
22344W        W39868  16.922   0.738  14.692 -0.0645 -0.0986  0.0392
22345W        W39869   5.682  16.147   0.631  0.2087 -0.1935 -0.1042
22346W        W39870   4.466   9.224   0.392 -0.5047 -0.0781  0.0733
22347W        W39871   3.909   0.410   4.028 -0.0424 -0.0945  0.0826
22348W        W39872   5.041   8.097   4.648 -0.1263 -0.0085  0.2224
22349W        W39873  11.975  10.355   4.090 -0.1178  0.0886  0.1064
22350W        W39874   6.143   7.943   1.003  0.2337  0.0532 -0.2514
22351W        W39875  10.600   4.025  10.956 -0.1918 -0.0667  0.2070
22352W        W39876   2.776   7.153   0.846  0.2526  0.0785 -0.2081
22353W        W39877   8.611   3.935  13.110  0.2833 -0.2122 -0.1041
22354W        W39878   2.807   3.472  11.177  0.1092  0.0877  0.3059
22355W        W39879  17.134   9.345   0.978  0.3652  0.2709 -0.0150
22356W        W39880  16.223   6.568   1.355  0.3250 -0.0813 -0.1727
22357W        W39881   5.962   5.934  14.429 -0.0725 -0.2968 -0.0172
22358W        W39882  12.184   8.874   2.851 -0.0623  0.1709 -0.2979
22359W        W39883   4.016   0.706   0.750 -0.4105 -0.1825 -0.0327
22360W        W39884  15.253   0.804   3.205  0.0153 -0.3212 -0.1282
22361W        W39885   0.511   1.752   3.357 -0.1636  0.1104  0.0174
22362W        W39886  11.670  14.704  11.593  0.0687  0.0630  0.0657
22363W        W39887  11.726  13.043   0.850  0.2701  0.2101  0.1944
22364W        W39888  18.104  10.126  10.067 -0.2337  0.0510 -0.2613
22365W        W39889   5.512   9.833  12.880 -0.1437 -0.2042  0.0570
22366W        W39890   5.575  15.336   0.450  0.0776  0.3837 -0.4081
22367W        W39891   4.951   3.906   2.616 -0.0389 -0.1173 -0.1796
22368W        W39892   2.174   8.515   3.883 -0.1088 -0.1580 -0.1295
22369W        W39893  13.351  12.027   2.562 -0.0681 -0.0226 -0.1148
22370W        W39894   8.885   4.448  11.102  0.2735  0.1815 -0.1559
22371W        W39895  17.986   9.794   3.296 -0.0949 -0.2616  0.2204
22372W        W39896  11.307   3.601   4.409  0.0140  0.1603  0.0074
22373W        W39897  12.221  10.184  11.805 -0.3802 -0.0508 -0.1183
22374W        W39898   2.084  14.400  12.227  0.0072  0.0415 -0.0265
22375W        W39899  12.723  17.102   3.542  0.1728 -0.1740  0.1273
22376W        W39900   4.083  14.507  14.933  0.1406  0.0344  0.1464
22377W        W39901   7.885  14.595  15.494  0.0880 -0.0006 -0.2263
22378W        W39902  12.639  16.092  13.028  0.2270  0.0848 -0.1094
22379W        W39903   6.918   5.709  11.398  0.1921 -0.0642  0.0901
22380W        W39904  11.690  11.341  14.809 -0.2188 -0.0123  0.1786
22381W        W39905   7.893  15.279  10.932  0.2331  0.2992  0.2178
22382W        W39906   3.637   1.882   1.403  0.0707 -0.0948  0.0636
22383W        W39907   3.708   1.912   0.856 -0.4312  0.3469 -0.3834
22384W        W39908   9.676   5.996   5.333 -0.3809  0.1113  0.0580
22385W        W39909   1.743   6.015  11.366 -0.0463  0.0719 -0.1369
22386W        W39910   3.621  13.878   1.546  0.1436  0.0038 -0.0636
22387W        W39911  16.097  13.120   5.281  0.0817 -0.1437 -0.1949
22388W        W39912  16.556  15.539  15.857 -0.2988 -0.1967  0.0084
22389W        W39913  14.746   5.329  13.869 -0.1111  0.0583 -0.0318
22390W        W39914   8.585   0.370  12.686  0.1352  0.0247 -0.0010
22391W        W39915  17.837  16.507  13.703  0.0649 -0.0821  0.0736
22392W        W39916  16.424  17.596  13.668  0.3134 -0.1610  0.0107
22393W        W39917  17.946  15.154  15.016 -0.1783 -0.0438 -0.1134
22394W        W39918   0.892   5.344   0.385  0.0024  0.0031  0.0807
22395W        W39919   5.535  14.689   2.695 -0.0627  0.1717  0.0036
22396W        W39920   8.291   5.659   2.243  0.2753  0.3014 -0.3415
22397W        W39921   5.902  13.840  14.532 -0.0497  0.4405  0.1571
22398W        W39922   1.541  15.610  15.443 -0.2093  0.2094 -0.1300
22399W        W39923  14.769   6.798  15.290  0.4387 -0.0946  0.0265
22400W        W39924   2.636  15.014  11.813 -0.2028 -0.1026  0.1573
22401W        W39925  15.251   0.981  12.202  0.2924 -0.1520  0.0626
22402W        W39926   1.655   2.926   2.156 -0.4789 -0.1735  0.0740
22403W        W39927   3.969  10.273  11.131 -0.0124  0.1176  0.0126
22404W        W39928   9.675  11.210   1.284 -0.1920 -0.1825 -0.2103
22405W        W39929  11.197  13.711   2.069  0.1694  0.2159  0.0447
22406W        W39930  13.278   5.472  14.933 -0.0979  0.0160  0.0451
22407W        W39931   5.963  14.996   0.871  0.0562  0.1494  0.0442
22408W        W39932   6.152   5.610   3.039 -0.1721  0.0921  0.1050
22409W        W39933   5.436   9.111   3.319 -0.0287  0.2230 -0.0322
22410W        W39934  17.112  16.674   3.360  0.2523  0.4833 -0.1794
22411W        W39935   6.884   5.803   5.179  0.3315 -0.1036 -0.0711
22412W        W39936   0.889   8.084   4.032 -0.0025  0.0388  0.2551
22413W        W39937   1.311   9.480   5.005 -0.1589  0.1177 -0.2309
22414W        W39938   5.959  11.357  11.693 -0.0986  0.0408 -0.2091
22415W        W39939   4.936  11.900  10.961  0.1408 -0.0027  0.1669
22416W        W39940  15.150   7.674  13.295 -0.0988  0.3231 -0.1627
22417W        W39941   0.507   7.077  10.583  0.0633 -0.0337  0.0794
22418W        W39942   5.905  12.061   0.269  0.0474 -0.3040  0.2653
22419W        W39943   9.217   8.400  11.868 -0.0176  0.0895 -0.1340
22420W        W39944   3.320  12.742  15.647  0.2330  0.0681 -0.1337
22421W        W39945   7.917   5.280  15.006  0.3827  0.1180  0.0267
22422W        W39946   5.882   8.849   3.493  0.1261 -0.0707 -0.2559
22423W        W39947  17.422  10.941  15.156  0.2324  0.0219  0.1890
22424W        W39948  10.498  16.705  13.307  0.1098 -0.0171  0.0915
22425W        W39949  12.316  10.676   1.876  0.1327  0.0037  0.0224
22426W        W39950  11.935  10.263   1.773 -0.0341 -0.0751  0.2335
22427W        W39951  11.414  12.850  11.561  0.5331 -0.1240 -0.0114
22428W        W39952  11.838  12.269   0.880  0.0531 -0.1301 -0.1024
22429W        W39953  16.963  14.588   0.378  0.4481  0.1214  0.1212
22430W        W39954   2.866  13.046   2.492  0.0691 -0.0933 -0.3807
22431W        W39955   0.136  10.867  13.355 -0.3001 -0.2624 -0.0045
22432W        W39956   8.281   6.204  14.877  0.0519 -0.1325  0.1108
22433W        W39957   3.499  17.784  11.293 -0.3403 -0.0277 -0.0881
22434W        W39958   0.052  14.267   1.662 -0.2358 -0.0052 -0.3441
22435W        W39959  17.192  18.280  11.090  0.0734 -0.1267  0.0728
22436W        W39960  13.239  11.932  14.175  0.1342  0.3226 -0.1320
22437W        W39961  10.059  17.272   1.416 -0.1714 -0.1054 -0.1227
22438W        W39962   6.377   6.987  12.431 -0.0350  0.1400  0.0055
22439W        W39963   8.858  14.502   1.822  0.1541  0.4861  0.0054
22440W        W39964   9.224  16.830   4.600 -0.3843  0.0892  0.2151
22441W        W39965  13.734   6.926   4.750  0.0679 -0.1251  0.2064
22442W        W39966  17.950   1.065   2.492 -0.0669 -0.0816 -0.1504
22443W        W39967  16.376   2.729   2.551 -0.0779  0.1917 -0.2225
22444W        W39968  14.882   5.697   0.837  0.0647 -0.1360  0.1153
22445W        W39969  16.801   9.755   4.706 -0.2218  0.1417  0.3357
22446W        W39970  13.629   4.321   3.591 -0.0192 -0.2222  0.0774
22447W        W39971  13.874  13.029   4.147  0.2795  0.0791  0.0660
22448W        W39972  15.158  12.128  11.199 -0.0525 -0.1548 -0.0786
22449W        W39973   2.272   0.250   4.801 -0.1528  0.0569  0.1545
22450W        W39974   7.527   1.362  13.930  0.2889  0.1924 -0.0170
22451W        W39975  18.381   8.461  12.287 -0.1013  0.0412  0.2007
22452W        W39976   5.595   8.132   4.684  0.0304  0.1683  0.0159
22453W        W39977   6.345  15.862  13.840 -0.0528  0.0167  0.3092
22454W        W39978   6.856  12.475  11.144  0.1372 -0.4117 -0.1395
22455W        W39979  15.192   7.603  11.783  0.0745  0.5360 -0.0299
22456W        W39980   4.020  14.040  15.320 -0.0682  0.0350  0.0735
22457W        W39981  15.553   2.916  15.163  0.0280 -0.0770 -0.0360
22458W        W39982   6.732   3.509  15.097  0.3868 -0.0312  0.1982
22459W        W39983  13.771  11.856   2.994  0.0874 -0.1792 -0.0194
22460W        W39984  14.080   3.038  15.252 -0.1487 -0.0310 -0.3870
22461W        W39985  16.497  18.078  12.864 -0.1465 -0.0202 -0.2604
22462W        W39986   8.224  10.054   3.128  0.2519  0.0301  0.1645
22463W        W39987  15.951  10.054  10.190 -0.2396  0.1409  0.3639
22464W        W39988  14.609  13.780   4.911  0.0013  0.1002 -0.1580
22465W        W39989   4.127   3.458   0.843  0.1020  0.1482  0.0751
22466W        W39990   9.885  14.319  13.985 -0.2575  0.0281 -0.1230
22467W        W39991   9.421  10.836  14.532 -0.3743  0.0024  0.0260
22468W        W39992  12.458  11.120  11.968  0.2557  0.1840  0.0860
22469W        W39993  15.242  12.935   3.275 -0.0928 -0.0082  0.1474
22470W        W39994   0.047  17.726   3.238  0.0319  0.0947  0.2491
22471W        W39995  13.497   3.426  12.523 -0.2079  0.2328  0.1154
22472W        W39996   9.251   9.632  14.233 -0.0224 -0.0498 -0.2592
22473W        W39997   8.582   1.774  14.625 -0.1972 -0.2644 -0.0142
22474W        W39998  18.075  10.827  13.682  0.1151  0.1005  0.3128
22475W        W39999   5.567  17.987   2.203 -0.3174  0.1301  0.0558
22476W        W40000   9.929  18.091  14.076 -0.1486  0.1279 -0.2914
22477W        W40001  14.577   7.476   3.602  0.0294 -0.1171  0.3077
22478W        W40002   2.093   6.319  13.199  0.0829 -0.2470  0.2643
22479W        W40003   0.349   0.985  15.197  0.2222  0.2359  0.0302
22480W        W40004  15.057   2.791  12.600 -0.3047 -0.1128 -0.0663
22481W        W40005  10.658   8.227  13.605  0.2289  0.0896 -0.2045
22482W        W40006  15.784  11.604  14.635 -0.0283 -0.0102 -0.0618
22483W        W40007   5.403   5.509   1.446 -0.5002 -0.1504 -0.2579
22484W        W40008  14.821   0.299  15.654 -0.2336 -0.1645  0.1764
22485W        W40009   9.642  17.276  13.124  0.0549 -0.0603 -0.1670
22486W        W40010  13.245  10.348   0.935 -0.1481 -0.1818 -0.0457
22487W        W40011  13.741   5.481   1.880 -0.2260 -0.1121  0.2490
22488W        W40012  12.767   2.877  12.368  0.0831 -0.2736  0.0764
22489W        W40013   6.914   4.695   0.050 -0.0009 -0.2258 -0.1083
22490W        W40014   1.834   0.869   1.105  0.0326  0.0405  0.1680
22491W        W40015   5.731  17.210   3.688  0.1009 -0.0706  0.0208
22492W        W40016  13.969   4.534   1.696  0.3068 -0.1560 -0.4171
22493W        W40017   6.928  14.954   5.120  0.2271 -0.1860 -0.0771
22494W        W40018  17.690   4.772  13.475 -0.2893  0.1095 -0.0080
22495W        W40019   2.465   7.701  11.779  0.1991  0.0378  0.0647
22496W        W40020  16.141   6.618   3.448 -0.2009  0.0110 -0.0306
22497W        W40021  10.804   4.123  13.381 -0.0480 -0.1989  0.2977
22498W        W40022  15.317   7.421   4.768 -0.2007  0.2750 -0.1670
22499W        W40023   5.403  17.634   3.279 -0.0853  0.4390  0.0376
22500W        W40024   5.666   7.969  11.052 -0.1282 -0.2909 -0.2691
22501W        W40025   8.544   7.164   4.123 -0.4571 -0.1515 -0.0205
22502W        W40026   2.979   8.986  14.538  0.3658  0.2463  0.0135
22503W        W40027   5.964  14.566  13.404 -0.1193 -0.0545 -0.0042
22504W        W40028   3.892   9.705   0.823  0.1079  0.0045  0.0373
22505W        W40029  17.530   8.012  13.704 -0.0299 -0.1779 -0.0222
22506W        W40030  10.707   6.229  11.937  0.1264  0.2736  0.1245
22507W        W40031   5.239   2.739   1.992  0.2787 -0.2592 -0.2069
22508W        W40032  17.816  10.931   3.227 -0.2350 -0.1002  0.1124
22509W        W40033   5.294  10.682   0.170 -0.0509 -0.0535  0.3393
22510W        W40034  12.139   5.823  15.570 -0.1271 -0.3150 -0.4678
22511W        W40035  18.408  12.760  15.035  0.0819  0.0092  0.2226
22512W        W40036   8.651   7.698   3.952 -0.1401 -0.2582 -0.4281
22513W        W40037   1.091   9.394   2.283  0.0967  0.0933  0.0583
22514W        W40038  10.053  11.507   4.906  0.1581 -0.2467 -0.1053
22515W        W40039   1.500   4.649  13.456 -0.1263 -0.0214  0.4840
22516W        W40040   9.957   2.957   4.289  0.0945 -0.0884 -0.0475
22517W        W40041   4.833   6.043   2.836 -0.2559  0.1255  0.3597
22518W        W40042  15.237  13.770  12.196  0.0925 -0.0307  0.1381
22519W        W40043  14.169  10.061  13.801  0.1404 -0.0912 -0.3472
22520W        W40044   6.148   2.163   2.671 -0.0024  0.2021 -0.0036
22521W        W40045   8.931  16.186   2.731  0.0389 -0.1402  0.0879
22522W        W40046  11.711   1.505  14.225 -0.2675  0.0794  0.2278
22523W        W40047   6.856  17.846   3.356  0.1124  0.2418 -0.1009
22524W        W40048   2.884  11.562   3.614  0.1448  0.1761 -0.0479
22525W        W40049   5.466   7.150  13.382  0.0250 -0.2139  0.2969
22526W        W40050   9.601  15.634   0.430  0.1951 -0.0045  0.1134
22527W        W40051   7.950  17.184   2.865 -0.0983  0.2565 -0.0827
22528W        W40052  10.220  12.910   1.239 -0.1137  0.2285 -0.0352
22529W        W40053   7.960  16.172  11.132  0.0347 -0.2369  0.1781
22530W        W40054  14.856  12.750  14.013 -0.0273  0.0769 -0.2084
22531W        W40055  11.456   8.224  13.357 -0.3400  0.0111 -0.0932
22532W        W40056   0.600   2.823   2.544 -0.1602 -0.0231  0.2141
22533W        W40057  15.780  10.966   0.999  0.4557  0.0755 -0.0859
22534W        W40058   1.605   8.790  12.062  0.1500 -0.0728 -0.1265
22535W        W40059   3.416   4.294  13.892  0.0261  0.0356  0.0620
22536W        W40060  13.155   9.812  11.484 -0.0107 -0.2436 -0.0640
22537W        W40061  17.153  13.506  11.063 -0.1306  0.4149 -0.2306
22538W        W40062  14.200  12.174  12.505 -0.3881  0.2360  0.0266
22539W        W40063   6.318  14.794  14.147 -0.1372 -0.2690 -0.0123
22540W        W40064  13.731   3.916  12.609 -0.0416 -0.3224  0.1611
22541W        W40065   3.272  15.122   2.554 -0.0869  0.0436 -0.1355
22542W        W40066  10.304   2.291  11.600  0.1489 -0.2388  0.2863
22543W        W40067  16.711   7.404  11.526  0.2324 -0.0516  0.3225
22544W        W40068  15.180   8.063   5.379  0.2255 -0.3611  0.0210
22545W        W40069  14.821  12.804   0.586 -0.1542 -0.2394 -0.0803
22546W        W40070  11.782  17.801  15.085 -0.0420  0.1632  0.2070
22547W        W40071   2.581   1.207  13.591 -0.0539 -0.1466 -0.0567
22548W        W40072  10.515   9.572   2.489  0.0657 -0.2662  0.0164
22549W        W40073   4.655   3.408   2.225 -0.0154 -0.1847 -0.0971
22550W        W40074  12.624   6.392  13.846 -0.0229  0.1284  0.3806
22551W        W40075  16.162  14.103   0.563  0.0224  0.1980 -0.2495
22552W        W40076   8.203   8.794   5.558  0.0675  0.2198 -0.3828
22553W        W40077   6.412   4.944  13.621 -0.1946  0.2421  0.0448
22554W        W40078   6.699   8.530  12.433 -0.1534 -0.1251  0.3053
22555W        W40079  15.726  15.394  12.880 -0.0167  0.2006  0.1474
22556W        W40080   8.812   5.958  14.283  0.2871  0.4363 -0.1872
22557W        W40081  13.368  18.350   1.760 -0.3373 -0.0631 -0.2947
22558W        W40082   3.821   3.735   3.573  0.1835  0.0604  0.0271
22559W        W40083   8.647   2.231  12.256 -0.0600  0.0307  0.1360
22560W        W40084   3.502   6.294   0.375 -0.1089 -0.1178  0.0455
22561W        W40085   2.932  17.597   2.177 -0.0254  0.1801  0.0050
22562W        W40086  15.536   3.741  14.363 -0.1628 -0.0118  0.2525
22563W        W40087   3.723   5.892  13.337  0.0030  0.2914 -0.1010
22564W        W40088   6.175  11.597  15.228  0.0981  0.1362  0.0814
22565W        W40089   8.226  11.686  14.481  0.2033  0.0132 -0.0626
22566W        W40090  17.698   9.784   3.769  0.1163  0.3278 -0.1086
22567W        W40091   3.428   6.088  15.262  0.1576 -0.0000  0.5723
22568W        W40092   7.024   1.153  13.865 -0.3341 -0.1982 -0.0674
22569W        W40093   0.622  13.641   2.289 -0.3117 -0.0541  0.1513
22570W        W40094   2.670   0.952   0.909 -0.0338 -0.0633  0.0232
22571W        W40095  17.744   4.458   0.788  0.1843 -0.0845  0.0649
22572W        W40096   0.595  15.219   3.380  0.0492 -0.2620 -0.1051
22573W        W40097  16.549   3.716  14.765 -0.1556  0.0902  0.1057
22574W        W40098  18.242  17.723  13.367 -0.2531 -0.2180  0.2508
22575W        W40099   3.539   8.857  12.707 -0.0044  0.2833 -0.0213
22576W        W40100   2.090  15.417  13.761 -0.1633 -0.0542 -0.0853
22577W        W40101  11.560   9.700  11.435 -0.1021  0.0941  0.4334
22578W        W40102   5.436   6.014   0.810  0.2326 -0.1320 -0.0034
22579W        W40103   5.008  18.214   2.609 -0.1751  0.0750 -0.0024
22580W        W40104  14.595   5.471   4.213 -0.0047  0.1385 -0.2740
22581W        W40105  13.643   8.332   2.860  0.0293  0.2263 -0.0456
22582W        W40106  17.806   3.132   4.581 -0.1118 -0.2592 -0.0038
22583W        W40107  12.011  15.627  14.144 -0.1799  0.1307 -0.0383
22584W        W40108   2.185  15.758  14.671 -0.1450 -0.4386 -0.1895
22585W        W40109   6.530   8.962   4.796  0.2384  0.0103 -0.0111
22586W        W40110   9.768   5.896  14.067 -0.3016  0.0523  0.1240
22587W        W40111  12.315  15.682  12.882  0.0582 -0.1499  0.1224
22588W        W40112   9.279   6.262  15.231 -0.2986 -0.1312  0.3859
22589W        W40113   4.408  14.954  12.904  0.2019 -0.0909  0.1695
22590W        W40114   7.804  16.409  15.667  0.2435 -0.0145  0.0626
22591W        W40115   9.508   5.245   2.578  0.1244  0.2385  0.1661
22592W        W40116   8.430  13.006  11.472  0.3317 -0.0277 -0.0680
22593W        W40117  17.510  11.087  12.306  0.1421 -0.0366 -0.0785
22594W        W40118   6.310  17.789   3.592 -0.1549  0.2494 -0.1411
22595W        W40119  14.851   1.803   3.905  0.2063  0.0167 -0.5861
22596W        W40120   8.450  13.816   1.035 -0.0431  0.0079 -0.1095
22597W        W40121  17.692  12.411   0.644 -0.1568  0.0350  0.3705
22598W        W40122   3.053   4.859   1.454 -0.0796 -0.0643 -0.0509
22599W        W40123   8.443  16.901   5.200 -0.0451  0.1710 -0.3120
22600W        W40124  12.972   2.510  14.939  0.0521 -0.1851  0.1033
22601W        W40125  15.436  18.094  14.920 -0.0379  0.1146  0.0256
22602W        W40126   9.876   1.823  12.227  0.1377  0.1013 -0.0807
22603W        W40127  16.631   5.720   3.307 -0.1689 -0.2399 -0.1065
22604W        W40128   9.581  16.417   0.153 -0.0921  0.0010 -0.1662
22605W        W40129   3.690  11.477   0.482 -0.0365 -0.2262  0.6197
22606W        W40130   7.512   8.850   2.250 -0.0360  0.2200 -0.2750
22607W        W40131  14.938   9.701   5.810  0.0580  0.2292  0.1199
22608W        W40132   8.834  14.004   3.485 -0.1975  0.0525  0.4878
22609W        W40133  16.457   8.058  10.723  0.1014  0.0785  0.3045
22610W        W40134  11.369  17.380  13.100 -0.0011 -0.1292 -0.0190
22611W        W40135   0.763   1.124   3.408  0.1126 -0.6455 -0.1074
22612W        W40136  15.871   5.387   1.942 -0.3044 -0.0542  0.1757
22613W        W40137   0.469   8.407   2.459 -0.1185 -0.0491 -0.1226
22614W        W40138   9.116  11.896  15.166  0.0126  0.0803  0.1663
22615W        W40139  10.753  14.363  10.629  0.1794  0.1669 -0.1758
22616W        W40140   1.246  16.708   3.964 -0.1330 -0.3284  0.2957
22617W        W40141   2.580   5.595   4.317  0.4082 -0.0377  0.2676
22618W        W40142   7.698   0.437   2.743  0.0410  0.2382  0.0055
22619W        W40143   2.369   4.137   3.218 -0.3514 -0.3077 -0.1606
22620W        W40144  12.549   7.347   3.777 -0.0227 -0.0313  0.2525
22621W        W40145   6.079   2.662  11.217  0.1164  0.2759 -0.3253
22622W        W40146  14.384   4.888   3.434  0.2119  0.0170 -0.2092
22623W        W40147  15.800   3.022  12.056 -0.1292 -0.1863  0.0320
22624W        W40148   3.525   6.771   3.916 -0.0753 -0.0807 -0.0455
22625W        W40149   0.291  11.629   1.976  0.1338 -0.0597  0.0016
22626W        W40150   1.167  16.644   1.354 -0.1320 -0.0228 -0.2253
22627W        W40151  13.389   5.339  10.720 -0.2326  0.0281  0.0936
22628W        W40152   1.913   3.029  11.329 -0.0035  0.1277  0.0797
22629W        W40153   8.164   3.424  14.855 -0.1266 -0.1968  0.0137
22630W        W40154  15.957   5.335  13.154  0.1327 -0.1145  0.1326
22631W        W40155   8.502   7.352  13.340  0.1298  0.0870 -0.0524
22632W        W40156   1.867  15.849  14.086  0.2079 -0.3105  0.0240
22633W        W40157   6.944   5.268   0.181  0.2043  0.3003  0.0978
22634W        W40158   6.773  15.239  14.874 -0.3726 -0.0558  0.0297
22635W        W40159  13.862   6.231  13.400  0.4122 -0.1511 -0.3734
22636W        W40160   6.829  17.109  13.876 -0.2582  0.1710  0.1023
22637W        W40161  12.901   0.873  14.732  0.1672 -0.0175 -0.0059
22638W        W40162  15.680   6.247   2.542 -0.0274 -0.1210  0.1871
22639W        W40163  15.190  16.988  11.198 -0.1263  0.0469 -0.1337
22640W        W40164  10.266   5.453   0.915 -0.1200  0.1770  0.2291
22641W        W40165  15.132  16.782  14.383  0.0400  0.1839 -0.0126
22642W        W40166   2.315   1.513   0.172  0.0050  0.1315  0.0902
22643W        W40167   4.806   5.105   1.821  0.0247  0.1140  0.0316
22644W        W40168   9.468  10.191   0.566  0.3271  0.3287 -0.1241
22645W        W40169   3.042  17.220  13.171  0.2960 -0.0979 -0.2248
22646W        W40170  17.664  12.474  12.390  0.1665 -0.3654  0.2971
22647W        W40171  18.247   3.630  14.672 -0.2770  0.0597  0.0855
22648W        W40172   3.527   0.814  13.509  0.2154  0.2884  0.3285
22649W        W40173  11.518  15.286  13.783  0.0253 -0.2001  0.1631
22650W        W40174  18.059   2.120  12.808 -0.3760 -0.2820  0.0220
22651W        W40175  15.789   6.262  11.927  0.2232  0.2554  0.2067
22652W        W40176  11.833   2.603   3.828  0.2256 -0.2571  0.2025
22653W        W40177   8.398  11.472  13.587  0.1554  0.1368 -0.1377
22654W        W40178  11.741  12.468  13.571 -0.0240  0.1264  0.1442
22655W        W40179   7.404   7.403  12.546 -0.2034  0.1200  0.0593
22656W        W40180   4.134  11.764   0.122 -0.0310 -0.1506  0.0475
22657W        W40181  10.809  17.103  13.439 -0.1485  0.0260 -0.2539
22658W        W40182  14.677   1.264   1.410 -0.1738 -0.4046  0.0837
22659W        W40183   6.644  15.622  15.149 -0.1236 -0.1516  0.1348
22660W        W40184   5.113  14.459   3.997 -0.2892 -0.0398  0.2725
22661W        W40185   9.898   9.625  13.778  0.2775  0.0773  0.0435
22662W        W40186   3.767  13.487  12.953  0.4126  0.2484 -0.2738
22663W        W40187  14.868  16.471   3.217 -0.1653 -0.0840  0.2349
22664W        W40188  15.368  18.290  12.131  0.0708  0.0050  0.1374
22665W        W40189   8.012   7.778  14.727 -0.1353  0.1941  0.3654
22666W        W40190   3.987   6.118   0.597 -0.2063  0.0492 -0.2259
22667W        W40191  13.129  18.365   0.377 -0.0703  0.1840 -0.0092
22668W        W40192   9.968  13.998   1.392 -0.1122 -0.0231  0.1573
22669W        W40193  13.317  15.075   0.565  0.1306  0.0375  0.2427
22670W        W40194  17.038  17.421  15.300 -0.1305 -0.1006 -0.2317
22671W        W40195  12.562   3.945  10.036 -0.1164  0.1068  0.1632
22672W        W40196   8.400  16.338  14.290 -0.1645  0.0629 -0.2430
22673W        W40197   4.362   3.665  13.541 -0.1352 -0.0698  0.0495
22674W        W40198  10.022  12.629  11.911 -0.3887  0.3316 -0.0642
22675W        W40199  18.143   7.830  12.788  0.2175  0.3155  0.1800
22676W        W40200   5.276  17.627   3.828 -0.2524 -0.1203 -0.0851
22677W        W40201  15.987   6.312   0.380 -0.0406  0.0338 -0.3198
22678W        W40202  14.635  17.744  15.398  0.1992  0.1122 -0.0715
22679W        W40203  14.873   7.971  15.810 -0.1298 -0.0815 -0.2875
22680W        W40204  17.243  11.572   0.823 -0.0794 -0.6103 -0.1810
22681W        W40205  11.233  13.325   1.164  0.2115 -0.1526  0.3556
22682W        W40206   9.188   6.040   4.417 -0.2525 -0.1494  0.1413
22683W        W40207  14.400   2.090   4.895  0.1471  0.2185 -0.0888
22684W        W40208  17.805  11.480   2.409  0.1132 -0.1686  0.2653
22685W        W40209   1.250   1.595   2.555 -0.2022  0.2413 -0.2118
22686W        W40210   0.051  15.631   0.768 -0.0673 -0.1634 -0.3154
22687W        W40211  16.605  13.201   0.427  0.3121 -0.0470 -0.1102
22688W        W40212  12.764   2.034  14.675 -0.0589 -0.1748 -0.2562
22689W        W40213  16.322   2.483   3.985 -0.1891 -0.5095 -0.0047
22690W        W40214   0.031  10.970   3.087 -0.0879 -0.2236  0.1104
22691W        W40215   2.304  14.084  13.627  0.0921 -0.1182 -0.0206
22692W        W40216   0.376  11.081  15.564  0.2265 -0.1814 -0.2215
22693W        W40217  10.313   9.635  14.849  0.1773 -0.0265 -0.1014
22694W        W40218  10.729   7.195  13.527  0.1584 -0.1131 -0.4357
22695W        W40219  15.867  12.497   1.514 -0.0389 -0.2965 -0.2121
22696W        W40220   5.339  16.742   4.743  0.0185  0.1524  0.1232
22697W        W40221   8.138   6.343  12.051  0.1705  0.2010 -0.2289
22698W        W40222  13.456   9.269   4.939 -0.3264  0.1698 -0.0249
22699W        W40223   6.311  12.373  13.169  0.1099 -0.1198 -0.1742
22700W        W40224   6.917   9.916  13.128  0.0368  0.0089 -0.0354
22701W        W40225   1.303   0.115   2.297 -0.1197  0.0356 -0.1636
22702W        W40226   8.392   4.304   1.018  0.0311 -0.0060 -0.1241
22703W        W40227   4.283   6.483   2.171  0.2576 -0.0681  0.1425
22704W        W40228   5.183  12.877  15.235 -0.2325 -0.1369 -0.1835
22705W        W40229  14.360   9.700   2.427  0.1016 -0.2227 -0.0654
22706W        W40230  15.474   0.545  13.472  0.0735  0.0499  0.0534
22707W        W40231  14.155  10.005  12.340  0.1915  0.1540  0.0128
22708W        W40232   5.387   9.362  14.710  0.1663 -0.0233  0.0325
22709W        W40233  16.839   3.911   3.915  0.3117  0.0264 -0.1001
22710W        W40234  14.379   8.328   4.794  0.1532 -0.2255  0.0196
22711W        W40235   5.366  13.056   1.666 -0.1011  0.1123  0.0624
22712W        W40236  12.419   3.954   3.033  0.4781  0.0258 -0.0867
22713W        W40237   3.949   4.200   3.355  0.0643 -0.0722  0.0040
22714W        W40238  14.133  11.533  12.609 -0.3314 -0.0319  0.0569
22715W        W40239   2.441   2.861   1.539 -0.1914  0.0002  0.2006
22716W        W40240   9.144   6.862  14.336  0.2891 -0.0868 -0.0194
22717W        W40241   0.069   2.914   3.975  0.0878  0.0672 -0.4237
22718W        W40242   6.992  12.188  13.845 -0.0262  0.0855  0.1429
22719W        W40243   6.510  16.402   1.031  0.5048  0.2917  0.0752
22720W        W40244  13.141   0.373  13.548 -0.0338 -0.1937  0.0311
22721W        W40245  14.845  12.301   0.720  0.0745 -0.0111 -0.0217
22722W        W40246   9.189   3.036   2.233  0.0449  0.0559 -0.3125
22723W        W40247   9.045   7.079  13.367  0.1447  0.3218 -0.0386
22724W        W40248  11.918   4.332  14.054  0.0854 -0.3374 -0.3948
22725W        W40249  16.309   2.647   3.511  0.0392 -0.3845 -0.0335
22726W        W40250   8.194   0.990  12.407 -0.1045 -0.0190  0.2223
22727W        W40251   7.885  17.355   1.798 -0.0167 -0.0875  0.1104
22728W        W40252  17.081  10.598  11.837 -0.0043  0.6025 -0.0758
22729W        W40253   9.524   3.452  15.057  0.1502 -0.1864  0.2217
22730W        W40254   3.969   3.260  14.225  0.1294 -0.1890  0.1295
22731W        W40255   8.735  13.162  13.547 -0.0596  0.2482  0.0668
22732W        W40256  10.033   4.462   4.196  0.2323  0.2383 -0.0718
22733W        W40257  10.415   2.463   4.264 -0.1247 -0.1064 -0.1512
22734W        W40258   9.976   4.811  12.030 -0.2829  0.2213 -0.1030
22735W        W40259  13.041   3.348   3.205  0.0701  0.3376 -0.1003
22736W        W40260  14.763  15.419   4.936 -0.2461 -0.0686 -0.0711
22737W        W40261   0.394   5.095   4.633 -0.0492  0.3645  0.0676
22738W        W40262   2.125  13.337  14.417  0.1449 -0.1244  0.0637
22739W        W40263   7.752  13.415  11.890  0.2001  0.1608  0.2692
22740W        W40264  10.941  18.345   1.613  0.0610 -0.2124  0.0386
22741W        W40265   1.687   5.478   4.525  0.0180  0.2450 -0.0999
22742W        W40266  11.531  13.950  10.906 -0.1038  0.0695 -0.3831
22743W        W40267  15.578   4.146  12.205  0.0031  0.1302 -0.1274
22744W        W40268  11.164   6.297  11.709  0.2998 -0.3740 -0.0451
22745W        W40269   0.883  13.094  14.361 -0.1879  0.0281  0.0650
22746W        W40270  13.312   5.909   1.969  0.2010 -0.2616 -0.1182
22747W        W40271   8.023  11.422   2.046  0.0518  0.1450 -0.0920
22748W        W40272  15.059   1.515  14.460  0.1185  0.3461  0.0688
22749W        W40273   6.037   5.250   1.256 -0.2284 -0.1269  0.2452
22750W        W40274  10.483   8.324  11.111  0.0315  0.3293 -0.0670
22751W        W40275   5.068   7.888  11.260  0.1512  0.0353 -0.0896
22752W        W40276  13.882  14.616   0.638 -0.4971 -0.3214 -0.0197
22753W        W40277   0.261  15.184  14.385 -0.0121 -0.2046  0.0461
22754W        W40278   6.060   9.492  14.052  0.2172 -0.3134 -0.2192
22755W        W40279  11.515   7.272   2.034  0.1891 -0.0112  0.1187
22756W        W40280   5.987  18.347  15.148 -0.1136 -0.1146  0.2626
22757W        W40281   1.224  10.147   4.418  0.4609 -0.3483 -0.1495
22758W        W40282   2.187  10.695  15.726 -0.2645 -0.2168  0.0200
22759W        W40283  14.734  16.228   1.888  0.1445 -0.0783 -0.0613
22760W        W40284   5.032  11.093   3.939  0.1963 -0.1863  0.1530
22761W        W40285  11.935   2.028   2.963 -0.2284 -0.3987  0.0653
22762W        W40286  12.737  16.479  12.089 -0.0438 -0.0986 -0.0646
22763W        W40287  12.982   8.206   3.446  0.0621  0.0765  0.0397
22764W        W40288  14.555   1.956  12.609 -0.1762  0.1228  0.0696
22765W        W40289  16.193   1.576   1.272 -0.1881 -0.0325 -0.0427
22766W        W40290  10.824  16.351  13.081 -0.0442 -0.1132  0.1613
22767W        W40291  14.864   7.085   3.314  0.2011  0.0761  0.0288
22768W        W40292  17.399  13.679  12.799 -0.1373  0.1593  0.0835
22769W        W40293  17.239  15.950  12.911  0.1025  0.2800  0.0517
22770W        W40294  11.672   3.942  15.323  0.2636 -0.1174  0.1374
22771W        W40295  16.134   6.331   0.915 -0.1867  0.3003 -0.0742
22772W        W40296   2.204   1.445  12.051 -0.2423  0.0109  0.3067
22773W        W40297  16.688   8.397   3.283  0.2307  0.2439 -0.2138
22774W        W40298  15.375  11.166  12.873  0.0906  0.0801 -0.0739
22775W        W40299   3.105   5.215   1.020  0.0048  0.0319  0.2698
22776W        W40300  11.829   9.598  15.281  0.1181  0.1669  0.0904
22777W        W40301   4.676  11.515  12.918  0.0120 -0.0321  0.0091
22778W        W40302   8.421   6.050  11.091  0.1025  0.1112  0.2176
22779W        W40303   4.302   9.725  10.450  0.0391 -0.4311  0.0337
22780W        W40304   1.507  17.400  15.092  0.0911  0.2634  0.3749
22781W        W40305   4.772   4.831  12.766 -0.1371 -0.0961  0.1170
22782W        W40306   2.096   3.262   0.281  0.2299 -0.5717  0.3156
22783W        W40307   1.652   9.102   0.027 -0.0948 -0.0084 -0.1647
22784W        W40308   0.627  13.733   1.193  0.0633  0.0596  0.0392
22785W        W40309  16.378  12.694   1.742 -0.4212 -0.0526 -0.0076
22786W        W40310  15.852  11.418   0.194  0.0883 -0.0653 -0.0129
22787W        W40311   4.853   3.635  14.736  0.1311  0.1357 -0.4480
22788W        W40312   6.086  11.884  12.228 -0.0815  0.1118  0.4168
22789W        W40313   5.035  13.414   1.583  0.3212  0.2756 -0.0548
22790W        W40314   4.322   7.624   4.696 -0.0887 -0.0706 -0.3042
22791W        W40315   9.019   9.966  11.065  0.1801  0.3521  0.2008
22792W        W40316  17.207  15.026   2.553  0.1975 -0.0200  0.0346
22793W        W40317  15.298   1.085  14.569 -0.0229 -0.0461 -0.0825
22794W        W40318   9.298   0.279   3.684  0.0317 -0.0229  0.1040
22795W        W40319   4.674  10.693  15.307 -0.0874  0.0501 -0.0666
22796W        W40320   3.075  13.854  15.472  0.2874  0.0090  0.0797
22797W        W40321   5.647   6.646   1.876  0.3393 -0.1086 -0.2026
22798W        W40322   1.919  18.085  14.451  0.1084 -0.3446  0.1874
22799W        W40323  13.278   1.325  12.787 -0.3032 -0.0038 -0.0864
22800W        W40324  14.758  11.884  13.600  0.1146 -0.0711 -0.2518
22801W        W40325  14.800  10.791  15.198 -0.0997 -0.1439 -0.0458
22802W        W40326  11.241   7.893  15.445  0.2174 -0.1760  0.2686
22803W        W40327   6.277   0.477  13.745  0.0957  0.0398  0.3280
22804W        W40328  17.053  18.076   3.220  0.0830  0.1396  0.0567
22805W        W40329  18.398   1.877  13.189  0.0002 -0.1776  0.3435
22806W        W40330   4.531   9.138   1.672 -0.4463 -0.0434 -0.1663
22807W        W40331   2.689   0.257   2.614 -0.0971 -0.2260  0.2576
22808W        W40332  11.524  12.912   2.472 -0.1047  0.2101  0.0466
22809W        W40333   6.964  16.250   2.619  0.0802  0.1871  0.0394
22810W        W40334   0.047  12.828   2.677  0.0181 -0.1355 -0.0426
22811W        W40335   1.671  13.628   2.045 -0.2911  0.2356 -0.2404
22812W        W40336   7.733   1.590   3.568  0.2335  0.0110 -0.0902
22813W        W40337   9.445  16.159   1.072 -0.0463 -0.0594  0.0760
22814W        W40338  17.629  10.237  14.262  0.0626  0.2093  0.2443
22815W        W40339  17.442   7.828   2.869  0.1195 -0.0014  0.2142
22816W        W40340  12.190   2.618   2.917  0.1647 -0.1870  0.0092
22817W        W40341  15.338  17.386  12.977  0.2103 -0.1968 -0.0103
22818W        W40342  10.032   6.283   4.628 -0.2146  0.0760  0.1125
22819W        W40343   3.691   9.378  15.593  0.1267 -0.1934 -0.3164
22820W        W40344  16.814   0.673   0.070  0.2893 -0.1248  0.0339
22821W        W40345  15.121  11.028  11.431  0.1198 -0.0078  0.2912
22822W        W40346  14.626  12.179  12.121 -0.0017 -0.2394 -0.0091
22823W        W40347   9.665   3.983  11.671  0.4291  0.0091  0.0791
22824W        W40348  10.608   5.777  14.574  0.0122  0.0616  0.0403
22825W        W40349  10.048  18.165   0.652  0.1361 -0.0057  0.4048
22826W        W40350   7.866  10.489   3.079 -0.1852  0.2391 -0.0723
22827W        W40351   9.616  12.741  13.002 -0.0138 -0.1041 -0.0613
22828W        W40352  14.064  13.310   1.033  0.0567  0.2465 -0.0720
22829W        W40353  13.148  13.375   3.020  0.0812 -0.1518  0.2091
22830W        W40354   1.357   8.360  11.839 -0.0613 -0.1553  0.0376
22831W        W40355  11.866   9.785   4.874 -0.0106 -0.0727 -0.2802
22832W        W40356   4.726   5.594   2.616 -0.0690  0.0296 -0.0835
22833W        W40357  15.981   4.930   0.776 -0.0788  0.1558 -0.2612
22834W        W40358  17.990   2.517  15.610  0.1717 -0.2061 -0.2121
22835W        W40359  14.472  11.124   1.211 -0.0765 -0.0468 -0.0746
22836W        W40360   8.517  12.552   2.905 -0.1959  0.2335 -0.2038
22837W        W40361   0.902  11.400   2.235 -0.1706  0.1320 -0.1574
22838W        W40362  12.362  13.011   5.333  0.2014  0.0308 -0.0522
22839W        W40363   0.200  11.999  15.676  0.2053  0.1007  0.1680
22840W        W40364  14.941   4.815  11.297  0.0565 -0.0321  0.0814
22841W        W40365  10.065   8.809  15.424 -0.2446  0.1103  0.1785
22842W        W40366   1.828  10.127   4.617  0.1086  0.0645  0.1524
22843W        W40367   9.682  13.703   0.119 -0.0787 -0.0261 -0.0915
22844W        W40368   0.564  11.528   2.811  0.2918  0.0142  0.0187
22845W        W40369   2.941  10.258  12.012 -0.0267 -0.1935 -0.0512
22846W        W40370  15.921  16.794  13.371  0.0803  0.2310 -0.0465
22847W        W40371   0.278   4.685   4.500  0.0991  0.3203 -0.4698
22848W        W40372  10.394  15.900   0.115  0.2744  0.0238  0.1252
22849W        W40373  15.476   9.335  14.885  0.0964 -0.0570 -0.0846
22850W        W40374   1.701   5.257  11.613 -0.3030 -0.1190 -0.1536
22851W        W40375   9.041   0.108  12.787  0.3248 -0.2764  0.2575
22852W        W40376  13.406   2.237   0.191  0.3655 -0.0055 -0.0237
22853W        W40377  17.091   8.590   5.148 -0.0727  0.0006  0.1666
22854W        W40378   6.779  14.492  11.364 -0.0927 -0.1382  0.2319
22855W        W40379   7.362   4.316  13.210 -0.1328  0.0012 -0.1186
22856W        W40380   5.273   6.918  11.680 -0.2116 -0.0510 -0.0391
22857W        W40381  14.097   9.869   3.399  0.2000  0.0389  0.0474
22858W        W40382   2.136   7.830  13.399 -0.1193 -0.1307  0.1062
22859W        W40383  11.028   0.897   4.469 -0.1143 -0.2697  0.1348
22860W        W40384  15.537  13.895   0.131  0.2897  0.1153  0.0429
22861W        W40385   2.433   2.983  12.315  0.2425 -0.0057 -0.0355
22862W        W40386  10.239   0.872  12.782  0.2006 -0.2400  0.0991
22863W        W40387   4.675  14.209  14.152  0.1365 -0.0886 -0.0252
22864W        W40388   9.235   8.300  12.988 -0.2127 -0.1892  0.3025
22865W        W40389   3.634  17.872   0.676  0.2630  0.0717 -0.0980
22866W        W40390   2.373  16.429  13.504  0.0399  0.0253  0.0203
22867W        W40391   9.250  11.604   1.107 -0.1013 -0.2195  0.2098
22868W        W40392  15.331   0.053   4.667  0.2057 -0.0546 -0.0562
22869W        W40393   1.840  15.616  11.810 -0.0335 -0.0066 -0.2901
22870W        W40394   3.727  12.472   2.614  0.2223  0.0417 -0.1321
22871W        W40395  13.657  15.888   2.674  0.0913 -0.3364 -0.1079
22872W        W40396  18.229  16.994   0.293 -0.0827  0.0595  0.0303
22873W        W40397  14.240  18.096   5.348  0.1199 -0.1915 -0.1705
22874W        W40398   6.834   2.553  11.346 -0.0099 -0.1649 -0.0093
22875W        W40399   2.530  18.378   4.500  0.0244  0.1799 -0.2937
22876W        W40400  14.967  13.487  15.140 -0.0117  0.0413 -0.1144
22877W        W40401   2.405  16.233   0.912  0.1277 -0.0199  0.3007
22878W        W40402   2.001   6.915  15.179  0.3056 -0.0000 -0.0339
22879W        W40403   2.469   7.548   0.019 -0.0506  0.3308  0.2567
22880W        W40404   2.996   2.988  15.453  0.1492  0.1016 -0.0367
22881W        W40405   4.656   1.531   2.426  0.0933 -0.0942 -0.0815
22882W        W40406  13.860   4.167   5.094 -0.0611 -0.0751  0.4175
22883W        W40407   0.999  12.574   2.972 -0.1417 -0.3140 -0.1043
22884W        W40408   4.567  10.379  14.273 -0.1353  0.0732  0.1495
22885W        W40409  14.964   8.848  12.258 -0.2060 -0.1966  0.3803
22886W        W40410  17.340   8.782   2.440  0.1362  0.0375 -0.1803
22887W        W40411   4.737   2.179   5.649 -0.3931 -0.0416 -0.0812
22888W        W40412   7.839   8.016   3.467  0.2015  0.0502  0.0260
22889W        W40413  16.859   6.873   2.944 -0.1696 -0.0431  0.0350
22890W        W40414  12.011   5.747  12.031 -0.0551  0.2278  0.0478
22891W        W40415  16.811  18.158   4.897  0.0124  0.0008 -0.0341
22892W        W40416  14.710  18.182   5.077  0.2093 -0.2702  0.0849
22893W        W40417  13.147  15.732   1.098 -0.0808 -0.0837  0.0549
22894W        W40418   4.508  10.102  11.751 -0.1458  0.1102 -0.1635
22895W        W40419  12.647   2.907  14.874 -0.0469 -0.1573  0.0336
22896W        W40420  12.177  15.154   0.086 -0.1924 -0.0021 -0.1137
22897W        W40421  11.365   8.337   3.688 -0.2336 -0.1389  0.0304
22898W        W40422   8.455  16.410   4.353 -0.3618 -0.2849 -0.0813
22899W        W40423  17.243   2.216  12.491 -0.0134  0.0166  0.1762
22900W        W40424   4.854   4.870  15.666 -0.0271 -0.0571 -0.1219
22901W        W40425   6.472  13.412   1.324  0.2296  0.1761  0.0318
22902W        W40426   2.647  17.375  15.041 -0.0754  0.0467 -0.0828
22903W        W40427  13.425   4.301  13.046  0.1562  0.2222  0.3645
22904W        W40428   3.284  15.804  13.909 -0.2336 -0.0874  0.0455
22905W        W40429  10.950  13.146   4.232 -0.0136  0.0282  0.1796
22906W        W40430   7.623   8.598  14.687  0.1126 -0.2333 -0.0771
22907W        W40431   2.583  17.597   2.523  0.0074  0.1348 -0.0196
22908W        W40432   9.476   4.184  13.352  0.1192  0.0702 -0.0729
22909W        W40433  14.654  13.674   4.425  0.1758 -0.1360 -0.0340
22910W        W40434  13.272   7.394   2.401  0.0791 -0.1303  0.0527
22911W        W40435   7.118  15.885  15.139  0.0965  0.0119  0.1719
22912W        W40436  15.579   0.843  12.683  0.1307  0.1442  0.1679
22913W        W40437   9.562  14.831  12.302  0.0023  0.0104 -0.2694
22914W        W40438  17.949  12.443   1.931 -0.4124 -0.3867 -0.2288
22915W        W40439  18.270   5.944   1.691  0.0644 -0.1249 -0.0224
22916W        W40440  17.482   4.808  10.466 -0.0505 -0.0416  0.0394
22917W        W40441  10.181   0.903  10.735  0.3302 -0.0017  0.0254
22918W        W40442   9.792  14.713  11.753  0.2535 -0.0659  0.3463
22919W        W40443  14.430   0.885   4.113 -0.1683  0.1124 -0.1691
22920W        W40444  10.165   5.788   2.621  0.0611  0.1414 -0.1650
22921W        W40445   0.588  13.529  15.846 -0.2947  0.1386  0.0083
22922W        W40446   6.237   8.388   0.215 -0.0885 -0.1810  0.1154
22923W        W40447   1.888  11.820   1.788 -0.1788 -0.2659  0.2569
22924W        W40448  16.665  13.684   2.224 -0.3587 -0.2007 -0.0092
22925W        W40449   9.940  12.407   0.765  0.0648 -0.0248 -0.2131
22926W        W40450   0.298   0.382  10.851 -0.1533 -0.0495 -0.0353
22927W        W40451  10.854  10.870  15.506 -0.1570 -0.0280 -0.0580
22928W        W40452  12.077   3.616  15.484  0.0562 -0.0849 -0.1159
22929W        W40453   8.282   8.287  13.099 -0.0418 -0.0038 -0.2901
22930W        W40454  11.703  13.294  11.819  0.0026 -0.2817 -0.1437
22931W        W40455   1.460  11.710  11.927  0.0580  0.1664 -0.2716
22932W        W40456  11.571   1.043   2.798  0.0025  0.0879 -0.1844
22933W        W40457   0.397   9.365  13.884  0.3494  0.2183 -0.1591
22934W        W40458   9.598   3.144   1.845 -0.0814 -0.1026  0.2170
22935W        W40459   2.352  13.196  12.818 -0.1952 -0.1186  0.0280
22936W        W40460   1.180   2.315   3.909  0.5925  0.0164  0.2149
22937W        W40461  16.308   2.142   3.540  0.0588 -0.1526  0.1266
22938W        W40462  13.676  10.291   0.689 -0.1494  0.0525  0.0577
22939W        W40463  12.357   3.674  11.419 -0.1831 -0.0779 -0.1712
22940W        W40464   6.018   5.182   0.746 -0.1608  0.0901  0.0126
22941W        W40465   6.053  12.904  12.256 -0.0835 -0.1298  0.0525
22942W        W40466  16.807  16.646   4.898 -0.4089  0.0848  0.0977
22943W        W40467   5.256  14.282  12.706 -0.0303 -0.4243  0.0504
22944W        W40468  16.335  17.673   3.260  0.2803 -0.0360 -0.1229
22945W        W40469  11.034  12.521  11.529 -0.3071  0.0986 -0.3884
22946W        W40470  12.839  15.933  13.519  0.2507 -0.3132 -0.0109
22947W        W40471  13.051   4.916   3.192 -0.0742 -0.1053  0.0308
22948W        W40472   4.261   2.968   3.137  0.0102  0.5542  0.2726
22949W        W40473  17.558   9.204   4.285  0.1078 -0.1286 -0.2141
22950W        W40474   7.965  13.592   6.074 -0.0439  0.3941  0.0795
22951W        W40475   4.813   0.020  11.454  0.1869  0.0432 -0.1109
22952W        W40476  16.757  11.725  11.836 -0.0231  0.2136  0.1348
22953W        W40477   7.280   7.793   1.388  0.6044 -0.2496  0.0759
22954W        W40478   2.821   3.805  11.615 -0.4502 -0.0265 -0.0607
22955W        W40479   1.712  11.381   4.551 -0.0380  0.0809 -0.2071
22956W        W40480  16.785   6.082   1.826  0.0099 -0.2298 -0.2247
22957W        W40481   8.987   9.169   4.024 -0.1211 -0.0348  0.2104
22958W        W40482  18.377  16.564  11.569  0.2623  0.3062 -0.1620
22959W        W40483   6.544   2.492  15.227 -0.0385  0.1879 -0.2841
22960W        W40484   2.659  12.353  14.393 -0.1598 -0.1395 -0.0787
22961W        W40485   0.525   9.702  14.372  0.0058  0.0217  0.0576
22962W        W40486   2.277   8.219  12.426 -0.1985  0.3784 -0.1761
22963W        W40487   1.939   1.885  15.371 -0.1759  0.3370 -0.1236
22964W        W40488   0.750   8.909   0.289 -0.1328  0.1506  0.1038
22965W        W40489   5.113  14.143   2.193  0.3586  0.0828  0.1347
22966W        W40490  17.628  12.604   2.467 -0.0655  0.1932 -0.1543
22967W        W40491  15.541  13.153  11.432 -0.0509  0.1227  0.3129
22968W        W40492  15.194  12.899  11.821  0.1132 -0.0641 -0.1509
22969W        W40493   2.023   9.567  13.638 -0.3331  0.3563  0.3995
22970W        W40494   3.782   6.612   0.052  0.3563 -0.1052 -0.2111
22971W        W40495  10.024   5.366   1.790  0.0278  0.0602  0.0603
22972W        W40496  15.190  18.376  15.219  0.2519 -0.0594  0.1977
22973W        W40497   5.556   0.588  11.869 -0.2962  0.0535 -0.1663
22974W        W40498   7.348   9.152   1.861 -0.1381  0.0368 -0.0308
22975W        W40499   5.287  10.557   4.481  0.1762  0.0404 -0.0166
22976W        W40500   1.204  13.861  11.020 -0.1370  0.2323 -0.2565
22977W        W40501   7.011   1.649   1.441 -0.1629 -0.1049  0.0424
22978W        W40502  12.249  11.431  12.312 -0.0222 -0.0985  0.1211
22979W        W40503  16.926  18.081   2.728 -0.2841  0.1649  0.1078
22980W        W40504   1.828   4.447  13.779  0.1607  0.0332  0.1754
22981W        W40505   9.692   8.884  11.851 -0.2784  0.2483 -0.1404
22982W        W40506  15.873  12.582   2.534  0.1563 -0.0883  0.4048
22983W        W40507  14.151   4.221  13.502  0.5693  0.0625  0.1903
22984W        W40508  12.535  14.771  15.408 -0.1648  0.1105 -0.0790
22985W        W40509  12.417  11.969   3.901  0.2095  0.3421 -0.2296
22986W        W40510   3.793   5.989   3.378  0.0821 -0.2287 -0.1691
22987W        W40511  10.045   8.895   2.767 -0.0365 -0.0653  0.1193
22988W        W40512   9.657  10.430   2.720  0.0916 -0.5230  0.0814
22989W        W40513  18.273   4.616   2.067 -0.0920  0.0589  0.0930
22990W        W40514   4.512   3.672   1.218 -0.1981  0.1331 -0.1450
22991W        W40515  10.060   1.319   2.138 -0.1629 -0.3432  0.1946
22992W        W40516  12.244   3.162   1.159 -0.0260  0.2668  0.0345
22993W        W40517   9.595  12.691   0.140 -0.0304  0.1127  0.3407
22994W        W40518  10.946  12.699  12.888 -0.3518 -0.1199  0.1294
22995W        W40519   0.403  10.989   1.308 -0.1291 -0.0184 -0.1647
22996W        W40520   3.270   1.900  10.710 -0.0402  0.0125  0.1031
22997W        W40521   5.151  14.712   2.385  0.3236  0.2905  0.0386
22998W        W40522   0.782  10.537   2.614  0.0466  0.0752  0.1199
22999W        W40523  11.287   6.129  11.138 -0.2257 -0.0064  0.1999
23000W        W40524  17.471   8.131   4.319  0.0044  0.2835 -0.1714
23001W        W40525  10.006  15.952   4.492  0.0227  0.2667  0.3746
23002W        W40526   6.643  12.088   4.807  0.0095 -0.3890 -0.2259
23003W        W40527  16.813  14.544  14.084  0.1695  0.1963 -0.3511
23004W        W40528   0.512  14.125   3.252 -0.3604 -0.0749  0.1016
23005W        W40529   9.666  11.921   0.917 -0.0974 -0.1183 -0.0144
23006W        W40530   5.414  14.015   1.764  0.1088  0.2471 -0.1113
23007W        W40531  14.027   1.225   0.252  0.1117  0.1579 -0.1155
23008W        W40532   3.613   4.262   1.024  0.1528 -0.0204  0.2623
23009W        W40533  18.072  18.259  11.055  0.0206  0.0511 -0.1479
23010W        W40534  15.279  13.356   0.133 -0.0844  0.0774 -0.2259
23011W        W40535  15.635  14.887  15.022  0.0700  0.1223 -0.0837
23012W        W40536   3.312  11.854  15.149  0.0088 -0.0084  0.0910
23013W        W40537   1.599  10.394   1.429  0.2513  0.0832  0.1323
23014W        W40538   7.595   3.099  11.285  0.2035 -0.2257  0.1808
23015W        W40539  17.322   0.155  14.069 -0.1180  0.1677  0.0549
23016W        W40540   0.562   7.067   0.944  0.0674 -0.1857 -0.0017
23017W        W40541   6.324  15.625   0.945  0.3858 -0.0414 -0.2453
23018W        W40542  12.008  14.601   2.832  0.1172  0.0727  0.0781
23019W        W40543  14.130  13.878   2.351  0.1223  0.0782  0.1528
23020W        W40544  11.647  17.539  15.463  0.1624  0.0755 -0.0907
23021W        W40545   5.063   2.541  14.845 -0.1312  0.1440 -0.1200
23022W        W40546  14.821  17.675  11.743  0.2738 -0.3510  0.0018
23023W        W40547  18.391   5.428   4.747  0.0995 -0.0056 -0.0116
23024W        W40548   3.830   4.122  14.182  0.0472 -0.0103  0.1601
23025W        W40549  12.024  14.357   3.246 -0.1056 -0.3017  0.0685
23026W        W40550  12.644   7.063   0.916 -0.0570 -0.2646 -0.4320
23027W        W40551   1.322   0.330  14.697 -0.0573  0.0881  0.0889
23028W        W40552   8.167   1.794  11.082  0.0455  0.0015 -0.1664
23029W        W40553  17.502   3.869   3.413  0.3593 -0.0279 -0.1052
23030W        W40554   5.305   5.680  15.626  0.1976  0.3138 -0.0036
23031W        W40555   9.287  14.250   3.119 -0.1201 -0.1563  0.0715
23032W        W40556  15.978   6.844  10.676 -0.0409  0.0976  0.0492
23033W        W40557   5.139   7.383  12.055 -0.3401 -0.1277 -0.0312
23034W        W40558   9.875  14.643   1.856 -0.1543 -0.1405  0.3896
23035W        W40559  16.719   9.759  14.224 -0.1935 -0.0825 -0.0063
23036W        W40560  12.136   2.719   0.104 -0.0625 -0.1290 -0.2183
23037W        W40561  16.534  10.668   4.913  0.0150 -0.0504 -0.1165
23038W        W40562  11.427   6.832   2.447 -0.2649 -0.0339  0.0044
23039W        W40563   5.064  17.770   0.922  0.1138  0.0130 -0.0724
23040W        W40564   9.158   7.599   3.864 -0.0592 -0.2091  0.0701
23041W        W40565   9.660  15.583  14.782  0.2559 -0.2014  0.0500
23042W        W40566   6.637   6.581  12.730 -0.2285 -0.2915  0.1298
23043W        W40567   4.488   0.663   3.435  0.2217 -0.0025 -0.0930
23044W        W40568  14.874   3.044  13.522 -0.0215 -0.0134 -0.0129
23045W        W40569  14.096  17.385   0.891 -0.0047 -0.2380 -0.2655
23046W        W40570  11.559   4.403  15.104  0.0011 -0.0579 -0.1807
23047W        W40571   6.631   2.466  12.870  0.0917  0.1053  0.2523
23048W        W40572   9.934  17.689   0.660 -0.0529 -0.2120 -0.0094
23049W        W40573  12.019   9.465  11.241 -0.0988 -0.0798  0.1225
23050W        W40574  11.909  16.350  12.338 -0.2523  0.0928 -0.3461
23051W        W40575   7.112  15.888   3.905 -0.2682 -0.0389  0.0429
23052W        W40576  17.769   5.416   0.368  0.0940 -0.1685  0.0009
23053W        W40577  14.320   7.159  13.243 -0.0303  0.1601  0.1228
23054W        W40578  11.051  10.896  11.813 -0.1498  0.0080 -0.1154
23055W        W40579  17.329  16.284  12.518  0.1400 -0.1844  0.0744
23056W        W40580  11.992  16.541  14.601 -0.1003 -0.0104 -0.2098
23057W        W40581  10.092   9.380   2.767  0.0489 -0.2090 -0.0767
23058W        W40582   5.944  12.507  15.037  0.2442 -0.0880 -0.3248
23059W        W40583   9.451  17.121  14.899  0.4848 -0.1769  0.0908
23060W        W40584  16.079   9.961   2.593  0.0149 -0.0035  0.0295
23061W        W40585   5.415  12.086   2.515 -0.1658 -0.0058  0.0002
23062W        W40586   2.733  17.280  10.970 -0.1936 -0.0956 -0.0220
23063W        W40587  14.115   2.483   2.688  0.1321 -0.2739  0.3203
23064W        W40588   7.308   9.036   5.690 -0.0682 -0.0895 -0.2213
23065W        W40589  10.273  17.452  15.193 -0.0177 -0.1866  0.0259
23066W        W40590   8.780   7.905   3.470 -0.0330 -0.1386 -0.2950
23067W        W40591  12.501  13.621  12.578 -0.2548  0.0889 -0.3324
23068W        W40592  10.433   4.047  15.735  0.0489  0.0418 -0.1913
23069W        W40593  16.230   5.154   4.314 -0.0203  0.4967 -0.1080
23070W        W40594  14.703  18.153  15.068  0.0316  0.0502  0.0476
23071W        W40595   9.762   4.056  13.824 -0.0380  0.2306 -0.0138
23072W        W40596  10.271  17.829   3.905 -0.2702 -0.0382  0.0081
23073W        W40597   6.270  16.551   1.761 -0.1206  0.0492  0.3560
23074W        W40598   5.042   2.809   4.022  0.0661  0.1827 -0.2659
23075W        W40599  10.228   0.138  13.593 -0.2484 -0.0261  0.0937
23076W        W40600  13.789  18.040   3.103  0.2296 -0.2551 -0.2319
23077W        W40601   3.276  15.691   5.479  0.0852 -0.4031 -0.1205
23078W        W40602  15.045  13.532   1.058  0.1046 -0.1801  0.2554
23079W        W40603   0.759  13.411   2.867  0.0153 -0.0596 -0.3173
23080W        W40604  12.080   6.170   2.995  0.0497  0.0863  0.2260
23081W        W40605   8.285  16.254   3.263  0.1337  0.0763  0.0504
23082W        W40606   2.797  11.853  13.311 -0.0353  0.2180 -0.0828
23083W        W40607  16.139   0.199  12.649 -0.4718 -0.1644 -0.3031
23084W        W40608  14.268   7.711   5.430 -0.0463 -0.0706  0.0822
23085W        W40609   7.807  11.356  15.275 -0.0665 -0.0773  0.2313
23086W        W40610  15.636   4.825   3.135  0.1284  0.0094 -0.0522
23087W        W40611   9.471  17.821   3.176  0.1348 -0.0473 -0.1845
23088W        W40612  14.865   4.240   1.912  0.2862 -0.2635  0.1482
23089W        W40613  11.296   3.781  12.873  0.0951  0.1227  0.0013
23090W        W40614   0.705   9.555  13.165 -0.0960 -0.2542  0.2093
23091W        W40615  14.960   6.974   3.800  0.2288  0.2952  0.0036
23092W        W40616  18.331   6.215   3.870  0.2558 -0.1443  0.1828
23093W        W40617  14.850   7.707   2.044  0.0529  0.1396  0.2091
23094W        W40618  17.286   6.883  12.140 -0.1018 -0.1608 -0.0142
23095W        W40619  17.189   3.247   2.642  0.0440  0.2010 -0.1307
23096W        W40620  17.271  16.897   4.226  0.0084 -0.0843  0.1190
23097W        W40621   4.544  17.851  14.210  0.1149  0.0924 -0.3035
23098W        W40622   5.729  11.750   1.116 -0.0556 -0.0461  0.0697
23099W        W40623   5.232  13.554  12.184  0.2011  0.0694 -0.0374
23100W        W40624   4.506  13.186  14.966 -0.1915  0.2473  0.2582
23101W        W40625  14.918  17.983  14.620 -0.2067  0.0304 -0.1595
23102W        W40626   5.512  13.939  12.003 -0.0915 -0.1449 -0.0403
23103W        W40627   6.644   7.420   3.376 -0.0349  0.1762 -0.0041
23104W        W40628  10.815  17.650   4.897 -0.3181  0.1547  0.1304
23105W        W40629   0.678  17.561   3.879 -0.1047  0.1895 -0.1253
23106W        W40630   9.277  15.096  14.169  0.1895 -0.1898 -0.1324
23107W        W40631   1.296   6.009  12.684 -0.1138 -0.1105 -0.0590
23108W        W40632   5.346   7.472   1.934  0.1084  0.1821 -0.0111
23109W        W40633   8.873  12.076   1.640  0.0576 -0.1606  0.0338
23110W        W40634  12.939  14.352  12.147 -0.0380  0.0711 -0.1591
23111W        W40635   1.596  13.551  14.224 -0.1989  0.1888 -0.1001
23112W        W40636  12.166   0.657  15.187 -0.0092  0.3335  0.1159
23113W        W40637  18.328  13.446   3.843 -0.1072  0.2059  0.1123
23114W        W40638  15.155   6.250  10.079 -0.1354  0.0948 -0.2107
23115W        W40639  11.207   5.052  14.354  0.0881 -0.4948 -0.0078
23116W        W40640  15.829  17.878   3.671  0.2270 -0.0494 -0.0444
23117W        W40641   6.393   8.201   0.672 -0.2114 -0.1157 -0.1513
23118W        W40642  17.330  13.182  12.569 -0.2354  0.3453  0.0142
23119W        W40643  18.076   7.172  15.342 -0.0978  0.0094  0.1099
23120W        W40644  10.233   3.793  15.387  0.0015 -0.1745  0.3251
23121W        W40645   4.012   3.346  14.823  0.1985  0.1670 -0.2656
23122W        W40646   1.203   5.413   0.017  0.1068 -0.1758  0.1208
23123W        W40647   0.560  17.660   3.371  0.3963 -0.2243  0.0209
23124W        W40648   4.545   1.542   0.906  0.3145  0.0312  0.0181
23125W        W40649  15.373  10.158  12.958 -0.2739  0.1387 -0.0296
23126W        W40650   8.566  13.463  11.463  0.0208 -0.0964  0.3858
23127W        W40651  14.935   5.895  10.995  0.0195  0.0303 -0.0364
23128W        W40652  17.618  10.132  15.798  0.0491 -0.0206 -0.2853
23129W        W40653   6.216   7.345   0.524  0.3951  0.2457  0.1743
23130W        W40654   4.025   0.963  11.761 -0.1191  0.0747  0.1305
23131W        W40655   5.361  10.294  12.863 -0.0847 -0.0288  0.2043
23132W        W40656   3.215  12.955   3.160 -0.0562 -0.3035  0.0988
23133W        W40657  12.672  17.410   1.735  0.2311 -0.3026 -0.0456
23134W        W40658   0.088   3.562   4.523  0.0644  0.1447  0.0510
23135W        W40659   5.808   9.084  11.648 -0.0446 -0.1897 -0.0005
23136W        W40660   8.116  15.567   1.532  0.1062 -0.1597  0.1650
23137W        W40661  11.518  13.878   3.687  0.3053  0.0624  0.1060
23138W        W40662  12.416  17.523   4.944 -0.1167 -0.2015  0.0182
23139W        W40663   7.231   0.894  11.617 -0.0370 -0.0677 -0.0654
23140W        W40664   3.025  15.278  11.638 -0.0312  0.0935  0.0417
23141W        W40665   9.138  17.073   0.625  0.0157  0.3647 -0.0444
23142W        W40666   1.826  10.480  11.327  0.3795 -0.0734 -0.0706
23143W        W40667  17.722  15.012   0.800  0.2140  0.2146 -0.0944
23144W        W40668   3.616  18.034   0.156 -0.0773  0.4810 -0.0118
23145W        W40669  11.960   7.421  12.398  0.3020 -0.0234  0.3549
23146W        W40670  11.948   9.101   3.366  0.0379 -0.2420  0.0637
23147W        W40671  11.005  11.789  13.379 -0.0670 -0.0117  0.2173
23148W        W40672   2.198  18.226   1.761 -0.0437 -0.2059  0.0970
23149W        W40673   6.132  10.331  14.094  0.1679  0.2664 -0.0435
23150W        W40674   3.982   4.418  15.320 -0.0595  0.2463 -0.1615
23151W        W40675   4.223   9.234  11.827  0.2632 -0.1828  0.3259
23152W        W40676  16.262  10.558  12.785  0.2455 -0.0044 -0.2825
23153W        W40677  17.605   3.471   2.003 -0.0597  0.4448 -0.0076
23154W        W40678   1.756   1.228  14.760 -0.0849  0.0980  0.1120
23155W        W40679   9.066   4.758   4.764 -0.1450  0.0245  0.1235
23156W        W40680   3.665  13.105  11.508  0.0642  0.1314  0.0817
23157W        W40681   6.878  12.275  15.347 -0.2796 -0.0389  0.0699
23158W        W40682  14.008   4.613   3.672 -0.1771  0.0671 -0.0896
23159W        W40683  10.525   4.248   0.465  0.1028 -0.0063 -0.2811
23160W        W40684   1.864  14.727  15.541  0.1458 -0.3537 -0.4805
23161W        W40685   2.505  10.677   3.613  0.1337 -0.1340 -0.1623
23162W        W40686  15.160  12.471  10.304 -0.0200 -0.0578 -0.0753
23163W        W40687  14.797   1.103  13.094  0.2810 -0.0714 -0.2862
23164W        W40688  13.144  16.620  15.731 -0.1276 -0.0921  0.3309
23165W        W40689  10.113   5.037   1.291  0.1626 -0.1252  0.4354
23166W        W40690   6.069  12.610   4.609  0.0995  0.1892 -0.1620
23167W        W40691  16.112   3.804   0.466  0.1316 -0.1378 -0.2339
23168W        W40692  15.528  16.305   4.829 -0.2256  0.3646 -0.0603
23169W        W40693   4.030   2.742   5.098 -0.0727  0.0684  0.0261
23170W        W40694  14.141  15.673   4.131 -0.2131 -0.0034  0.2438
23171W        W40695   1.049   3.053  14.545  0.1803 -0.1006  0.1127
23172W        W40696  15.639   7.862  11.906 -0.1463  0.0991 -0.2067
23173W        W40697   2.489   6.088   4.596 -0.2172  0.2886  0.0432
23174W        W40698  18.350  11.451   3.010 -0.1876 -0.0628  0.2128
23175W        W40699   8.577   5.619   1.565 -0.2752 -0.1217 -0.3398
23176W        W40700  17.971   6.691  13.625  0.1215  0.0035  0.2008
23177W        W40701  14.127   7.852   1.427 -0.0269  0.1092 -0.3696
23178W        W40702   0.501   7.138  12.307 -0.1912  0.1799 -0.3180
23179W        W40703   5.069   6.356   0.968 -0.0680 -0.1061 -0.0191
23180W        W40704  17.428   6.212   0.334  0.0822 -0.0820  0.0745
23181W        W40705  14.003   3.338   2.320 -0.0247 -0.1164 -0.1163
23182W        W40706  11.518   9.041  14.016 -0.1238 -0.2046 -0.0886
23183W        W40707   3.135   4.336  14.636  0.3508 -0.2949 -0.3320
23184W        W40708  15.221   6.900   4.875 -0.1602  0.0219  0.2591
23185W        W40709   1.932  10.708  14.474 -0.3948 -0.1142 -0.0695
23186W        W40710  16.685  10.731  15.857  0.1243  0.2641  0.2416
23187W        W40711  12.444  15.602  13.837  0.1960  0.0098 -0.2597
23188W        W40712  15.044   6.490   2.635  0.0700  0.1813 -0.3004
23189W        W40713   4.260  15.615  12.979 -0.1747  0.4194 -0.1259
23190W        W40714  16.536   4.117   4.285  0.0102  0.1557  0.3783
23191W        W40715  12.221   7.872  11.704  0.4418 -0.1627 -0.0923
23192W        W40716  10.336  14.208  10.911  0.1311  0.0130  0.0688
23193W        W40717  13.034  14.712   0.308  0.0606  0.1791  0.0161
23194W        W40718  12.868   4.140   1.304  0.1339  0.2925  0.2133
23195W        W40719   8.037  13.305  12.372 -0.2639  0.1606 -0.1527
23196W        W40720   4.418   6.697  12.906 -0.2041 -0.1795 -0.0970
23197W        W40721  18.085   2.334  14.652  0.1424  0.2439  0.1110
23198W        W40722  14.747   6.797  13.243 -0.2722 -0.2859  0.2033
23199W        W40723  18.043  12.781  14.184  0.1256 -0.1482 -0.1019
23200W        W40724   4.527  13.678   4.408  0.5236  0.1767  0.0880
23201W        W40725   2.659  10.046   4.849 -0.1596  0.2497 -0.2305
23202W        W40726   4.603  14.588  11.639  0.0815  0.3005 -0.1289
23203W        W40727   0.480  12.729  13.741 -0.0368 -0.1927  0.2066
23204W        W40728   1.609  14.475  14.751 -0.2254  0.1594 -0.2671
23205W        W40729  10.563  17.136   2.612  0.2075  0.0632 -0.2934
23206W        W40730   5.759  11.921   4.776 -0.1059 -0.1069 -0.0102
23207W        W40731  10.742   6.086   1.102 -0.1801 -0.1798 -0.3412
23208W        W40732  13.131  10.685   0.579  0.1032  0.3098 -0.1944
23209W        W40733  17.315  17.787   2.616 -0.3737 -0.3232 -0.2757
23210W        W40734   6.341   8.632   4.473  0.0166 -0.1934  0.1626
23211W        W40735   8.583  16.385   0.436  0.0712 -0.1149  0.1117
23212W        W40736  10.210   5.168  14.318  0.2589 -0.2894  0.4909
23213W        W40737   3.296   1.599  10.259 -0.1814  0.0275 -0.0267
23214W        W40738   8.822   4.007  15.482 -0.0285 -0.2346 -0.3731
23215W        W40739  15.613  11.826   2.691  0.0760  0.0787  0.1316
23216W        W40740  13.678   1.425  14.743 -0.1429 -0.1569 -0.0883
23217W        W40741   4.613  12.069  15.225  0.3564 -0.0614  0.7047
23218W        W40742  17.718   9.963  14.652 -0.1313  0.2035  0.0227
23219W        W40743  13.398  13.335   2.027 -0.0266  0.0876 -0.4364
23220W        W40744   2.240   8.159  11.675 -0.1069 -0.4055 -0.1635
23221W        W40745   5.708   6.952  14.294 -0.2787 -0.0929 -0.2220
23222W        W40746  14.365   8.369   1.922  0.1117 -0.0364  0.1317
23223W        W40747   2.678   3.940  15.608 -0.0638  0.1477  0.0495
23224W        W40748   6.914  11.296  13.269 -0.1356  0.0664 -0.1811
23225W        W40749  16.354   6.933  15.597  0.2712 -0.2009  0.1835
23226W        W40750  15.183   3.308  12.491 -0.0880 -0.1524  0.1394
23227W        W40751   0.934  18.007  13.463  0.0583  0.1888 -0.1732
23228W        W40752   1.903  17.174   6.021 -0.0308  0.1117 -0.3426
23229W        W40753   7.531   2.519   4.122  0.1225  0.0811  0.1197
23230W        W40754   1.241  17.922   5.205  0.0147  0.1296 -0.1523
23231W        W40755   3.985   0.223  12.826  0.0643  0.2288 -0.1299
23232W        W40756   8.687   4.774   3.094 -0.0597  0.2436 -0.2293
23233W        W40757  14.149   1.845   0.708 -0.2338  0.2576 -0.2335
23234W        W40758   9.978  10.447  13.477 -0.1445 -0.1681 -0.0858
23235W        W40759   8.513   7.896  11.765  0.0573 -0.3803 -0.2769
23236W        W40760   8.234   7.876   4.162 -0.0708  0.2636  0.2513
23237W        W40761   3.543   7.697  14.032  0.0479 -0.1905 -0.2086
23238W        W40762  17.654   0.467  13.854 -0.0372  0.2101  0.0291
23239W        W40763   8.128   1.282  11.752  0.2045  0.0199  0.4770
23240W        W40764  16.921   0.168  12.346  0.0164 -0.0318 -0.2014
23241W        W40765   5.162   6.952  14.844 -0.1324 -0.2849  0.1089
23242W        W40766   3.244   5.136   1.914 -0.0677  0.1910  0.0144
23243W        W40767  14.930  10.708  14.292 -0.1468 -0.0045  0.1606
23244W        W40768  14.654  13.694   3.268  0.1674  0.1034  0.0934
23245W        W40769  15.964  15.240  13.331  0.0251  0.0983  0.0343
23246W        W40770  18.237   3.337  15.521  0.3085 -0.0889  0.1292
23247W        W40771  10.269  15.783   1.131 -0.0986 -0.0297  0.1515
23248W        W40772   6.671   4.059   0.492 -0.2594 -0.2771  0.0126
23249W        W40773  17.716  16.587  12.054  0.0909  0.2325 -0.2886
23250W        W40774  17.528   6.891  13.557 -0.2294 -0.0294 -0.3661
23251W        W40775  17.177   7.559   3.251  0.1017  0.0904  0.2167
23252W        W40776  13.668   9.452   4.435 -0.0063 -0.0755 -0.3001
23253W        W40777   3.021  11.461   2.233 -0.0532  0.0628 -0.3814
23254W        W40778  13.479  10.513   0.222  0.1185 -0.1619  0.0576
23255W        W40779  18.149   0.350   1.378  0.1121 -0.1626  0.0552
23256W        W40780   3.556   2.749  13.772 -0.1362 -0.4423 -0.2069
23257W        W40781  15.732   7.369  12.162  0.0436 -0.0630  0.0291
23258W        W40782  16.929   4.080  12.548 -0.0616 -0.2940  0.0118
23259W        W40783   2.131   0.697   0.162  0.1841  0.0509 -0.0123
23260W        W40784   9.328   8.432   1.322 -0.4317  0.1860 -0.3847
23261W        W40785   5.115   2.753   0.644 -0.0180 -0.0566 -0.1094
23262W        W40786   0.863   6.222   0.236 -0.0732  0.1437 -0.2124
23263W        W40787   6.737   3.026   1.670  0.0747 -0.0170  0.2192
23264W        W40788   9.201  18.231   1.971 -0.0517 -0.0054 -0.2337
23265W        W40789  12.376  11.377  13.924 -0.2595 -0.1644  0.3340
23266W        W40790  10.075   9.312   4.618  0.0907 -0.1948  0.1350
23267W        W40791   5.668   9.184  11.164 -0.0675  0.0464  0.1850
23268W        W40792   6.150   6.124   0.885  0.3804  0.0014  0.2741
23269W        W40793  16.617  11.377  13.982 -0.0587 -0.0302  0.2042
23270W        W40794   5.455  15.839  14.874  0.2464 -0.2154 -0.2254
23271W        W40795   1.084   3.095  12.540 -0.1683 -0.1340 -0.1304
23272W        W40796  11.668   6.661   5.852  0.1297  0.0253 -0.3053
23273W        W40797  14.733   1.639  11.094 -0.1310 -0.5817  0.0466
23274W        W40798  15.452   6.388  12.606 -0.0437 -0.0932 -0.3412
23275W        W40799   1.811  12.450   4.008  0.2568 -0.0971 -0.0017
23276W        W40800  14.062  14.632   5.790 -0.1591  0.1520  0.1152
23277W        W40801  14.657   5.566   1.322  0.1363  0.5321 -0.2881
23278W        W40802   1.667   0.341   4.622  0.0422 -0.0273  0.1989
23279W        W40803   8.965  11.043  13.113  0.3238  0.0454  0.0675
23280W        W40804  10.632   5.559  14.975  0.0916 -0.1573  0.0029
23281W        W40805   8.223  15.083   3.900 -0.0387  0.2325 -0.0838
23282W        W40806   7.050  10.522  12.115 -0.0281  0.2388  0.1835
23283W        W40807   3.266   5.706   4.061 -0.0515 -0.2272  0.0252
23284W        W40808  15.732   4.590   3.567 -0.1627 -0.3366  0.0298
23285W        W40809  17.084   0.549  12.033 -0.1601 -0.0578 -0.0908
23286W        W40810  13.077  13.834  11.931 -0.3044  0.0900  0.2223
23287W        W40811  12.667  10.212  10.868 -0.1497  0.2346 -0.2213
23288W        W40812   1.638  15.760   4.018 -0.0119  0.0352  0.4500
23289W        W40813  11.130  16.484  15.815  0.2405  0.1060 -0.1348
23290W        W40814   4.733  16.875   0.125 -0.1601 -0.2419  0.1868
23291W        W40815   1.825  16.535   2.692 -0.3106 -0.2842  0.1888
23292W        W40816   0.178   5.598  12.996  0.2628  0.0635  0.2822
23293W        W40817   6.735  17.774   1.096 -0.1175 -0.0651  0.1200
23294W        W40818   4.681   4.219   3.899 -0.0127  0.1088  0.0656
23295W        W40819  16.859   9.330  13.982  0.0466  0.1960 -0.1819
23296W        W40820   8.451  16.908   6.127  0.0130  0.0329 -0.3627
23297W        W40821  13.680  12.101   1.291 -0.1484  0.1496  0.0589
23298W        W40822  13.165   4.338  10.621 -0.3431 -0.1279 -0.0925
23299W        W40823   4.283   1.022  10.091 -0.0310 -0.0497 -0.0762
23300W        W40824   9.255  14.780  11.857  0.2729 -0.1229  0.0256
23301W        W40825   6.203  17.093  12.643 -0.0134  0.1418 -0.2162
23302W        W40826  13.620  11.438  12.986  0.0429  0.1856  0.0396
23303W        W40827  18.387   1.477  14.688  0.3308  0.0298  0.0536
23304W        W40828   9.970   7.018   3.231 -0.2960  0.1384  0.0917
23305W        W40829   1.386   1.078   1.178 -0.2125  0.1114 -0.1146
23306W        W40830  16.524  10.188   2.472  0.0336 -0.1702  0.1053
23307W        W40831   0.345   1.989  15.205 -0.1862 -0.0870  0.0319
23308W        W40832   7.172  13.347   1.991 -0.0940 -0.1202  0.0357
23309W        W40833   4.914  17.128   1.607  0.3419 -0.3261  0.0364
23310W        W40834   6.007  10.758   4.747  0.0054 -0.3623  0.0976
23311W        W40835   7.113   6.333  12.637  0.1884  0.0362 -0.0992
23312W        W40836  14.789   2.520   0.777  0.2758  0.3159  0.4715
23313W        W40837   2.446  16.789  15.204  0.0360  0.0150 -0.2179
23314W        W40838  15.261  15.435   4.699  0.0998 -0.0313 -0.0548
23315W        W40839   1.054  11.975  12.019  0.2051  0.1496  0.0307
23316W        W40840   1.177   2.355   1.417 -0.0900 -0.0807  0.2653
23317W        W40841  18.373  14.438  14.264  0.0861  0.0778  0.0799
23318W        W40842  11.570   3.797  14.681 -0.1012 -0.1205 -0.0643
23319W        W40843   3.578  16.447  15.311 -0.1619  0.0884  0.0336
23320W        W40844   4.656   5.940  14.246 -0.1474 -0.2723 -0.1823
23321W        W40845  14.109  16.211  11.779  0.0069 -0.1200 -0.0424
23322W        W40846  12.619   7.647  11.926 -0.2917  0.0243 -0.0128
23323W        W40847   8.467  18.151  13.582  0.2806  0.0424  0.1122
23324W        W40848  11.856   3.851   2.403  0.1365 -0.0151  0.2217
23325W        W40849  12.674  10.433   0.467  0.1269 -0.0235 -0.0893
23326W        W40850  15.021  11.239   3.678 -0.2275  0.1003  0.2719
23327W        W40851   6.146  16.852   0.398  0.0214 -0.0863  0.2613
23328W        W40852  12.528   6.793  11.757  0.1815 -0.2058  0.1100
23329W        W40853  12.719  16.620   1.507  0.0479  0.0355 -0.1968
23330W        W40854   2.614  18.032   4.952  0.0466  0.1457 -0.0208
23331W        W40855   7.951   0.811   2.517 -0.0247 -0.1471  0.0286
23332W        W40856   8.752  13.137  11.803  0.0744  0.1105 -0.0861
23333W        W40857   9.699  13.947   0.872  0.1715  0.2962 -0.2353
23334W        W40858   2.716  10.679  15.651 -0.0822  0.4222  0.4343
23335W        W40859   9.639  13.890  13.813  0.0972 -0.0209  0.0908
23336W        W40860   7.639   5.319  12.829  0.3003 -0.2569 -0.2362
23337W        W40861  10.151  16.378   1.818  0.3120  0.0830 -0.0766
23338W        W40862   1.354   0.418  15.165 -0.1336 -0.1250  0.0636
23339W        W40863   4.028   4.069   1.212  0.0852  0.0152  0.1350
23340W        W40864   1.969   1.103   4.545  0.0502 -0.0301  0.0149
23341W        W40865  13.448  14.904   0.049 -0.1015  0.1424  0.1597
23342W        W40866  13.559   6.400   0.992 -0.4444 -0.1843 -0.1732
23343W        W40867   4.588   6.308  13.300  0.0105 -0.0756 -0.1129
23344W        W40868   7.059  17.304  12.184  0.0079 -0.1070  0.1192
23345W        W40869  17.069   4.179   3.592 -0.5494 -0.0224 -0.0392
23346W        W40870   5.497  15.024  11.290  0.0786 -0.2242  0.1512
23347W        W40871  11.411   6.992   0.478 -0.1900 -0.2004  0.0263
23348W        W40872   3.526   9.479  11.975  0.0459  0.0497 -0.0214
23349W        W40873  10.093  11.531   3.871 -0.2647 -0.2526 -0.0374
23350W        W40874   9.889   5.481   5.719 -0.0249 -0.4160  0.0778
23351W        W40875   2.069   0.446  15.024 -0.0234  0.4184  0.0607
23352W        W40876   5.432  18.039   2.752  0.1759  0.2425  0.5359
23353W        W40877   3.669  18.410   1.141 -0.1281  0.6032  0.3055
23354W        W40878   9.112  15.849  12.586  0.2566  0.1283 -0.4361
23355W        W40879  14.070  15.995   0.417 -0.0967 -0.1389 -0.0969
23356W        W40880  17.624  18.299   3.904  0.2438 -0.0974  0.1706
23357W        W40881  14.960  13.312  12.788 -0.0329 -0.0892  0.1369
23358W        W40882   4.341  16.355  13.872  0.0862  0.2655  0.0848
23359W        W40883  17.240  16.414   0.145  0.1954  0.1057  0.0614
23360W        W40884  14.515   4.005   3.784 -0.2642 -0.1285  0.0334
23361W        W40885   7.607  14.618  12.469 -0.1122 -0.0406  0.3106
23362W        W40886  10.638   0.395   4.361 -0.1556 -0.2478 -0.0533
23363W        W40887  14.540   4.107  12.602 -0.2248  0.2610 -0.2209
23364W        W40888  16.990   7.201  13.511 -0.2076 -0.0453 -0.1717
23365W        W40889   2.245   5.326  15.106  0.0230  0.2736  0.1095
23366W        W40890  12.542   7.139  15.667 -0.1753 -0.2489 -0.1730
23367W        W40891   2.308   7.418  13.204  0.1595 -0.1188 -0.0435
23368W        W40892  14.429  13.889  11.638 -0.0755 -0.1401  0.1781
23369W        W40893   0.858  11.697  14.431  0.0665 -0.4892  0.0092
23370W        W40894   2.343   8.988   3.870 -0.0354  0.0420  0.1652
23371W        W40895   7.852   9.517   0.933  0.2354 -0.2583 -0.3391
23372W        W40896   1.909  17.819   1.980  0.1457 -0.1429  0.2567
23373W        W40897   4.436  16.800   3.904  0.0037  0.1919  0.2720
23374W        W40898  15.594  13.786   3.190  0.1634 -0.0450  0.1116
23375W        W40899   6.784   5.956  15.340  0.0265 -0.2558  0.0378
23376W        W40900  16.713   3.569   1.942  0.0780 -0.0420 -0.2594
23377W        W40901  14.955   0.010   0.650 -0.1081 -0.1488  0.1116
23378W        W40902  13.829  12.903  11.924  0.3106  0.2424  0.0308
23379W        W40903   9.416   2.716  11.834 -0.0383 -0.0027  0.0113
23380W        W40904  11.071  18.038  13.371  0.2201 -0.1622  0.1886
23381W        W40905   4.307  14.227   4.337  0.3680  0.1685 -0.0979
23382W        W40906  18.194  17.451   4.115  0.0139  0.0681  0.2935
23383W        W40907  15.976   3.195  13.077 -0.0962  0.5929  0.1976
23384W        W40908  13.297  17.819   5.351 -0.0403 -0.0288 -0.0556
23385W        W40909   9.427   0.884   4.647  0.1630 -0.1005  0.0398
23386W        W40910   1.803   2.341  12.507  0.0067 -0.0282  0.1631
23387W        W40911  13.886   1.001  15.650 -0.1326 -0.2576 -0.2366
23388W        W40912   0.809  11.466  13.006 -0.3143 -0.1146  0.0017
23389W        W40913  10.287   8.240   2.192  0.0561  0.0746 -0.0555
23390W        W40914   2.336  10.504  11.238  0.0177  0.1198 -0.1925
23391W        W40915   7.438  10.837   0.907 -0.2132 -0.1562 -0.3718
23392W        W40916  10.911   4.181   0.101  0.0065 -0.1195 -0.0623
23393W        W40917  11.891   4.473   0.454  0.2167  0.2671 -0.0903
23394W        W40918   0.736  17.467  11.845  0.1892 -0.1565 -0.4007
23395W        W40919  16.377   9.131   0.866  0.0421 -0.0970 -0.0299
23396W        W40920  14.567  12.778   1.496 -0.2566 -0.0469 -0.0841
23397W        W40921   3.424   1.290  13.857  0.2161 -0.0242  0.0361
23398W        W40922  13.308   0.162  15.259  0.2589 -0.1327  0.1473
23399W        W40923  10.006  10.735   4.434 -0.0927  0.2474 -0.2288
23400W        W40924  17.252  12.400  14.939  0.1044  0.1924 -0.3361
23401W        W40925   7.192  14.418   0.225  0.1103  0.2184 -0.2105
23402W        W40926  11.684   8.984  15.528 -0.3561 -0.0948  0.4821
23403W        W40927  10.588   8.608  12.367 -0.0945  0.0435 -0.0607
23404W        W40928   2.117   2.772   2.194 -0.0091 -0.1414  0.4464
23405W        W40929  13.352  13.110  12.907 -0.1179 -0.3419 -0.4053
23406W        W40930   0.808  14.946   0.716 -0.0082  0.0480  0.0783
23407W        W40931   5.313   6.642  14.474 -0.0795  0.1495  0.1137
23408W        W40932  17.583   1.482  14.336  0.0145 -0.3493  0.2169
23409W        W40933  10.317  17.529  11.904 -0.3648  0.1107 -0.2061
23410W        W40934   1.942   7.135   4.939 -0.0408  0.2223  0.0634
23411W        W40935  11.732  16.953   5.657 -0.1947 -0.1159 -0.3078
23412W        W40936  14.820  14.966   5.398 -0.0474  0.3580 -0.2219
23413W        W40937  12.789   1.456   0.905 -0.1602  0.1338  0.0510
23414W        W40938   4.660  15.775   2.319 -0.0331 -0.0403  0.1706
23415W        W40939   3.822   9.215   0.898  0.0831 -0.1144  0.0069
23416W        W40940  13.758  15.696  13.771  0.0564 -0.1622  0.1023
23417W        W40941  13.146   2.690   4.870  0.0148  0.2532 -0.0776
23418W        W40942   4.123  17.314   4.384 -0.0607  0.0698 -0.0518
23419W        W40943   5.947  17.348  11.300 -0.2263  0.1044 -0.0818
23420W        W40944   9.522   9.581  13.317  0.0001  0.3143  0.1098
23421W        W40945   5.681   6.935   4.183  0.1027  0.2772  0.1080
23422W        W40946  15.445  12.785   1.454  0.1129 -0.0126  0.1273
23423W        W40947  16.374   1.780   4.213  0.2017 -0.1022 -0.0763
23424W        W40948  15.566   2.774   1.376  0.1452  0.1478 -0.1776
23425W        W40949   0.829  17.356  14.822  0.1815  0.0157  0.0973
23426W        W40950  11.128  17.559   1.610  0.1667 -0.0352  0.2029
23427W        W40951  16.376  15.200   4.734  0.1059 -0.3040  0.0193
23428W        W40952   7.207  12.562  15.068 -0.3873 -0.2519 -0.1349
23429W        W40953   8.479  13.120   6.155  0.0475 -0.1408  0.3735
23430W        W40954  16.299   7.134   0.420  0.0608  0.1460  0.0206
23431W        W40955  17.119   6.368  10.166 -0.0316  0.1051 -0.0513
23432W        W40956  15.921  11.679   2.128  0.4193 -0.2038 -0.3077
23433W        W40957  14.875   3.626  15.216  0.2224 -0.1946  0.0134
23434W        W40958   5.077  13.123   1.214  0.1736 -0.1493  0.1793
23435W        W40959   7.900  12.129  14.249 -0.0035  0.1185 -0.1116
23436W        W40960  17.958   4.087  14.685 -0.1498  0.1345  0.2251
23437W        W40961   1.039  17.868   3.614  0.2313 -0.2572 -0.0168
23438W        W40962  17.660  12.534  14.629  0.2547 -0.2763 -0.0687
23439W        W40963  16.115   1.071   2.513  0.0539 -0.0279  0.1953
23440W        W40964   0.987  16.958  12.118 -0.4530 -0.0544 -0.2199
23441W        W40965  15.899  14.465  15.360  0.2041  0.1870  0.1634
23442W        W40966   4.703   5.569   0.364  0.1223  0.1508  0.0655
23443W        W40967   3.431   0.285  15.711 -0.1762  0.1597  0.1399
23444W        W40968  10.258  10.542  13.930 -0.0683 -0.2165  0.1720
23445W        W40969   7.863  14.422   1.987  0.4037  0.1795  0.0664
23446W        W40970  10.269   0.154   0.402 -0.1416  0.0732 -0.2805
23447W        W40971   0.245  11.674  13.614  0.1890  0.0867  0.0383
23448W        W40972  10.418  15.462   4.167 -0.1599 -0.1660  0.1272
23449W        W40973   1.071   4.472   4.063 -0.2959  0.1490  0.1811
23450W        W40974  15.678   1.901  11.707 -0.0110  0.4439 -0.0023
23451W        W40975  14.535  16.571  13.640  0.1256 -0.1503  0.1965
23452W        W40976  11.992  18.059  14.117 -0.0422 -0.2665 -0.0185
23453W        W40977   7.625   0.345   0.735 -0.3309 -0.1461 -0.0936
23454W        W40978   3.302   3.937  12.383 -0.1018  0.0327  0.2349
23455W        W40979  11.251  12.241  13.605  0.1670 -0.3788 -0.1792
23456W        W40980   2.319  18.102   2.260 -0.0214 -0.5177 -0.4397
23457W        W40981  14.208  12.154   3.919  0.0411  0.3897  0.0438
23458W        W40982   3.724  17.730   4.456 -0.0087  0.2346 -0.0903
23459W        W40983   0.272  10.342   0.422  0.2909  0.0724  0.1415
23460W        W40984   8.872  15.302  11.915  0.2317  0.2692 -0.5293
23461W        W40985  15.159   7.222  15.385 -0.3015 -0.1418  0.0767
23462W        W40986   0.618  12.115   4.176  0.1332  0.0259 -0.0944
23463W        W40987   7.261   3.087  11.887  0.0590 -0.0113 -0.1235
23464W        W40988   7.505  12.328   2.873  0.2376 -0.1189  0.0029
23465W        W40989   1.722  17.839  12.822  0.2625  0.0318 -0.1183
23466W        W40990  12.154  15.747   4.258  0.4562 -0.1191 -0.1208
23467W        W40991   6.044   8.197   5.580  0.1403 -0.1651  0.0467
23468W        W40992  12.327   7.348  13.768 -0.1709  0.3015 -0.0460
23469W        W40993   0.780   0.249  13.895  0.0140  0.0764 -0.0385
23470W        W40994   3.085   9.455   4.310 -0.0105  0.1608  0.1722
23471W        W40995   4.697  16.495   1.019  0.2313  0.0827  0.0945
23472W        W40996  15.167  13.410   2.316  0.0538 -0.2524 -0.2516
23473W        W40997  14.769   4.204   4.700  0.0035 -0.1376 -0.0992
23474W        W40998  17.015   6.570  11.472 -0.1007  0.0886 -0.1223
23475W        W40999  13.489   3.284   2.332 -0.0364 -0.1935  0.2899
23476W        W41000  13.542  12.990   3.733 -0.1091 -0.1408  0.1027
23477W        W41001   6.385   3.544  14.504  0.1070 -0.0143 -0.0152
23478W        W41002   8.962  16.963   1.302 -0.1607 -0.0117  0.1748
23479W        W41003  12.221  16.757  12.339  0.0724 -0.0132 -0.3975
23480W        W41004   5.070  12.952   0.711  0.1344  0.0156  0.1815
23481W        W41005  13.436  11.095   2.900  0.0776  0.0097  0.0514
23482W        W41006  10.399   6.763   0.451  0.2465 -0.2263 -0.1719
23483W        W41007   5.136   1.566   3.496 -0.1275  0.1522  0.0631
23484W        W41008  14.626   7.532   4.910 -0.1028  0.0853  0.0254
23485W        W41009   2.125  16.879  13.838  0.0977  0.0677  0.1206
23486W        W41010  17.100   8.270  14.905  0.2309  0.0447 -0.1370
23487W        W41011   4.003   6.900  11.495  0.0697  0.0951  0.0664
23488W        W41012   8.107  13.320   1.927 -0.4876 -0.0958 -0.1004
23489W        W41013   0.279  12.413  12.108 -0.0297  0.0387  0.2361
23490W        W41014   2.492   8.233   3.083  0.0633 -0.2077  0.0708
23491W        W41015  17.478  11.872   1.270 -0.1830  0.1686  0.1629
23492W        W41016  17.067  10.352  12.895 -0.0782 -0.0067  0.2380
23493W        W41017   8.695  16.572   1.368  0.1662 -0.1482 -0.0180
23494W        W41018  17.087   3.031  14.748  0.0143 -0.0591 -0.0773
23495W        W41019  18.399  14.856  11.931 -0.0628 -0.0101  0.1364
23496W        W41020   1.611   9.711  13.881  0.2837  0.0791 -0.1429
23497W        W41021  12.949  14.795  11.836  0.1022 -0.1123 -0.0840
23498W        W41022  12.010   8.796  13.839 -0.0248 -0.0274  0.0186
23499W        W41023  12.985   6.793  14.706 -0.0126 -0.0084  0.0073
23500W        W41024   0.730  11.887   2.182  0.0191  0.2527 -0.0434
23501W        W41025  17.728  16.561  14.187  0.2993  0.1570  0.1731
23502W        W41026  18.245  14.871   1.038 -0.0793  0.1352  0.2669
23503W        W41027   7.261   4.939  11.065  0.5430  0.0206 -0.3023
23504W        W41028   9.536  18.133  14.761 -0.0926  0.0074 -0.1596
23505W        W41029   6.213  12.159   4.586  0.1116 -0.1613 -0.3319
23506W        W41030   1.532  10.668  11.649 -0.0306  0.2987 -0.3589
23507W        W41031  17.252   9.637   0.605 -0.2470 -0.0737  0.3899
23508W        W41032   1.745   5.201   3.277  0.0144  0.1700 -0.1803
23509W        W41033   7.894  17.853   3.415  0.0889 -0.2872 -0.0432
23510W        W41034   5.023   7.500   0.342  0.1643 -0.0349 -0.1049
23511W        W41035  11.034  14.369   4.471 -0.3845 -0.1240 -0.0062
23512W        W41036   6.110  12.477   1.655  0.1483 -0.1862 -0.0340
23513W        W41037  17.234  16.547  14.122 -0.1149 -0.0995  0.1280
23514W        W41038   5.671   9.909  13.877 -0.0646  0.1803  0.2322
23515W        W41039  13.715  11.695  15.222 -0.1108  0.1156  0.0963
23516W        W41040  10.640   5.669  11.780  0.2706  0.1730  0.0565
23517W        W41041  11.456   1.407   1.480  0.2320 -0.1461 -0.2178
23518W        W41042   9.912  17.591  14.084 -0.1471  0.0935 -0.2636
23519W        W41043   4.382   5.937   4.629  0.0176 -0.3703  0.1416
23520W        W41044   2.501   7.677  10.233 -0.2198 -0.4127 -0.2051
23521W        W41045  13.982  15.891  15.358  0.0662  0.1130 -0.1012
23522W        W41046   6.858   9.339   1.148  0.0295  0.0826  0.0052
23523W        W41047   1.219  18.169  10.928  0.1783  0.0247  0.0128
23524W        W41048   0.331   6.775  12.007  0.1879  0.1765 -0.2409
23525W        W41049   0.699  15.673   4.426 -0.0740  0.1574 -0.1252
23526W        W41050   8.170   9.776   1.340  0.1295 -0.1841  0.3562
23527W        W41051  14.096  13.987   1.394  0.0659 -0.1428 -0.1505
23528W        W41052   3.485   6.110   2.648  0.0311 -0.2379 -0.1281
23529W        W41053   2.782  14.834  15.270  0.0640  0.0895 -0.1183
23530W        W41054   8.737  16.430  15.244 -0.2610  0.2491  0.0432
23531W        W41055   7.053   1.687  12.455 -0.0572  0.1606  0.0957
23532W        W41056   8.445  13.766   3.741  0.1062  0.0905 -0.0042
23533W        W41057  10.871   5.667   1.348  0.3690  0.2262 -0.1363
23534W        W41058   3.123   4.372   2.931 -0.2018 -0.0573  0.0695
23535W        W41059   2.769   3.010   3.185 -0.1076  0.1634  0.1725
23536W        W41060  11.455   1.836   3.857 -0.1601  0.3687  0.1617
23537W        W41061  15.571   5.931  12.323  0.0426  0.3355 -0.2970
23538W        W41062   3.179  11.235   1.849  0.2577 -0.3197 -0.3259
23539W        W41063   4.155   6.659  10.846 -0.0724  0.2685 -0.2033
23540W        W41064   2.643   2.111   3.637 -0.0867  0.0471  0.1513
23541W        W41065  11.561   8.131   5.028  0.2267 -0.0899  0.2775
23542W        W41066   9.267   5.216  13.383  0.2583 -0.0283  0.0111
23543W        W41067   0.224  11.717  15.071  0.2205  0.1063  0.0550
23544W        W41068  12.134  12.834  12.956 -0.2130 -0.2134 -0.0093
23545W        W41069  12.121  18.336  13.194 -0.2782  0.0468 -0.1780
23546W        W41070  14.162  12.116  11.150  0.2416  0.0566  0.1113
23547W        W41071   7.872   0.960  12.005 -0.0987  0.1144  0.2625
23548W        W41072   2.377  12.715   1.031  0.3911 -0.0931 -0.2058
23549W        W41073  17.271   5.793   1.086  0.3608  0.0676  0.1545
23550W        W41074  16.494   4.681  10.295 -0.1537 -0.3735  0.2319
23551W        W41075   4.131  15.847   0.668  0.0308  0.2451 -0.0976
23552W        W41076   6.608   0.407   4.872  0.1885 -0.2640  0.0662
23553W        W41077   4.974  14.949  13.648 -0.1004 -0.2074 -0.1339
23554W        W41078   8.536   0.756   0.725 -0.1498  0.0095 -0.0081
23555W        W41079  16.245   4.091   2.359  0.0385  0.2482  0.3658
23556W        W41080   5.306  10.081  11.852  0.6126  0.2926 -0.1649
23557W        W41081  14.750  16.813  12.877  0.1516 -0.0734 -0.2290
23558W        W41082   5.757   1.086   2.461 -0.2709 -0.1087  0.1644
23559W        W41083   8.623  12.693  14.876  0.2416  0.0064  0.1684
23560W        W41084  15.902   9.879   0.530 -0.1780 -0.1878 -0.0529
23561W        W41085   2.272   9.707   2.529 -0.0791 -0.0340  0.3214
23562W        W41086   6.108  11.628  13.041  0.0085 -0.2094  0.0504
23563W        W41087  16.346   1.524   2.727  0.1495 -0.0774  0.1607
23564W        W41088   5.122   4.576   0.301 -0.0052 -0.1709  0.1448
23565W        W41089   6.602  14.461  10.682 -0.2238 -0.1476 -0.3088
23566W        W41090   9.025  15.028   3.664  0.0056  0.0616  0.1837
23567W        W41091   2.722   2.419   5.708  0.1507 -0.1076  0.1720
23568W        W41092   0.124   4.898  13.661 -0.0303  0.1930 -0.2034
23569W        W41093   3.225  11.446   3.930  0.1180  0.0756  0.0795
23570W        W41094   3.783  15.041  14.851 -0.1385  0.3845  0.2700
23571W        W41095  18.206  17.101   3.327  0.0508 -0.1152 -0.1786
23572W        W41096   3.303   0.258   0.781  0.2377 -0.1237  0.2567
23573W        W41097   1.800  11.214  11.944  0.0606  0.1525  0.2474
23574W        W41098   0.922   1.009   1.459  0.0895 -0.0713  0.0245
23575W        W41099   9.709   7.281  14.030 -0.2291 -0.1285  0.0824
23576W        W41100   3.962  14.605  11.132 -0.0340  0.1940 -0.0109
23577W        W41101  14.080   1.888   4.492 -0.4208 -0.3625  0.0910
23578W        W41102  15.802   2.463  15.213 -0.0059  0.1678 -0.3888
23579W        W41103   6.785  11.699   1.789  0.0778 -0.1722 -0.1523
23580W        W41104   8.212  10.559  13.307 -0.0159 -0.1236 -0.0926
23581W        W41105   0.423  14.717   4.230 -0.1703 -0.0794  0.1694
23582W        W41106   3.958  12.180  15.823 -0.0129 -0.1080  0.2792
23583W        W41107   5.871  14.976   2.860  0.0585 -0.3835  0.1051
23584W        W41108   8.564  16.537  12.311  0.2912  0.0059  0.0191
23585W        W41109   6.504   7.001  11.524 -0.1596 -0.1548  0.1630
23586W        W41110   6.071  15.745   2.636 -0.0465 -0.1114 -0.1059
23587W        W41111   3.188  13.085  14.046 -0.0531 -0.1393  0.1202
23588W        W41112  10.421   0.066   3.209 -0.3351  0.0665  0.2872
23589W        W41113  14.383  15.938   3.679  0.1942 -0.1288 -0.0531
23590W        W41114  13.558  15.123   1.664 -0.2828  0.0119 -0.1537
23591W        W41115   8.376  10.302  12.118  0.0779  0.0397  0.1389
23592W        W41116  14.324   3.730  13.504  0.1542  0.3960  0.0790
23593W        W41117   6.773   8.318   2.076 -0.2686  0.1326  0.2409
23594W        W41118  14.550   0.482   0.341 -0.2292 -0.1151  0.0464
23595W        W41119  13.304   5.251   4.338 -0.1195  0.1327 -0.2746
23596W        W41120   5.094   4.174  14.877  0.1372 -0.2921 -0.1035
23597W        W41121  18.410   3.975  13.982  0.2777  0.4157  0.2505
23598W        W41122   9.776   3.547  13.850 -0.0787  0.2009 -0.0439
23599W        W41123   5.100   3.120   3.012 -0.0186  0.1222 -0.2743
23600W        W41124  14.242   0.761  14.942  0.1115 -0.2415 -0.1654
23601W        W41125  12.529   8.279   2.149 -0.0163  0.3355  0.0181
23602W        W41126   8.517   3.117  12.263 -0.0342  0.0263  0.2027
23603W        W41127  14.358   2.991   2.059 -0.0171 -0.2817  0.2135
23604W        W41128   2.770   4.912   0.098  0.3474 -0.2102 -0.1063
23605W        W41129  17.101  11.052   3.644  0.3630 -0.1003  0.2255
23606W        W41130   6.427  10.299  15.513  0.2430 -0.3469  0.4322
23607W        W41131  11.233   6.376   3.786 -0.1564  0.1359  0.2464
23608W        W41132   7.532   1.082   4.376 -0.1447 -0.0588  0.3426
23609W        W41133   0.300  16.084   4.746 -0.0865 -0.3611 -0.0696
23610W        W41134   1.834  12.531   0.491 -0.2853  0.5355 -0.0364
23611W        W41135   3.761  12.669  10.029 -0.0268  0.0936 -0.0775
23612W        W41136  10.244  14.645  13.057 -0.0154 -0.0033 -0.1062
23613W        W41137   3.516   1.203  15.245 -0.2216 -0.2848  0.3420
23614W        W41138   3.255   4.697  13.644  0.0660 -0.0629 -0.0539
23615W        W41139  13.113  16.916   2.530  0.0310  0.0318 -0.0554
23616W        W41140  14.588  17.169   1.975 -0.0331 -0.1897 -0.0783
23617W        W41141  17.908   6.376  14.662 -0.1439  0.1076  0.1934
23618W        W41142   9.311   6.404  13.535  0.0570  0.2639  0.0533
23619W        W41143   9.832  12.426   1.986  0.0539  0.1598  0.2253
23620W        W41144   1.211  14.360  10.873 -0.1881 -0.1517  0.0367
23621W        W41145   6.580  12.347  10.697 -0.1543  0.1792 -0.0517
23622W        W41146   7.348  12.996   1.098 -0.0316 -0.0090 -0.3411
23623W        W41147  18.003   5.786   1.314 -0.3405 -0.1052  0.1723
23624W        W41148  12.748   3.693  12.636 -0.1398  0.2532  0.2244
23625W        W41149   8.745  10.803   0.834 -0.0119 -0.0461 -0.2753
23626W        W41150   3.143   9.033  11.271  0.1003 -0.3946  0.0103
23627W        W41151  15.878  18.362   0.704  0.0275 -0.0529  0.1977
23628W        W41152  14.654  12.118  14.122 -0.0433 -0.1165  0.2614
23629W        W41153   4.221  11.408  15.158 -0.0043  0.1068 -0.0540
23630W        W41154   2.624  17.166   0.051 -0.1166 -0.2680 -0.0268
23631W        W41155   7.477   2.117  15.045  0.1300  0.0571  0.1637
23632W        W41156   4.025  14.188  14.251 -0.2228  0.2324  0.1295
23633W        W41157  11.854  11.380   1.367  0.1873  0.2435 -0.0309
23634W        W41158   9.219  10.231   0.137  0.1051  0.1599  0.2365
23635W        W41159  18.162  11.186  11.808 -0.0817  0.3018 -0.0984
23636W        W41160   0.075   5.459  15.186 -0.3349 -0.1781  0.2552
23637W        W41161   8.684   9.568   4.893 -0.3364 -0.1882 -0.2410
23638W        W41162   3.519  10.089  14.023  0.1660 -0.1036  0.0824
23639W        W41163  12.567   6.079  15.306  0.2474  0.2138  0.1347
23640W        W41164   5.911   4.563   3.686  0.2445  0.0848 -0.1667
23641W        W41165  16.173   7.571  11.450  0.0386  0.1162  0.4432
23642W        W41166   7.898  10.039  12.091  0.1058  0.3044  0.0083
23643W        W41167   8.121  11.268  13.992 -0.2244 -0.3918 -0.4497
23644W        W41168  10.779  12.048   0.786  0.0018 -0.4462  0.0708
23645W        W41169  11.473  16.830   3.199 -0.0822  0.2337  0.2834
23646W        W41170   3.636  12.292  10.762 -0.1878  0.2477  0.2005
23647W        W41171   3.438   2.792  15.513  0.0815  0.0858  0.1313
23648W        W41172   0.794   1.168  12.524  0.1158 -0.1785  0.1064
23649W        W41173   1.598   2.901  15.828  0.0403 -0.4232  0.0815
23650W        W41174  10.606  14.216  13.144 -0.0388 -0.1355  0.2127
23651W        W41175   8.208   3.534   4.161 -0.0614  0.2132 -0.0123
23652W        W41176  13.076   9.601  15.532 -0.0604  0.1776  0.1255
23653W        W41177   2.097   7.290   3.945 -0.1409 -0.1545 -0.2080
23654W        W41178   4.739  15.492   3.363 -0.4582  0.2102  0.3202
23655W        W41179  15.576   2.528   4.172  0.0947 -0.0493  0.2055
23656W        W41180   9.438   9.284  11.900  0.7973  0.1200 -0.4290
23657W        W41181   1.679  10.563  15.569  0.0556 -0.2033 -0.3124
23658W        W41182  11.628   3.456  14.337 -0.1546 -0.1231 -0.1974
23659W        W41183   3.704   6.030   0.982 -0.0296  0.0265  0.0713
23660W        W41184   4.401  17.316   1.913  0.0178 -0.2117  0.2210
23661W        W41185   0.047  13.467   0.251  0.0187  0.3122 -0.0577
23662W        W41186  15.725   9.800  14.990 -0.0807  0.5272  0.2346
23663W        W41187   5.842  16.666   4.412  0.0282 -0.3046  0.0285
23664W        W41188   6.171   8.582   2.533  0.1225  0.1700  0.3377
23665W        W41189   1.451  16.524   0.368  0.0868 -0.1391 -0.1315
23666W        W41190  12.699  15.204  11.992 -0.0798  0.0711  0.2790
23667W        W41191   0.104  14.393   0.066  0.1717  0.1787 -0.2142
23668W        W41192  15.771  15.323   2.032  0.1291  0.3152 -0.2188
23669W        W41193   5.604   4.869  14.483 -0.0346  0.1549  0.0099
23670W        W41194  13.366   4.901  14.145 -0.3826 -0.1215 -0.1863
23671W        W41195   1.644   9.871  13.446  0.0034  0.0856 -0.3855
23672W        W41196   8.186  12.548  13.197 -0.0323  0.2260  0.1280
23673W        W41197   6.840  12.866  12.678 -0.0550  0.2117  0.0925
23674W        W41198  14.601   1.616  10.248 -0.4482 -0.0729  0.3606
23675W        W41199  12.498   0.726   3.247  0.0156  0.0309 -0.1527
23676W        W41200  13.462  10.925  14.836  0.3109  0.0259  0.1697
23677W        W41201  15.815  15.454  11.919 -0.1121 -0.0970 -0.1112
23678W        W41202  13.650  16.487   1.178 -0.0040  0.1131 -0.3241
23679W        W41203  13.390  14.532   1.821 -0.1212 -0.0567  0.0980
23680W        W41204  15.770  12.278   0.165  0.1674 -0.1746 -0.0140
23681W        W41205  18.390   7.658   0.518 -0.1278  0.2954  0.2173
23682W        W41206   4.075  12.955  10.306  0.3670  0.1053 -0.3795
23683W        W41207  17.181  10.564   2.443  0.1057  0.3288 -0.0391
23684W        W41208   0.326  10.626  11.054 -0.2560  0.0493  0.0065
23685W        W41209   0.253   8.358  10.980  0.1727  0.2768 -0.2011
23686W        W41210   0.567   6.327  13.514 -0.0145  0.0774  0.1730
23687W        W41211  15.183  14.313   1.372 -0.1740  0.0943  0.1016
23688W        W41212   3.774   7.406   0.363 -0.0158  0.0779 -0.2138
23689W        W41213   8.461  12.052   3.002 -0.3404  0.0531  0.0315
23690W        W41214  12.105   6.213  14.695  0.2351 -0.0401 -0.0010
23691W        W41215  15.671  10.679  12.071 -0.0795  0.0985 -0.3894
23692W        W41216   1.361  13.092  14.147 -0.0741 -0.1371 -0.0918
23693W        W41217  14.294   5.186  11.120  0.0426 -0.0677 -0.3762
23694W        W41218   3.778   9.645   2.118 -0.0839  0.0168 -0.0503
23695W        W41219  13.094   9.659   0.651  0.0441 -0.1098 -0.2153
23696W        W41220  17.731   0.955  12.917  0.0538  0.1184 -0.4293
23697W        W41221  17.115  18.092   2.210  0.1282  0.0627  0.0285
23698W        W41222   2.973  17.471   3.239  0.3821  0.1688  0.1857
23699W        W41223   6.895  15.127   0.975  0.0874  0.1903 -0.1467
23700W        W41224   7.113   8.547   0.502 -0.1493 -0.0869 -0.0905
23701W        W41225   9.568  17.198  13.666  0.2816  0.0838  0.0840
23702W        W41226  10.488   3.986   1.378 -0.5543  0.0147 -0.0798
23703W        W41227   7.081  10.256   0.052 -0.3418 -0.1232  0.2745
23704W        W41228   6.569  11.353  15.196 -0.1761  0.4178  0.1563
23705W        W41229  13.317   8.149   4.419 -0.1072 -0.0965  0.1272
23706W        W41230   7.859   6.558   3.803 -0.0652  0.0277  0.1787
23707W        W41231   1.273   7.686   4.058 -0.1844  0.3433 -0.2764
23708W        W41232  10.706  11.286  12.540  0.0380  0.1132 -0.0218
23709W        W41233   8.315  12.086   0.397  0.0657  0.3746  0.2215
23710W        W41234  14.371   0.527  13.927  0.0423  0.0377 -0.2529
23711W        W41235   5.999   6.889   1.609 -0.2074 -0.4205  0.0130
23712W        W41236  13.347   4.108  11.471  0.5718  0.0551  0.0606
23713W        W41237   5.939   6.189  10.241  0.0339  0.1786  0.1145
23714W        W41238  13.433   5.494  12.835 -0.2482  0.1414 -0.0525
23715W        W41239   6.666   3.103  14.257 -0.5091  0.2567 -0.1592
23716W        W41240  11.451  12.952  12.610 -0.0258 -0.3340  0.1746
23717W        W41241  11.269   5.659  15.112  0.0275  0.1795 -0.0412
23718W        W41242  15.063  11.965   0.344 -0.1834  0.1004 -0.0319
23719W        W41243  11.607   8.236  12.634 -0.2123  0.0891 -0.2670
23720W        W41244   2.799  13.033   4.301 -0.1399  0.0784 -0.0659
23721W        W41245   7.797   3.787  15.641 -0.0646 -0.0214 -0.0641
23722W        W41246  11.086  11.405   4.036 -0.0258  0.2186 -0.1957
23723W        W41247   2.443   0.874  11.820 -0.1217  0.0223  0.2236
23724W        W41248   8.763  17.760  13.590 -0.1209 -0.0942 -0.0902
23725W        W41249  10.631  14.977   2.264  0.1085 -0.2748  0.1217
23726W        W41250   8.659   8.549  10.099 -0.0296  0.0121  0.2007
23727W        W41251  10.040   6.767  12.302  0.1313 -0.3578  0.0652
23728W        W41252   7.037   0.342  12.799 -0.0454 -0.0674  0.2725
23729W        W41253  15.835  10.504  14.733 -0.3164 -0.1097  0.1252
23730W        W41254  17.299   9.215   1.606  0.3515 -0.1028  0.0645
23731W        W41255   3.275   9.506   1.602 -0.2144 -0.0439  0.0620
23732W        W41256   9.072  15.901   4.401  0.3186  0.0573 -0.0748
23733W        W41257   3.590   0.095   3.075  0.2646  0.2023 -0.3435
23734W        W41258   9.168   1.292  13.917  0.1010  0.0205  0.1287
23735W        W41259   6.535   0.618  11.434 -0.4169 -0.1446  0.0011
23736W        W41260  10.767   1.706  10.962  0.1679  0.4921  0.2543
23737W        W41261   4.105   9.544  14.391 -0.0939  0.1967 -0.0139
23738W        W41262  10.178  13.249   2.756 -0.0248 -0.1657 -0.4164
23739W        W41263   4.945  17.722  10.989  0.1407  0.0390 -0.0987
23740W        W41264  14.146  10.650  13.244  0.3789 -0.3167 -0.1876
23741W        W41265   7.628   7.087   3.072 -0.1075 -0.1030  0.2455
23742W        W41266   7.921  13.793   3.578 -0.1872 -0.0703 -0.0519
23743W        W41267   8.562  11.518   0.743  0.3914  0.0187  0.4192
23744W        W41268   6.832  18.287   1.178  0.1586 -0.1626  0.3664
23745W        W41269  13.830  15.926   2.158  0.1386  0.0105 -0.0817
23746W        W41270   5.335   0.135   0.623  0.0278 -0.0659  0.3826
23747W        W41271   7.934   3.004   3.976 -0.3565 -0.0007 -0.2357
23748W        W41272  11.197  13.121  13.145 -0.1642 -0.2120  0.0419
23749W        W41273   0.593   8.234   2.966 -0.1295 -0.2185  0.2100
23750W        W41274   0.585   9.422  14.831 -0.0383 -0.2183  0.1808
23751W        W41275   1.685  13.717  12.679  0.0165 -0.0798 -0.3595
23752W        W41276  14.987  16.446  12.065  0.1976 -0.1515 -0.0717
23753W        W41277  17.525  12.931  14.329  0.2348 -0.1476  0.1994
23754W        W41278   9.405  12.111  15.824  0.0940  0.1464  0.1595
23755W        W41279   8.238  15.170  15.434  0.1336  0.1374 -0.1281
23756W        W41280  14.820  12.717   2.666 -0.1584  0.2743 -0.3606
23757W        W41281   1.399   3.682   3.446 -0.0493 -0.4317  0.1200
23758W        W41282  14.579   1.343  13.599  0.1055  0.3324  0.2654
23759W        W41283   7.969   2.942  12.165  0.0090  0.0010 -0.0675
23760W        W41284  17.655  10.464  12.814 -0.1343  0.0943 -0.3256
23761W        W41285   3.725  10.885   1.781  0.1323 -0.1035 -0.1160
23762W        W41286   2.591   7.635  15.375 -0.1800  0.1464  0.1692
23763W        W41287   0.883  18.261   2.025 -0.1840  0.0126  0.1896
23764W        W41288  16.983  16.625   2.543 -0.0741 -0.0521  0.1720
23765W        W41289   9.515  18.064   0.433 -0.0337  0.0769 -0.3048
23766W        W41290   7.197   5.685   0.210 -0.3667  0.1024 -0.0062
23767W        W41291  13.957  11.900  14.861  0.0502  0.0770 -0.0834
23768W        W41292   4.595   2.597   0.656 -0.3267  0.0685  0.0464
23769W        W41293  11.244   6.619   4.998  0.0278  0.2844  0.0659
23770W        W41294  13.916  15.715   0.887 -0.1347 -0.0565  0.1269
23771W        W41295  12.989  13.080   0.149  0.0832  0.0294 -0.2194
23772W        W41296  17.460  14.320   0.344 -0.1795  0.0865  0.3121
23773W        W41297  17.264  10.650   3.830  0.2006 -0.1460  0.2440
23774W        W41298   0.740   7.633  14.750 -0.1400 -0.2321 -0.0954
23775W        W41299  17.518   4.170  15.456 -0.2197  0.1813 -0.2231
23776W        W41300   0.308   7.812   2.922 -0.1739  0.0687  0.1312
23777W        W41301   5.685  15.417  15.811  0.1587  0.0502  0.3379
23778W        W41302   2.368  16.860  10.782  0.0144 -0.0205 -0.3290
23779W        W41303  11.714  17.298   3.288  0.0213  0.3848 -0.1255
23780W        W41304  15.633  12.384  14.361 -0.0211  0.0772 -0.0178
23781W        W41305  17.229   9.145   2.896 -0.2943  0.2220  0.0935
23782W        W41306  10.246   1.799   4.125 -0.2673 -0.1513 -0.0288
23783W        W41307   0.347   9.528   4.743  0.3649  0.0221  0.1434
23784W        W41308  11.052   1.923   0.050 -0.1042 -0.0586  0.1289
23785W        W41309  14.577  12.536  15.116  0.0173 -0.2992 -0.1157
23786W        W41310  14.639  10.026   3.267  0.2462  0.0087  0.4289
23787W        W41311  15.223   9.144  11.928  0.2440  0.0081  0.2756
23788W        W41312  10.860  16.919   5.363  0.2700 -0.3160  0.2511
23789W        W41313   8.339  18.030   3.062  0.1689  0.2589  0.2266
23790W        W41314   9.639  10.526   0.188 -0.0974  0.0524 -0.1392
23791W        W41315  15.418  15.613   2.258 -0.0109 -0.0516 -0.0822
23792W        W41316   0.160  14.567  12.875 -0.0028  0.0871  0.1023
23793W        W41317   1.124   8.920  15.227 -0.1512 -0.1427 -0.0354
23794W        W41318  11.568   6.059  13.553 -0.0957  0.0795  0.0194
23795W        W41319  16.969  16.753   0.473  0.0326  0.0912 -0.2523
23796W        W41320   5.054  15.134  12.174 -0.3129  0.0067  0.0056
23797W        W41321  13.308   4.067   0.984 -0.1396 -0.1382  0.0303
23798W        W41322   6.097  11.845   0.713  0.2383  0.0595  0.2542
23799W        W41323  13.324   6.862   1.642 -0.0929 -0.0190  0.1216
23800W        W41324   3.708  10.787  15.761 -0.1304  0.0663 -0.2369
23801W        W41325   3.103   4.483   0.584 -0.1693 -0.0872 -0.0410
23802W        W41326  15.313  12.912   0.343  0.3357  0.2370 -0.1237
23803W        W41327  10.385  13.894  11.662  0.3864  0.1944 -0.1309
23804W        W41328  14.724  10.207   0.139  0.1342  0.1096 -0.0230
23805W        W41329   7.272   3.356  12.870 -0.1348  0.0162 -0.1295
23806W        W41330   6.766  11.747   2.928  0.2212 -0.0736  0.1608
23807W        W41331  16.550   6.980   1.449  0.1652  0.1584 -0.0205
23808W        W41332   4.772   3.955  12.747  0.0680 -0.1907  0.2719
23809W        W41333   5.544   7.961   2.112  0.0188 -0.2719 -0.2737
23810W        W41334  14.376  16.204   2.236  0.1509  0.0899  0.0430
23811W        W41335   7.828   1.179   0.847 -0.1094 -0.1823 -0.0915
23812W        W41336  14.473  13.262   1.322 -0.0429  0.1934 -0.0031
23813W        W41337  14.707   1.088  15.363  0.0418  0.3315  0.0838
23814W        W41338   8.915  11.331  14.658 -0.0971  0.0201 -0.0171
23815W        W41339  15.095  16.677  15.848  0.2989 -0.1548  0.4908
23816W        W41340  10.153  13.376   0.236 -0.2274  0.1200  0.2216
23817W        W41341   7.156  15.392  14.319 -0.0957  0.1383  0.0346
23818W        W41342  13.874  12.740   5.066 -0.1827  0.1633 -0.3191
23819W        W41343   8.858  11.132   2.422  0.1858 -0.1626 -0.1700
23820W        W41344  13.357  12.820  14.407 -0.3585  0.3654 -0.2916
23821W        W41345  16.258   9.077  15.435 -0.1074 -0.0536  0.1491
23822W        W41346  13.333  17.430  13.679  0.2932  0.1425  0.0867
23823W        W41347  15.436   5.299  12.796  0.1411  0.1751  0.1081
23824W        W41348  17.100   3.821  14.241 -0.0447  0.1127  0.1271
23825W        W41349  17.542   7.368  13.858  0.0254 -0.1267  0.0033
23826W        W41350   4.993   2.079   0.402 -0.0526 -0.0832  0.0786
23827W        W41351   3.266  11.945  12.535  0.0234  0.1256  0.1479
23828W        W41352   1.719  14.216  11.472 -0.3545 -0.1544  0.0400
23829W        W41353   1.316  18.005  12.531  0.3376  0.4542 -0.1213
23830W        W41354  10.078   2.324  12.044  0.1796 -0.2073  0.1148
23831W        W41355   2.867   9.212   5.224 -0.0689 -0.0276 -0.1343
23832W        W41356  15.172   4.370   5.509  0.1815  0.1547 -0.3984
23833W        W41357   7.977   9.338   2.317  0.0521 -0.2985  0.0972
23834W        W41358  15.547   1.431  15.236 -0.3569  0.3020 -0.1736
23835W        W41359   1.085   0.518   0.465  0.0317 -0.0051  0.1972
23836W        W41360  10.616  12.538  15.204  0.2145 -0.2957 -0.0629
23837W        W41361   1.611   7.608   2.279  0.0809 -0.0773  0.1947
23838W        W41362  11.467  18.262   0.889 -0.0332  0.2204  0.0566
23839W        W41363   3.921  15.433   0.335  0.1667 -0.1941 -0.0951
23840W        W41364  18.368  10.860   1.235 -0.0834  0.1340 -0.2976
23841W        W41365   0.958  13.319  11.184 -0.1210 -0.1896 -0.5058
23842W        W41366   2.587   7.007  12.454 -0.1138 -0.0444  0.1462
23843W        W41367  12.245   1.264  14.263  0.2169  0.1897 -0.1183
23844W        W41368   7.413  18.129  15.426 -0.0410  0.0253 -0.0148
23845W        W41369   6.732  10.882   4.714 -0.1731 -0.4711 -0.1401
23846W        W41370  12.843  16.375   1.074 -0.0751  0.1988 -0.0149
23847W        W41371  10.755   0.286   2.362 -0.1132  0.0284  0.0018
23848W        W41372   9.518  13.690  13.344 -0.2653 -0.4543  0.1606
23849W        W41373   1.756   4.122   1.366  0.0618  0.0937 -0.0098
23850W        W41374   1.561   4.231   3.428  0.1504  0.1442  0.0737
23851W        W41375   2.737   2.563  11.193 -0.2452  0.1528 -0.2129
23852W        W41376   5.669   5.815   2.253 -0.4795  0.2079  0.1604
23853W        W41377   4.338   7.199   3.924 -0.0826 -0.0500  0.0686
23854W        W41378   8.713   5.247   1.193  0.0384 -0.0076  0.1164
23855W        W41379  17.149  17.387  12.257  0.2748  0.2077  0.2246
23856W        W41380   7.975  11.400   3.733  0.1237  0.1434 -0.1002
23857W        W41381  17.355   8.255   0.020  0.0523  0.3495  0.1242
23858W        W41382   2.568   6.161  13.497  0.1803 -0.1608 -0.1002
23859W        W41383   6.988   6.598  15.092 -0.0423 -0.0523  0.1558
23860W        W41384  12.427  16.760  14.144 -0.0546  0.1029  0.3559
23861W        W41385  16.030   6.786   0.652 -0.0289 -0.0197  0.0876
23862W        W41386  11.094  14.584  13.573  0.2382  0.1371  0.0198
23863W        W41387  16.738  13.242  11.444 -0.3379  0.4005 -0.1048
23864W        W41388   9.570  11.286  11.032 -0.2689  0.4018 -0.3040
23865W        W41389   9.740  12.416   2.501  0.1550  0.4544 -0.0216
23866W        W41390  12.524   3.889  15.777  0.0891  0.0535  0.0835
23867W        W41391  11.271   4.785  15.227 -0.1046  0.0343 -0.1511
23868W        W41392   7.324   1.256  13.168  0.0111 -0.0342  0.1440
23869W        W41393   0.464  14.066   2.009 -0.0639 -0.1561 -0.2114
23870W        W41394   5.991   7.693   1.853 -0.0132  0.0188 -0.0155
23871W        W41395  16.999  10.823   0.361  0.2198 -0.1010  0.0292
23872W        W41396   2.126   6.821  10.000  0.1689  0.0938  0.2555
23873W        W41397   9.822   8.235  15.478 -0.1251 -0.3916 -0.0805
23874W        W41398   0.042   8.105   2.549 -0.2435 -0.0189  0.1451
23875W        W41399   7.787  15.311   4.065  0.0024 -0.2937  0.0731
23876W        W41400  13.385   9.416  11.933 -0.0192  0.0066  0.1248
23877W        W41401  14.859   4.244  15.832  0.0975  0.0159 -0.0442
23878W        W41402  10.059   3.722   0.030  0.1169  0.1946 -0.0483
23879W        W41403  17.790   7.166  11.187 -0.0955  0.0535 -0.1608
23880W        W41404  10.576   4.394   0.954 -0.2407 -0.0860 -0.2491
23881W        W41405   9.731   2.587  15.310  0.3156  0.1753 -0.0766
23882W        W41406  18.093   0.739  11.646  0.0075 -0.0368  0.1936
23883W        W41407  15.581   7.016   5.690  0.0325  0.1250 -0.2095
23884W        W41408   1.200   9.239  13.204 -0.0751  0.0171 -0.0990
23885W        W41409   2.272   0.747  15.393  0.1057 -0.1175  0.1405
23886W        W41410  12.121   2.404   3.484 -0.2467 -0.1798  0.0474
23887W        W41411  10.920   5.534   4.811 -0.1655  0.0557 -0.1673
23888W        W41412   4.030   1.540   2.214  0.0820  0.4066 -0.0488
23889W        W41413   1.100   6.553  10.921  0.0799  0.2244 -0.2580
23890W        W41414   9.493   0.089   4.359 -0.0581 -0.0180  0.2243
23891W        W41415   2.682   4.356  13.018  0.2160  0.0937 -0.2366
23892W        W41416   6.037  16.398   5.320  0.0782 -0.0843  0.1067
23893W        W41417   4.563   3.047  12.528 -0.2734  0.0247 -0.0437
23894W        W41418  10.157  11.454   1.495 -0.2874  0.0231 -0.1550
23895W        W41419   2.216   1.274  11.583 -0.0444  0.0488 -0.0991
23896W        W41420   5.252   5.098  15.402 -0.2387  0.0635  0.3655
23897W        W41421   2.365  14.875   2.155 -0.0129  0.3006  0.1476
23898W        W41422  17.231   0.415  10.084  0.0802 -0.0341 -0.0667
23899W        W41423  15.096   7.650   3.888 -0.0072  0.0185 -0.0857
23900W        W41424   4.588   6.170  14.908 -0.0292  0.0291  0.1992
23901W        W41425  13.367   4.644  12.673 -0.1238 -0.0687  0.1771
23902W        W41426   9.476   2.056   3.091  0.1972  0.1693  0.3428
23903W        W41427  14.893   7.509   4.497 -0.1086 -0.3843  0.1413
23904W        W41428  17.278  15.025  12.607 -0.0804 -0.0623  0.2126
23905W        W41429  17.370  15.738   1.899  0.0077  0.2442 -0.1814
23906W        W41430  15.086   7.565   0.680 -0.0548  0.3023 -0.1591
23907W        W41431  10.048   9.442   1.613  0.0262  0.0748  0.2504
23908W        W41432  12.087   8.204  12.604  0.1681  0.0323  0.5034
23909W        W41433   2.857   7.378   2.280  0.0049  0.0040 -0.1738
23910W        W41434   5.404   3.098   2.376 -0.0211  0.1838  0.0841
23911W        W41435  16.873   6.907  15.412 -0.2343  0.0011 -0.3737
23912W        W41436   5.935  17.892   0.559  0.1145  0.0053 -0.0620
23913W        W41437   3.576  12.325   0.750 -0.2279 -0.1284  0.1278
23914W        W41438   2.323  12.521   0.258  0.1221 -0.2084  0.0981
23915W        W41439  10.971   2.201   3.593  0.0880 -0.2049 -0.0877
23916W        W41440  17.420   9.235  13.859 -0.1750  0.1761  0.2981
23917W        W41441  12.187   1.745   3.345 -0.2230 -0.0207 -0.0206
23918W        W41442   6.728  16.924  14.416  0.3459  0.0075 -0.1527
23919W        W41443   3.248  18.340  14.674 -0.1011 -0.1903  0.1010
23920W        W41444   8.919   0.699   0.259 -0.2987  0.3353  0.2222
23921W        W41445   1.127   3.335   2.267  0.1726  0.0845 -0.2181
23922W        W41446  17.926  17.643   0.946 -0.2045 -0.0253 -0.1192
23923W        W41447  16.592  11.291   1.626 -0.1163  0.2888 -0.3500
23924W        W41448  17.243   9.843   4.376 -0.3097  0.0217  0.1811
23925W        W41449   2.918  13.410  11.664  0.1196 -0.1027 -0.0014
23926W        W41450  15.067  12.879   2.213  0.1024 -0.3098  0.2958
23927W        W41451   3.635  10.055  14.945 -0.2518  0.2794  0.2149
23928W        W41452  16.148   0.057  15.069 -0.3075  0.1724  0.2531
23929W        W41453   8.023  14.280  11.716 -0.1193 -0.1531  0.3583
23930W        W41454   0.190  13.986  13.000  0.0719 -0.0268 -0.0254
23931W        W41455  15.063  12.904  12.509  0.3216  0.2790 -0.2411
23932W        W41456  12.685  15.430  13.380 -0.2250 -0.1145  0.1286
23933W        W41457   9.978  17.041   3.618 -0.0678 -0.0813 -0.4583
23934W        W41458  10.085  13.301  15.035 -0.1994 -0.0680  0.1907
23935W        W41459   3.963   2.861   3.569  0.0889  0.0343  0.0123
23936W        W41460   3.884  15.951  13.095 -0.1636  0.5460  0.1058
23937W        W41461  14.052  10.956  11.116 -0.0505 -0.2570 -0.0565
23938W        W41462   9.946  15.100   5.372  0.1382  0.0050 -0.0981
23939W        W41463   5.793  10.890   3.422 -0.0778  0.2988 -0.0711
23940W        W41464  16.798  14.531   2.511 -0.1795  0.2621  0.4519
23941W        W41465   2.761   3.994   4.141  0.1259  0.6680 -0.1425
23942W        W41466  11.782  11.839   3.254  0.2116 -0.2590 -0.3598
23943W        W41467   6.883   5.668   4.159  0.0475 -0.4244 -0.2043
23944W        W41468  12.580  17.073   4.178  0.1824  0.0679  0.0276
23945W        W41469   1.305   5.171  14.598  0.4369 -0.0120  0.2191
23946W        W41470   4.446   1.790   1.400 -0.4287 -0.0302  0.1138
23947W        W41471   8.568  17.426  14.393 -0.1290  0.2341  0.0015
23948W        W41472  15.723   4.950   1.236  0.1204 -0.3083 -0.3168
23949W        W41473   0.710   6.396   1.747 -0.0367 -0.1841 -0.0536
23950W        W41474   2.062  12.240   2.669 -0.1531  0.2659  0.0388
23951W        W41475   8.689  14.453  14.949 -0.1242 -0.0403  0.3454
23952W        W41476  16.587  17.098   0.722 -0.1833 -0.2884  0.1182
23953W        W41477  14.966  15.928  12.881 -0.0961 -0.3680  0.2768
23954W        W41478   1.842  10.913   4.685 -0.1025  0.0527  0.0602
23955W        W41479  15.756   2.074  12.355  0.1642  0.1001  0.1716
23956W        W41480   0.097   0.779  12.467  0.0698  0.1965  0.4172
23957W        W41481  13.094   6.609  15.159 -0.3155  0.0417 -0.0004
23958W        W41482  17.616  16.726  13.310  0.5740 -0.1003  0.1174
23959W        W41483  13.957   3.841  11.317 -0.0496 -0.3370  0.0676
23960W        W41484   1.545  16.591  12.990  0.0012 -0.0983  0.2095
23961W        W41485   1.646   3.394  15.791 -0.0465  0.2391  0.0774
23962W        W41486   6.137   5.866   2.052  0.0699 -0.2185 -0.1449
23963W        W41487  16.484  16.919   1.202 -0.5602  0.1099 -0.1251
23964W        W41488   6.773  16.458   1.685 -0.0712 -0.1327 -0.2117
23965W        W41489   2.272  11.105   3.181  0.0648  0.0264 -0.1139
23966W        W41490   8.676   5.860  14.993 -0.0442 -0.2757  0.0771
23967W        W41491  12.694  17.064   1.251  0.2108  0.2178 -0.0280
23968W        W41492   3.209  17.824  11.889 -0.1566  0.2675 -0.0426
23969W        W41493   7.892  12.132   1.019  0.2207 -0.3290 -0.0698
23970W        W41494  12.124  13.839   1.311 -0.0128  0.2424  0.1805
23971W        W41495   1.922   3.792  12.459  0.2497 -0.3299 -0.0769
23972W        W41496  17.259   5.901  14.772 -0.1215  0.0316 -0.0067
23973W        W41497   9.665  14.593  14.692  0.0654  0.3165  0.1904
23974W        W41498  13.859  17.330  15.730  0.3767 -0.1260  0.2462
23975W        W41499   8.355  11.674   4.984  0.1558  0.0096  0.3183
23976W        W41500   4.576   2.587  14.714  0.1765 -0.2778 -0.0407
23977W        W41501   3.635   2.462   3.509  0.1175 -0.0347  0.2780
23978W        W41502   1.029  18.237   2.760  0.1629 -0.0653  0.3055
23979W        W41503   7.245   5.452  11.102  0.0915  0.2431  0.0311
23980W        W41504  18.155   5.196  12.245 -0.1101 -0.1577 -0.4907
23981W        W41505   0.955  16.006  14.371 -0.0369 -0.2933 -0.0108
23982W        W41506   9.348  13.481   6.070 -0.1078  0.2920  0.0957
23983W        W41507  17.380  13.872  15.323 -0.0584  0.0186 -0.0594
23984W        W41508   7.950  10.157   0.248 -0.0338 -0.0005  0.0450
23985W        W41509  12.805  14.152   5.517 -0.1753  0.2895 -0.0783
23986W        W41510   5.124   6.698   2.534  0.2823  0.0228  0.2578
23987W        W41511  14.706   4.159   4.234  0.0928  0.0384 -0.1439
23988W        W41512   4.662  12.463   1.781 -0.2868 -0.1908 -0.0716
23989W        W41513   4.857   9.850  12.582  0.0501  0.2333 -0.2685
23990W        W41514   3.197  17.912   0.393  0.0327  0.0995 -0.1637
23991W        W41515  12.068   6.172  13.668  0.0589  0.1717 -0.4452
23992W        W41516   8.332   3.803   2.472  0.0523 -0.1270  0.1498
23993W        W41517  18.345   0.929  14.608 -0.0030  0.0081  0.0413
23994W        W41518  10.734   7.117   1.864  0.2520 -0.1727  0.0637
23995W        W41519   1.563  10.073  11.571  0.3363  0.0975  0.0380
23996W        W41520  13.595   6.072  13.764  0.0138  0.0789  0.0238
23997W        W41521  15.642  17.688  15.014 -0.0972  0.3239  0.1725
23998W        W41522  18.049   6.212  15.596 -0.0941  0.1646 -0.2899
23999W        W41523   2.890  17.054   2.180  0.0985 -0.4745 -0.0779
24000W        W41524   0.590   3.313   2.293  0.0680 -0.0569 -0.0266
24001W        W41525  14.277  13.203   2.915  0.0757  0.0258 -0.2797
24002W        W41526  15.902   3.063  12.539  0.2302 -0.0111 -0.4313
24003W        W41527   4.152  18.199   2.359 -0.3427 -0.1238  0.0597
24004W        W41528   8.874   4.276  12.847 -0.0752 -0.0381  0.0752
24005W        W41529  15.484   5.799   1.156 -0.0015  0.1281 -0.1811
24006W        W41530  13.223   6.211   3.386 -0.0898 -0.0346 -0.0943
24007W        W41531   5.811  18.352   0.751 -0.0881 -0.2030  0.2179
24008W        W41532  16.395   5.990   4.178  0.0231  0.1352  0.1063
24009W        W41533   7.702   9.876   0.622 -0.3494  0.1508 -0.0565
24010W        W41534  12.864   4.694   0.439 -0.1570  0.1741 -0.0093
24011W        W41535   3.568  12.296   2.149 -0.1825  0.1096 -0.0535
24012W        W41536   7.731   1.615   4.841 -0.1205  0.3248 -0.2485
24013W        W41537  10.101   0.176   2.175 -0.4399 -0.0497  0.0715
24014W        W41538  13.571   9.912  14.822  0.0607  0.0726 -0.1059
24015W        W41539   5.824  13.888  13.990 -0.2623 -0.2600  0.0298
24016W        W41540   6.853   9.338   0.016  0.1171 -0.0599 -0.0309
24017W        W41541   6.114  12.998   0.436 -0.2433 -0.0539 -0.2943
24018W        W41542   1.791  14.728  11.193 -0.0273 -0.1048 -0.3523
24019W        W41543   9.355  16.878   0.123  0.1356 -0.1858 -0.1214
24020W        W41544  11.317   7.379   1.134 -0.1691  0.1961  0.0940
24021W        W41545   9.144  16.410  12.900 -0.2015 -0.0262  0.0332
24022W        W41546  13.056  17.088   4.440  0.0984 -0.0746 -0.2229
24023W        W41547  12.725   2.668   0.171  0.3149 -0.1817 -0.1395
24024W        W41548   2.438   4.499  11.362 -0.0661 -0.3926  0.0807
24025W        W41549   8.818  15.670  11.229 -0.1192  0.2561  0.0132
24026W        W41550   9.528  18.301  13.339 -0.0448  0.1744 -0.2832
24027W        W41551  13.433  17.047  15.613  0.2998  0.0083  0.0896
24028W        W41552   3.428  14.321   4.378  0.0784 -0.1987  0.0642
24029W        W41553   7.661   3.858   0.295 -0.2208 -0.1314 -0.3286
24030W        W41554  11.066   9.500  10.709 -0.2632  0.1158 -0.0110
24031W        W41555  10.684  16.001   3.171  0.0480 -0.1485 -0.2952
24032W        W41556   0.900  17.050  11.622  0.0304  0.2601 -0.1637
24033W        W41557   5.347  16.727   4.234  0.0150 -0.1334 -0.0499
24034W        W41558   1.637   4.073  11.804  0.2940  0.0043  0.1621
24035W        W41559  13.047  14.724   4.963 -0.0388 -0.2845 -0.0177
24036W        W41560  11.972  12.287   1.360  0.0365 -0.3897  0.0855
24037W        W41561   4.061  14.579  15.425  0.3006  0.1032  0.0318
24038W        W41562   7.681  12.952   3.813  0.1004 -0.1777 -0.0875
24039W        W41563  13.732   1.207   0.709  0.1649 -0.0118 -0.2083
24040W        W41564   1.166  11.496  11.634 -0.0016 -0.2260  0.0649
24041W        W41565   6.553  11.678  12.121 -0.1085 -0.3327 -0.1823
24042W        W41566  10.385   3.030   0.935  0.1509 -0.0428  0.1320
24043W        W41567  15.051   3.205  12.963  0.2276  0.1723 -0.1864
24044W        W41568   6.804  14.618   3.585 -0.1700 -0.1279 -0.0162
24045W        W41569   6.434   9.951   4.471  0.2000 -0.1226 -0.0530
24046W        W41570   4.117  15.450  13.710  0.0219 -0.2908  0.2301
24047W        W41571   6.131  10.632  12.649 -0.0111 -0.1875 -0.3179
24048W        W41572   8.750  11.750   3.503 -0.0152 -0.0279  0.2639
24049W        W41573  17.936  10.712   3.687 -0.1076  0.1276 -0.3044
24050W        W41574   3.271  15.154   3.389 -0.3758  0.2601  0.1828
24051W        W41575  10.471   4.816   2.911  0.0459 -0.0233 -0.2353
24052W        W41576  11.628   6.501  14.690 -0.2033  0.0678  0.0822
24053W        W41577   1.810   0.704  14.761 -0.1490  0.0070 -0.3554
24054W        W41578   0.113  15.562  15.745 -0.2987 -0.0886 -0.3757
24055W        W41579   2.651   5.003  12.760 -0.0903 -0.0979 -0.1672
24056W        W41580  15.994   1.446  14.152  0.0255 -0.0378  0.2569
24057W        W41581  17.308  16.527   1.523 -0.1495  0.1381  0.2999
24058W        W41582  17.658  17.692  12.200 -0.2326 -0.3706 -0.2794
24059W        W41583   3.150  12.701   2.233 -0.0341  0.2702 -0.1710
24060W        W41584  10.401   8.756  15.074  0.1889  0.1725  0.1928
24061W        W41585   7.721   2.102  12.269  0.1657  0.0260  0.0040
24062W        W41586  12.787  11.943   5.817  0.1750 -0.1464  0.4041
24063W        W41587   6.335  11.013  11.528 -0.1981  0.1985 -0.1630
24064W        W41588  12.122  16.620   1.613 -0.1647  0.0813  0.2021
24065W        W41589   6.971  11.960  13.279  0.0284 -0.1244 -0.0329
24066W        W41590  13.267   9.709  13.553  0.2186 -0.1257 -0.2842
24067W        W41591   8.268  16.571   3.943 -0.3867 -0.0789 -0.1620
24068W        W41592   3.587   1.150   3.377 -0.0483  0.1415  0.0229
24069W        W41593   2.745   1.438  15.730  0.0559 -0.0441 -0.0644
24070W        W41594  12.880  16.586  13.071  0.1376  0.0735 -0.0050
24071W        W41595   1.250  11.729   3.524  0.1696 -0.0171 -0.1443
24072W        W41596  11.614  13.794  11.844  0.1161 -0.2668 -0.2501
24073W        W41597   8.956   9.354   1.001  0.2478  0.1126  0.1828
24074W        W41598  18.349   7.927  11.059 -0.1573  0.0441  0.1871
24075W        W41599   3.887  13.433   3.341  0.1694  0.0534  0.1057
24076W        W41600   8.663   0.914   5.103  0.0703 -0.1022  0.2309
24077W        W41601   9.675  18.356  11.938  0.0977 -0.3367 -0.0764
24078W        W41602   9.885  15.341  12.413 -0.1128 -0.0639 -0.1505
24079W        W41603   6.278   3.406   0.360 -0.0413 -0.1474  0.1888
24080W        W41604   3.663   0.756   5.331  0.2470 -0.0703 -0.2062
24081W        W41605   7.339  14.411   5.755  0.0752  0.2718  0.1198
24082W        W41606   7.059   3.227  14.578 -0.2049 -0.0369  0.0296
24083W        W41607  17.481  13.088   2.538  0.2258  0.0235  0.3445
24084W        W41608   8.499   7.988   1.180  0.0118 -0.0743  0.0130
24085W        W41609   1.011  15.920   2.300 -0.0435  0.0018 -0.2105
24086W        W41610  15.089   5.485   1.546 -0.0130  0.1587 -0.1154
24087W        W41611  18.039   6.887  12.561  0.1148 -0.1682  0.1199
24088W        W41612   5.819  13.903   4.047 -0.1486 -0.2557  0.1369
24089W        W41613  11.595  16.652  10.902 -0.1827  0.1169 -0.3649
24090W        W41614  15.593  17.837   0.603 -0.1435  0.1675  0.2663
24091W        W41615  14.308   7.688  14.166  0.1734  0.0952 -0.1735
24092W        W41616   6.687  11.054   2.461 -0.0419  0.0827  0.1056
24093W        W41617   3.370   6.594  15.588  0.0064 -0.1708  0.3120
24094W        W41618  18.113   6.152   3.419  0.4264  0.0383  0.0363
24095W        W41619  10.809  16.088   1.730 -0.2604  0.1743  0.0488
24096W        W41620  10.373  16.732  11.451  0.0935 -0.2414 -0.2832
24097W        W41621   5.696  12.928  12.675 -0.0527  0.0059  0.0296
24098W        W41622  16.196   4.191  11.480 -0.1598  0.1226 -0.1692
24099W        W41623  10.276  12.042   3.994 -0.1505  0.1828  0.2519
24100W        W41624   5.757   3.880   4.762  0.0904  0.0225  0.0498
24101W        W41625  17.565  11.584   4.798  0.1195  0.1739  0.2060
24102W        W41626  10.154  13.657   1.085 -0.0197  0.3971  0.1218
24103W        W41627   2.307   6.022  15.252 -0.3725 -0.1004 -0.1830
24104W        W41628   3.056   1.834  11.945  0.3235 -0.0108 -0.2024
24105W        W41629   4.718  16.670   4.790  0.2567 -0.1393 -0.2032
24106W        W41630  10.788   0.894   3.179  0.2110 -0.1571 -0.0071
24107W        W41631   9.100   6.634  11.895 -0.1758  0.3444 -0.3969
24108W        W41632   5.983   4.067  15.335  0.2366 -0.1564  0.2326
24109W        W41633   4.421   6.701   3.151 -0.0283 -0.0676  0.3808
24110W        W41634   6.940   3.812  13.808 -0.0785 -0.0345  0.0952
24111W        W41635   1.239  10.193   2.785  0.0487  0.2916  0.0975
24112W        W41636  15.803   4.325  11.183 -0.0228  0.5217 -0.0168
24113W        W41637   0.807   0.456   3.967 -0.2926  0.2477  0.3685
24114W        W41638   7.627  16.922  14.222 -0.0741 -0.2542  0.0097
24115W        W41639   9.024  11.968   0.787  0.2619 -0.0157  0.0072
24116W        W41640   5.315  14.379  11.873 -0.2245  0.4720  0.1189
24117W        W41641   0.828   9.214   2.685 -0.1807  0.2091  0.0762
24118W        W41642  10.048  14.103  11.339 -0.1939  0.1283 -0.1170
24119W        W41643   5.116   8.868   4.366 -0.3843  0.1113 -0.0377
24120W        W41644   5.633  11.592  12.049  0.1302 -0.2040 -0.0016
24121W        W41645   3.268  12.295  12.072  0.2219  0.0582  0.4714
24122W        W41646  10.019   2.591   2.644  0.0553  0.1062  0.4018
24123W        W41647   9.239  15.526  14.452 -0.1223 -0.0886  0.0548
24124W        W41648  16.598  13.696   4.515  0.2552  0.0037 -0.1750
24125W        W41649   5.496  15.359  12.213 -0.2342  0.0664 -0.0036
24126W        W41650   2.747  17.647   4.199  0.0741  0.0597  0.0156
24127W        W41651  10.986  14.663   1.949  0.0546 -0.1097 -0.3987
24128W        W41652   5.883  12.037  15.361 -0.0960 -0.1291  0.4449
24129W        W41653  12.293   8.064  12.155  0.1648  0.2542 -0.0184
24130W        W41654  16.586   7.420  15.452 -0.3009 -0.1326  0.4373
24131W        W41655   0.150  16.844  11.138  0.0739  0.1337  0.0669
24132W        W41656   9.078   6.700  11.047 -0.0345  0.1462 -0.0819
24133W        W41657   1.050  12.126  13.574  0.1493  0.1735  0.0149
24134W        W41658   2.145  10.547   4.529  0.0028 -0.0636 -0.2681
24135W        W41659   2.428  16.870  11.271  0.4009 -0.1194 -0.0523
24136W        W41660  13.209  15.257  12.009 -0.3531  0.2263  0.1844
24137W        W41661   1.307   0.997  15.476 -0.2346 -0.1578  0.2205
24138W        W41662   0.428   6.805  15.797  0.3064  0.0410  0.2870
24139W        W41663   8.886   3.001  13.681 -0.0489 -0.0800  0.3907
24140W        W41664  12.729  11.397   0.888 -0.2225 -0.0933 -0.0120
24141W        W41665   8.145  17.509  12.806  0.0628  0.3549 -0.2048
24142W        W41666   1.128   9.168   1.772  0.1025 -0.0259 -0.0804
24143W        W41667  11.264  16.343   1.835 -0.0889  0.0718  0.0417
24144W        W41668  11.273   2.906  12.051 -0.0533 -0.1737  0.2238
24145W        W41669   4.111  10.975  14.873 -0.1375  0.1621 -0.1243
24146W        W41670   5.900   8.212  11.529  0.0384 -0.0751  0.0745
24147W        W41671   0.718   0.428   0.115 -0.1367  0.2031 -0.0725
24148W        W41672   3.548   6.848   2.546 -0.1544  0.2721  0.0757
24149W        W41673  12.705   2.911   1.025 -0.1149 -0.3731  0.1320
24150W        W41674  11.573  16.982  15.376  0.0876 -0.0462 -0.0554
24151W        W41675  11.694  15.402   1.505 -0.1141  0.1799 -0.3578
24152W        W41676  15.763   2.996   3.078 -0.0424 -0.0992 -0.1457
24153W        W41677  11.168  15.493  14.919 -0.0166  0.2468  0.0197
24154W        W41678   1.831  16.753  12.552  0.0484 -0.0032 -0.1074
24155W        W41679   7.842   3.380  11.934  0.3235 -0.0119 -0.0050
24156W        W41680   9.475   9.770   0.301 -0.0583  0.2017 -0.0285
24157W        W41681   3.549   3.835  13.079 -0.1966 -0.0837  0.0646
24158W        W41682   7.823  15.339   1.229 -0.1923 -0.0559  0.1827
24159W        W41683   5.341   5.734   0.297 -0.0733 -0.1604  0.0265
24160W        W41684   8.241  17.211   4.856 -0.1140  0.1763  0.0453
24161W        W41685  14.131  12.162  10.367 -0.2991  0.0658  0.1187
24162W        W41686  12.762  16.132  11.679 -0.2035  0.0417 -0.0451
24163W        W41687   9.481   7.304  15.641  0.0099  0.1586 -0.0235
24164W        W41688   0.013  15.114   3.139  0.0906  0.0788 -0.2573
24165W        W41689  14.991   6.107   3.836  0.0348 -0.0376 -0.1448
24166W        W41690   1.939   4.677   0.431  0.1656  0.3537  0.1010
24167W        W41691  11.800  13.036   1.947  0.1803 -0.0064 -0.0511
24168W        W41692  11.660  15.349  13.311 -0.0180  0.0956  0.1159
24169W        W41693  13.232  10.462  14.592  0.2576 -0.0348 -0.0881
24170W        W41694  13.112   1.198  10.718  0.0624 -0.0405 -0.2276
24171W        W41695   9.077   4.659  14.760 -0.0935 -0.1585 -0.2089
24172W        W41696  12.172   8.783  15.644 -0.0307 -0.0040  0.1379
24173W        W41697   8.300   5.516   3.799  0.1188  0.0250 -0.1498
24174W        W41698   3.671  14.832   3.476  0.0563  0.1306 -0.0181
24175W        W41699  10.587  12.828   4.104  0.0453 -0.1060 -0.1058
24176W        W41700   4.100   0.285   1.131  0.2431  0.0861  0.1341
24177W        W41701   6.408   3.591  13.254 -0.1871 -0.1284 -0.1607
24178W        W41702   5.001   0.490  14.066 -0.1024  0.0000  0.0886
24179W        W41703   2.326   6.224  13.996  0.1621  0.3134  0.1441
24180W        W41704   6.690   3.738   1.944  0.3990 -0.0579  0.1015
24181W        W41705   6.340  12.474  14.507 -0.1358  0.1972  0.2372
24182W        W41706  12.289   8.217   3.356 -0.0295 -0.2055  0.1573
24183W        W41707  12.167  14.701  12.758  0.2461 -0.1279  0.0167
24184W        W41708  15.321  12.904  10.671  0.3770 -0.0088  0.2350
24185W        W41709   1.598  12.118  15.238  0.1441  0.2013  0.2157
24186W        W41710  16.181   2.864  13.394  0.0006 -0.2093  0.0303
24187W        W41711   9.084  13.841  15.456  0.0584 -0.1413 -0.1425
24188W        W41712  18.314   3.363  11.722  0.0858  0.0382 -0.1794
24189W        W41713  11.241  13.036   0.261 -0.4610  0.0640  0.0389
24190W        W41714  11.522  11.733  15.071 -0.0116 -0.1748 -0.0852
24191W        W41715   6.355  16.297  13.025 -0.1496  0.1322  0.0798
24192W        W41716   7.748   3.963  13.138 -0.0264  0.0771 -0.1958
24193W        W41717  14.766   0.402  12.521  0.2419 -0.2246  0.0173
24194W        W41718   2.216   4.284   2.619 -0.0974  0.0968 -0.1298
24195W        W41719   3.650  14.080  13.720 -0.0203 -0.0816  0.0556
24196W        W41720  14.043   3.413   1.326  0.1655  0.0057 -0.1258
24197W        W41721   0.058   1.489  12.352  0.1759 -0.4620 -0.1018
24198W        W41722  16.671  15.044  11.924  0.0634  0.0181  0.3017
24199W        W41723   3.190   0.401   3.215 -0.0393  0.2019 -0.1093
24200W        W41724  16.245   7.379   1.327  0.1004  0.0147 -0.0169
24201W        W41725   7.258   2.173   3.891  0.0252  0.0566  0.1786
24202W        W41726   8.291   2.614   4.127 -0.0850 -0.2057 -0.1168
24203W        W41727  17.574   2.066  15.786 -0.1382 -0.2535  0.1702
24204W        W41728  13.831  15.070  11.515  0.1068  0.1775 -0.1841
24205W        W41729   8.625  17.373   3.441 -0.2077  0.1452 -0.0769
24206W        W41730   9.895   4.082  13.070  0.0160  0.1663  0.1338
24207W        W41731  13.895   2.982   1.045 -0.3598 -0.1942 -0.3235
24208W        W41732  10.395   0.537  14.303  0.0474 -0.1511 -0.0706
24209W        W41733   0.768   6.294   4.251 -0.2350  0.0388 -0.1732
24210W        W41734  15.362  10.937   2.783 -0.0371  0.2233 -0.2492
24211W        W41735   6.926   0.071  13.590 -0.1729  0.2073  0.0820
24212W        W41736  12.005   4.466  15.850 -0.0901  0.3242 -0.2214
24213W        W41737  15.376   2.844   3.331  0.2409 -0.3225 -0.0102
24214W        W41738  13.273   1.940  14.723 -0.2426  0.2072 -0.0721
24215W        W41739  17.635   6.302   2.997 -0.0847  0.4563  0.0075
24216W        W41740  14.743   4.825  13.100  0.0471 -0.0333  0.3483
24217W        W41741  18.179   5.903  12.990  0.0198  0.1778 -0.1475
24218W        W41742  10.457  16.474  11.040  0.0589 -0.0183 -0.1873
24219W        W41743  12.420  10.046  14.113  0.1194 -0.0463  0.1685
24220W        W41744   8.925   6.381   4.698 -0.1469  0.1058  0.5125
24221W        W41745   5.149  14.436  13.384 -0.2315  0.3209  0.0959
24222W        W41746  17.129  16.396   3.916 -0.0351  0.2078 -0.0329
24223W        W41747   4.901   4.179   0.001 -0.0951  0.0333  0.1181
24224W        W41748  15.621   9.028  11.589 -0.0250 -0.3084  0.3265
24225W        W41749   9.586  10.081  11.088 -0.0760  0.1197 -0.0574
24226W        W41750   3.453   6.989  12.201  0.1242 -0.3650 -0.3198
24227W        W41751  10.854   1.187   0.621 -0.1930  0.1458  0.0428
24228W        W41752  16.977   8.260   3.685  0.2772  0.0383  0.3635
24229W        W41753   3.938  16.355  14.324  0.0072  0.2987  0.1050
24230W        W41754  17.246   2.584  14.833 -0.1426 -0.0175  0.1759
24231W        W41755  15.099   6.117  15.397 -0.0440 -0.1153  0.1229
24232W        W41756   2.547  15.629   3.822  0.1138  0.1971  0.2316
24233W        W41757  13.074   4.816   4.170  0.2967  0.0156 -0.2840
24234W        W41758  18.004  10.738  15.306  0.4116  0.1800 -0.1330
24235W        W41759  11.525  14.493   4.447  0.1427  0.1135  0.0645
24236W        W41760   3.222   6.014  13.836 -0.1273 -0.1769  0.0224
24237W        W41761   5.259   8.023  14.948  0.1522 -0.1539 -0.2104
24238W        W41762   8.175  17.592   3.722 -0.1140  0.1042 -0.2266
24239W        W41763   6.254  13.125  10.373  0.2895 -0.0801 -0.2005
24240W        W41764   0.262   6.182   0.817  0.3122  0.2761 -0.0923
24241W        W41765  16.854   7.797  14.240  0.0414  0.1786 -0.5079
24242W        W41766  11.406   1.619  11.943 -0.0192  0.2819  0.0383
24243W        W41767   8.810  15.536  13.013  0.0184  0.1647 -0.3188
24244W        W41768  14.492   7.436  11.421  0.2125 -0.2127  0.3269
24245W        W41769  10.835   5.694  12.768  0.1311  0.1932  0.0847
24246W        W41770  14.642   9.395   0.311 -0.1923  0.1892  0.1538
24247W        W41771  10.714  12.403   2.204 -0.1212 -0.0980 -0.0978
24248W        W41772   1.534  11.079  14.068 -0.0432  0.0175  0.4528
24249W        W41773  16.578   6.990   3.974 -0.0897  0.2965  0.1305
24250W        W41774   3.927  17.405   0.732 -0.0860 -0.3066 -0.0888
24251W        W41775   8.329   6.896  14.071 -0.0717 -0.0499 -0.2772
24252W        W41776  10.575  16.371   0.233 -0.0672 -0.1813 -0.1985
24253W        W41777   7.061  16.786   4.484 -0.2107  0.1169  0.2787
24254W        W41778  16.489  12.822  11.591 -0.2037 -0.1333  0.1038
24255W        W41779  13.421   6.523   4.817 -0.1597  0.3073 -0.0438
24256W        W41780  12.973   4.217  12.555  0.1330  0.2395  0.1234
24257W        W41781  12.150  13.913  12.739  0.0943 -0.3407 -0.0107
24258W        W41782  11.574  13.306   2.941  0.1145 -0.1976 -0.4482
24259W        W41783   5.100   5.373   3.237 -0.0658  0.2472 -0.0240
24260W        W41784  15.183  15.001  12.127  0.0342 -0.2025  0.2251
24261W        W41785  17.896   2.377   0.970 -0.1381 -0.0501  0.0153
24262W        W41786   6.263   2.727   4.036 -0.1058 -0.3883  0.1188
24263W        W41787   9.006   0.476  14.638  0.0489  0.0015 -0.0664
24264W        W41788  12.565  13.886  11.699 -0.0861 -0.2367  0.4105
24265W        W41789  10.187  10.972   1.333 -0.1250 -0.2841  0.0102
24266W        W41790  10.945  11.554   3.443  0.1650 -0.3543  0.1997
24267W        W41791   9.947  10.705   2.150  0.0476 -0.2722 -0.1266
24268W        W41792   0.907   8.377  15.350 -0.0403  0.0767 -0.0881
24269W        W41793   0.301   0.577  14.806  0.0736  0.1351  0.1255
24270W        W41794  15.579  18.004   0.045  0.1533 -0.1257 -0.1646
24271W        W41795   6.276   2.616   0.587  0.2581  0.0574  0.1667
24272W        W41796   8.397  16.834   0.662  0.2857 -0.1447 -0.0582
24273W        W41797   9.762  16.638   1.058  0.1482  0.1754  0.2176
24274W        W41798   5.083  11.044  12.066 -0.2423  0.0242  0.0138
24275W        W41799  13.237  12.542   2.405  0.1630  0.1311 -0.1215
24276W        W41800   9.907   1.028   4.579  0.1768  0.2491 -0.2624
24277W        W41801  16.496  12.231  11.852  0.0416 -0.1300 -0.0641
24278W        W41802   4.059   4.069  13.582 -0.0060  0.1166 -0.2719
24279W        W41803   1.752   0.934  12.495  0.1984 -0.3481 -0.2125
24280W        W41804   3.289   8.043  15.598  0.1264  0.0402  0.2231
24281W        W41805  15.250   8.834   4.441 -0.0340 -0.1931 -0.0155
24282W        W41806   3.100   3.035  11.203  0.0236  0.1138  0.2298
24283W        W41807  10.131  16.476  13.763  0.0081 -0.0975 -0.3208
24284W        W41808  14.944  15.197   3.786  0.0048 -0.0144 -0.0596
24285W        W41809  12.384  11.554  15.461  0.0630  0.1077 -0.0104
24286W        W41810   4.969   5.745   1.024 -0.2234 -0.2265  0.3330
24287W        W41811  12.550  17.043   0.551 -0.1368 -0.1315 -0.3661
24288W        W41812   0.072   9.457   1.440 -0.4639  0.0335 -0.0117
24289W        W41813   7.139  11.624   0.011  0.0984  0.0347 -0.1131
24290W        W41814   5.227  17.760  11.882 -0.3080 -0.1845 -0.2563
24291W        W41815   9.810   0.054  15.068 -0.0590  0.2367  0.0586
24292W        W41816   0.628  13.407  12.084 -0.1125  0.1608  0.0216
24293W        W41817   1.680   6.815   2.993 -0.0624  0.0900 -0.1768
24294W        W41818  10.009   4.952  15.657 -0.0731 -0.2798  0.1309
24295W        W41819  18.009   1.076  13.403 -0.4084  0.0462 -0.1446
24296W        W41820   0.689  15.738  15.007 -0.0799 -0.1450 -0.0387
24297W        W41821  14.311   5.975  10.965  0.0673 -0.2704  0.4056
24298W        W41822   1.419   6.557  15.105  0.0649 -0.4843  0.1700
24299W        W41823   1.725   1.718   1.488 -0.0586  0.1403  0.0380
24300W        W41824   4.239  15.514   2.019  0.2347  0.0685  0.0976
24301W        W41825   8.286  12.856  15.338 -0.0335 -0.3680 -0.2701
24302W        W41826   9.957  15.422   3.560  0.2223 -0.0618  0.0080
24303W        W41827  14.600   2.971  14.766  0.1569 -0.3674 -0.1010
24304W        W41828   9.303  15.224  12.197  0.0013  0.0963  0.2988
24305W        W41829  13.960   3.373   3.697 -0.2862  0.0765 -0.0623
24306W        W41830  14.027   3.954   3.745 -0.1437 -0.1099 -0.0447
24307W        W41831  17.975  12.491   4.423  0.1710 -0.1843  0.1531
24308W        W41832  13.830   9.264  14.787  0.2853 -0.1280  0.1391
24309W        W41833   1.331   5.538   2.595 -0.1442  0.2152  0.0142
24310W        W41834  18.366   1.923  13.885 -0.0251 -0.1374  0.2172
24311W        W41835  12.481  11.849   2.546 -0.2763  0.0742 -0.2337
24312W        W41836   5.566   3.496   3.806  0.1689 -0.5357 -0.0865
24313W        W41837   9.216   2.957   0.270  0.1360  0.2208  0.2638
24314W        W41838   0.565   0.121   3.634  0.1213  0.1980  0.0015
24315W        W41839  17.661  13.406  10.928  0.1341 -0.0168 -0.0873
24316W        W41840  11.374   2.764   3.944 -0.2931  0.2582 -0.0776
24317W        W41841  12.615   8.727  11.645  0.2326 -0.2485  0.3956
24318W        W41842  13.893   0.352   2.704 -0.1317 -0.0449 -0.0378
24319W        W41843   9.576  15.313   0.857  0.2697 -0.1773  0.1763
24320W        W41844   9.973  11.022   0.891 -0.0882  0.0627 -0.0045
24321W        W41845  14.720   9.560  12.823  0.0577 -0.2396  0.1344
24322W        W41846  10.046  15.166   0.597  0.1433  0.0366 -0.2353
24323W        W41847  10.311  11.882   0.766  0.0820  0.0454 -0.0156
24324W        W41848   2.114  13.479   0.400 -0.0076 -0.3052  0.3964
24325W        W41849   1.423   1.612   1.924  0.1479  0.1158  0.2816
24326W        W41850  17.333  16.437  13.661  0.0637  0.0398  0.0683
24327W        W41851   1.887   1.391   2.044  0.0058 -0.2611  0.1972
24328W        W41852   6.131   3.964  12.042 -0.2005  0.0178 -0.2033
24329W        W41853  11.917  16.698   3.328  0.0224 -0.1083 -0.0917
24330W        W41854   8.527  14.407   3.784  0.2050  0.0617  0.0137
24331W        W41855   1.951   7.716  15.428  0.0242  0.1426 -0.0543
24332W        W41856   5.831   1.024  11.236 -0.0469 -0.0843  0.1279
24333W        W41857   8.483  11.075   2.828 -0.4316 -0.2706  0.0988
24334W        W41858  14.257   8.086  12.831 -0.0208 -0.0444  0.1365
24335W        W41859  12.600  12.681   4.417  0.0904  0.0310  0.2151
24336W        W41860  11.154  13.902  11.965 -0.3023 -0.1430 -0.0320
24337W        W41861  13.931   0.076  12.468  0.1943  0.0913  0.1037
24338W        W41862   3.756   4.866  11.429  0.0408 -0.0971 -0.2536
24339W        W41863   5.906   1.105  13.258  0.1291  0.0890 -0.1165
24340W        W41864   7.135   7.666  13.333  0.3825 -0.0692  0.0606
24341W        W41865  10.915  17.386  13.898 -0.0241 -0.1603  0.1063
24342W        W41866  10.662  11.620  12.971  0.2976  0.2416  0.1208
24343W        W41867  18.135   6.518   2.822  0.2832 -0.0544 -0.3156
24344W        W41868  11.492   6.600  12.217 -0.0808  0.3889 -0.1429
24345W        W41869  16.077  17.934   5.999 -0.2225 -0.3033  0.0333
24346W        W41870  10.149   3.947  11.551 -0.2527 -0.0548  0.2906
24347W        W41871  16.054   0.240   2.551 -0.0537  0.1730  0.3694
24348W        W41872   4.195  14.142  13.730 -0.3457 -0.2851 -0.4016
24349W        W41873   5.624   7.655  15.056  0.3289 -0.0629  0.2283
24350W        W41874  12.929  13.524   4.315 -0.2268  0.3029  0.1961
24351W        W41875   2.532   0.544  14.080  0.3067 -0.0215 -0.0286
24352W        W41876   0.380   6.378  11.713  0.0707 -0.0220 -0.4142
24353W        W41877   7.963   2.383   3.823 -0.3103 -0.1727  0.2668
24354W        W41878   8.517   9.150  11.408 -0.2098  0.0617 -0.3668
24355W        W41879   1.979  14.076  10.638 -0.3556 -0.0355  0.1958
24356W        W41880  17.653   9.673  13.417 -0.3051  0.1385 -0.0934
24357W        W41881   6.462   7.721  11.767  0.1117  0.2442 -0.4633
24358W        W41882   6.259  15.362  13.883  0.2281 -0.0270 -0.0727
24359W        W41883   9.042  11.558   5.435 -0.0547  0.1997  0.0940
24360W        W41884   1.112  14.463  12.732 -0.1676  0.0782  0.0071
24361W        W41885  17.001  15.053   1.244 -0.3130 -0.2187 -0.0266
24362W        W41886   3.449  16.491   1.524  0.1668  0.1176 -0.0746
24363W        W41887   1.124  13.742   1.158  0.2221 -0.0656  0.0932
24364W        W41888   5.333   2.595  10.065  0.0812  0.3422 -0.3601
24365W        W41889  10.691   4.652  13.059 -0.5833  0.1669  0.2624
24366W        W41890  11.344   3.114   2.055  0.1714 -0.2145  0.0450
24367W        W41891  10.206   7.251  15.281 -0.0870  0.2497  0.3735
24368W        W41892  10.717   1.914   2.623 -0.0624 -0.4079  0.3336
24369W        W41893  13.337  11.181  13.752  0.2007 -0.2493 -0.1754
24370W        W41894  13.635  10.011  13.865  0.0774  0.1636 -0.0398
24371W        W41895   1.126  15.559  10.015  0.0727  0.1307  0.1928
24372W        W41896  10.468   6.335   3.285 -0.1173  0.2729 -0.0431
24373W        W41897  12.470   4.307   0.342 -0.5436 -0.2383 -0.0933
24374W        W41898   8.921   9.294   2.323 -0.1213 -0.0282  0.0326
24375W        W41899  16.288   5.611   0.161 -0.3250  0.0019  0.1901
24376W        W41900   2.792  12.303  13.791 -0.0348  0.0498 -0.0180
24377W        W41901   9.090  11.684   3.849 -0.0616 -0.1857  0.1091
24378W        W41902   5.086   0.901   3.024 -0.0285 -0.1118 -0.0606
24379W        W41903  10.929   2.193   2.292 -0.2247  0.0620 -0.0844
24380W        W41904  16.497   2.633   1.972  0.2709  0.0257 -0.0719
24381W        W41905   1.205   4.201   2.339  0.1514 -0.2162  0.0002
24382W        W41906  15.899   2.922  11.538 -0.1826  0.0163 -0.1613
24383W        W41907  12.819  17.260  14.969 -0.1748  0.2896 -0.1009
24384W        W41908   5.302   5.199  14.374  0.3153 -0.2193  0.2239
24385W        W41909   5.522  10.153   4.221 -0.0894  0.1080 -0.4871
24386W        W41910  10.921   1.846  13.150 -0.5873  0.1689  0.1648
24387W        W41911  11.439   9.450   0.470 -0.1567 -0.1836  0.1205
24388W        W41912  15.821  10.812   2.460 -0.0964  0.2026 -0.0235
24389W        W41913  15.765  15.716   2.569  0.2371 -0.0886  0.1196
24390W        W41914   8.634   1.275   0.967  0.0063 -0.1852  0.1225
24391W        W41915  13.566  11.031   0.414 -0.3455  0.3683  0.0899
24392W        W41916  15.611   1.385   0.487  0.2157  0.1356 -0.0134
24393W        W41917  12.470  13.556  14.011 -0.2082 -0.0320 -0.0001
24394W        W41918   5.666   2.535  14.037  0.0615 -0.1139  0.1374
24395W        W41919  12.035   9.021   4.303  0.3165  0.1224  0.2725
24396W        W41920   2.641  13.691  14.811  0.2087 -0.0355  0.0600
24397W        W41921   4.927  15.135   4.080  0.3030 -0.2467 -0.2652
24398W        W41922   3.935   4.695   1.772 -0.2381 -0.1084  0.0883
24399W        W41923  12.873   6.729   3.666  0.1490  0.0185 -0.2420
24400W        W41924   1.790   1.270   4.119 -0.2424  0.1045 -0.0918
24401W        W41925  16.443  17.616  15.401 -0.1922  0.2107  0.1335
24402W        W41926   2.029   8.756   5.716 -0.3209 -0.1676  0.0592
24403W        W41927  18.059   4.987  11.757 -0.0056  0.1483 -0.0957
24404W        W41928   7.632   9.246  11.812  0.3083  0.0373  0.2291
24405W        W41929   7.358  12.808   4.526 -0.0321 -0.2541 -0.0538
24406W        W41930  14.454   6.985   3.590  0.0803  0.3168  0.2392
24407W        W41931  12.617  10.338  12.341 -0.2262  0.0654 -0.0822
24408W        W41932   1.762   3.967  15.443 -0.1591 -0.0063  0.1402
24409W        W41933   9.867   7.280   4.544 -0.0496  0.0084 -0.0251
24410W        W41934   8.332   1.325  14.289 -0.0899 -0.0036 -0.1515
24411W        W41935  15.260   6.608  14.414  0.0778  0.0663 -0.2607
24412W        W41936  14.235   2.577  15.567 -0.2536 -0.1498  0.0900
24413W        W41937  10.078  18.170   1.890  0.0698  0.1623 -0.0045
24414W        W41938  13.584  10.904  11.245 -0.0173  0.0984 -0.1524
24415W        W41939   5.012  15.251  13.223  0.1763  0.0347 -0.0650
24416W        W41940   9.324   2.726  13.329  0.0431  0.0072  0.1158
24417W        W41941   0.380   9.516  15.281  0.2195 -0.1867  0.0574
24418W        W41942   4.251  13.278  12.239 -0.0861  0.1829 -0.0635
24419W        W41943   5.494   8.022  13.653  0.2236  0.3154 -0.0716
24420W        W41944   8.970  13.480  12.613  0.0248  0.0792  0.2966
24421W        W41945  11.299  10.696   3.447 -0.1090 -0.0067  0.0915
24422W        W41946   0.292   3.048  11.958  0.3898  0.1005  0.1681
24423W        W41947  11.681   8.789  11.913  0.2897 -0.0467  0.0778
24424W        W41948  11.093   0.184  11.635  0.1609 -0.2423  0.0393
24425W        W41949  13.946   2.852  15.826 -0.2522 -0.4918  0.2270
24426W        W41950   1.522   2.791  12.601 -0.0251  0.0496 -0.3861
24427W        W41951  17.224  16.110   2.613 -0.1894  0.0708 -0.0797
24428W        W41952   1.878   8.193  15.496 -0.2914 -0.0353 -0.0274
24429W        W41953   3.627   7.734   2.588  0.0473 -0.0024 -0.2284
24430W        W41954  14.688  16.368  12.628 -0.0738 -0.1985  0.0449
24431W        W41955   6.724   7.533   1.448 -0.0865 -0.4074  0.0719
24432W        W41956  11.020  15.691   2.726 -0.0929  0.0807  0.2088
24433W        W41957   0.900   3.973  12.616  0.0235  0.1606 -0.1121
24434W        W41958  16.855   7.421  14.514  0.3454 -0.1118 -0.1327
24435W        W41959  15.666   4.259  15.671 -0.1860 -0.2306 -0.2187
24436W        W41960   7.294  12.300  11.011  0.1956  0.1233 -0.0740
24437W        W41961  11.514  17.747   3.598  0.1088  0.4954 -0.1061
24438W        W41962  13.507  13.142  13.949  0.1048 -0.1455  0.0950
24439W        W41963   4.736   9.842   0.572  0.1704  0.1214 -0.0896
24440W        W41964  17.307   9.866  15.042 -0.0896  0.1724  0.0985
24441W        W41965   8.264  11.846   3.681 -0.0633  0.1244 -0.0993
24442W        W41966   7.529  11.579   2.065 -0.1686  0.2901  0.1004
24443W        W41967   7.623   8.176  11.904 -0.1105  0.0116  0.3905
24444W        W41968   8.066   7.359   1.801  0.1037  0.1909  0.1474
24445W        W41969  16.369  15.006   2.044 -0.1192 -0.0708 -0.2229
24446W        W41970   1.269   9.734  11.794  0.3815  0.0984  0.0365
24447W        W41971  13.450   4.977   5.491  0.2798  0.4295  0.1770
24448W        W41972  12.659   0.391   1.041 -0.3221 -0.0806  0.0607
24449W        W41973  12.151  14.640  15.750  0.4525  0.3573 -0.1361
24450W        W41974   8.164  15.513  12.378 -0.1370 -0.2134  0.1003
24451W        W41975   7.844  15.992   0.556 -0.2473  0.1315 -0.0397
24452W        W41976   7.403   5.510   4.383 -0.1825  0.2039  0.6188
24453W        W41977   5.030  10.776  14.509  0.0621  0.1181 -0.1823
24454W        W41978  16.203  14.843  13.103  0.1703  0.0794 -0.1629
24455W        W41979  16.000  17.020  12.069  0.2743 -0.0069  0.2228
24456W        W41980   1.523  14.990   4.467  0.0044  0.1958  0.1594
24457W        W41981  10.910  15.704   1.246  0.3160  0.3323  0.1131
24458W        W41982  13.380  17.587   2.352  0.2416 -0.0025  0.1624
24459W        W41983   3.222  12.680   0.904 -0.1431  0.2397  0.1500
24460W        W41984   8.274  17.137   3.713 -0.0318 -0.0382  0.0282
24461W        W41985  17.291  13.261  14.705  0.1049  0.0696 -0.0427
24462W        W41986  16.817   6.859  12.762 -0.0087  0.1077 -0.1023
24463W        W41987  13.043   2.329   5.167  0.1674  0.3372 -0.1321
24464W        W41988   2.837  10.224   0.402  0.0471  0.1582 -0.0378
24465W        W41989  13.625   4.779  14.652 -0.0187  0.0151  0.2446
24466W        W41990  12.535   9.682  15.496 -0.0731 -0.3670 -0.3656
24467W        W41991   7.676   9.259   0.517  0.1075  0.1608 -0.1613
24468W        W41992  13.471   7.951   4.877  0.1995  0.0194  0.0180
24469W        W41993   4.326   9.618  12.426  0.0560  0.0314 -0.3389
24470W        W41994  11.248   0.280   0.854  0.1406  0.1229 -0.0493
24471W        W41995   6.330   0.060   2.833  0.1200 -0.0551  0.2182
24472W        W41996   7.436  13.146  15.403  0.3802 -0.1475  0.1539
24473W        W41997   7.187  16.906  14.896  0.2007  0.1372  0.0489
24474W        W41998   9.871  14.775   4.512  0.3471  0.1810  0.3190
24475W        W41999  13.506   7.055  15.774  0.0650  0.0403 -0.0197
24476W        W42000  11.348  10.430   3.053 -0.0844  0.1176  0.2991
24477W        W42001   6.814   3.460  12.968 -0.0787  0.1756  0.0818
24478W        W42002  11.655   0.089   0.476  0.2246 -0.2926 -0.0747
24479W        W42003   2.108  11.661  11.814  0.0403  0.1165  0.0093
24480W        W42004   1.484   4.666   0.565 -0.0758 -0.3683  0.1389
24481W        W42005   1.000  14.367   3.210  0.1224 -0.0194 -0.1354
24482W        W42006  16.975   8.699  14.030  0.4379 -0.0352 -0.0630
24483W        W42007  15.448   8.054  10.403  0.1923  0.1539 -0.4756
24484W        W42008  11.464   0.018   1.773 -0.2915 -0.0920  0.0382
24485W        W42009   8.962   6.583  13.223 -0.1780 -0.0933 -0.3397
24486W        W42010   9.395  13.380  12.392  0.1763  0.1453 -0.1147
24487W        W42011  11.221  14.821   1.144 -0.0938  0.1369  0.2598
24488W        W42012  14.037   1.652   1.620  0.0290  0.1317 -0.1646
24489W        W42013  14.501  13.625  11.033  0.0073  0.0908  0.1232
24490W        W42014   2.844  10.385   2.762 -0.0994  0.0990 -0.1240
24491W        W42015  14.769   5.506  12.353 -0.1552 -0.2058  0.0349
24492W        W42016   1.084   1.952  12.133 -0.0167  0.1831 -0.1142
24493W        W42017  14.161  10.351   0.882  0.1692  0.0881  0.0580
24494W        W42018  16.999   6.735  14.265 -0.0219 -0.0853  0.0061
24495W        W42019   0.642   9.623   0.792  0.0777 -0.0251 -0.2056
24496W        W42020  16.872  11.619   1.939  0.2004 -0.0462 -0.2423
24497W        W42021   0.875   9.655   3.705  0.1760  0.0015  0.1158
24498W        W42022   1.818   0.841   2.122  0.1455 -0.2667 -0.5931
24499W        W42023   0.164   7.441  12.706 -0.2703  0.1591  0.1148
24500W        W42024   3.408  10.905  14.069 -0.0979  0.0106  0.1372
24501W        W42025  13.492  13.909   3.055 -0.0225 -0.0073  0.1852
24502W        W42026  10.579  17.934  11.820  0.0017 -0.0406  0.0269
24503W        W42027   5.896  14.978  13.871  0.0334  0.0851  0.1931
24504W        W42028  13.006  13.028   4.218  0.1118 -0.1657 -0.0369
24505W        W42029   8.284  17.099  11.531  0.0771  0.1718 -0.0238
24506W        W42030  15.504   7.715   2.630  0.0077 -0.0709  0.1319
24507W        W42031  16.754   2.785   4.029 -0.0779 -0.2051 -0.4498
24508W        W42032  10.905  17.275  12.987  0.1280  0.0509  0.0871
24509W        W42033   6.314  17.946  12.640  0.0074 -0.1838  0.2387
24510W        W42034  11.330   4.239  14.645 -0.1617 -0.0000 -0.2175
24511W        W42035  11.493   7.023  15.464  0.3919 -0.0031 -0.3090
24512W        W42036   4.645   6.525   3.571  0.1153  0.0266 -0.1555
24513W        W42037   1.673   4.176   0.481 -0.0613  0.0680 -0.0778
24514W        W42038  13.803  12.461   1.706  0.3007  0.0940  0.0255
24515W        W42039  15.493  11.590  12.474  0.0454 -0.1628 -0.0651
24516W        W42040   9.601   0.481   1.490  0.0537  0.0431 -0.1277
24517W        W42041   5.206  14.852   4.352  0.0229 -0.2657 -0.2067
24518W        W42042   0.693   3.710   1.272 -0.0754  0.1651 -0.1594
24519W        W42043   2.830   2.137  14.211 -0.2583  0.0962  0.1014
24520W        W42044   8.970   9.726   3.092 -0.4116 -0.2891 -0.0069
24521W        W42045  17.397  14.150  14.802 -0.1973 -0.0118  0.1351
24522W        W42046  18.242  10.593  11.577 -0.1083  0.4743  0.1102
24523W        W42047   7.942  13.343   0.292  0.0657  0.0929 -0.1632
24524W        W42048   5.171   9.582  11.735  0.0594  0.1507  0.1161
24525W        W42049  15.862   0.678  13.801  0.0811 -0.1040  0.0168
24526W        W42050   8.516  11.799  12.856  0.0589 -0.0490  0.1023
24527W        W42051  12.217   9.391   1.543  0.1242 -0.0655  0.3943
24528W        W42052   5.585  13.416   2.562  0.0651  0.3688  0.0282
24529W        W42053   3.705  12.112  12.283 -0.2648 -0.1586 -0.0444
24530W        W42054  14.179   6.946   0.556 -0.3035 -0.1618  0.1312
24531W        W42055  14.490   5.105  12.535  0.0055 -0.0276  0.1255
24532W        W42056  16.388   3.661   1.545 -0.0117  0.1177  0.0288
24533W        W42057  16.820   9.691   3.628  0.0516  0.0830  0.1720
24534W        W42058  18.067   7.080   4.976 -0.2199 -0.1673  0.1750
24535W        W42059  12.654   6.831   4.290 -0.1443  0.0204  0.2244
24536W        W42060  14.157  10.556   1.950  0.2374 -0.0850  0.1735
24537W        W42061   8.117  10.886   1.921  0.1604 -0.0182  0.2763
24538W        W42062   0.584   5.072   2.843 -0.0675 -0.1215  0.0064
24539W        W42063   6.781  17.606  13.825  0.2825  0.0678 -0.0147
24540W        W42064  15.870  13.374   1.679 -0.1328  0.1154 -0.1989
24541W        W42065   0.601   0.753  14.297 -0.1615 -0.6115 -0.1459
24542W        W42066   8.328  16.063  11.505  0.0826 -0.1848  0.0836
24543W        W42067   0.165  11.005   3.820  0.1702  0.0742 -0.2537
24544W        W42068  11.699   5.046  14.133  0.1872  0.1195 -0.1888
24545W        W42069   8.310   4.859   0.862  0.0587  0.3152 -0.4740
24546W        W42070   6.572  12.332   0.799  0.1407 -0.1800  0.0994
24547W        W42071  10.494  14.667   1.849 -0.1127 -0.0404 -0.0715
24548W        W42072  14.189  14.589   3.918  0.1075 -0.0880  0.0975
24549W        W42073  12.846   6.506   0.617 -0.0691 -0.1259  0.1527
24550W        W42074  16.899  10.182  14.914 -0.2245 -0.3066  0.0336
24551W        W42075  16.986  12.477  10.673 -0.2012 -0.1604  0.0281
24552W        W42076   6.925   2.155  15.511  0.0710 -0.1050 -0.0391
24553W        W42077   5.395  18.148   0.954  0.1492 -0.1030  0.1578
24554W        W42078  16.479  16.611  12.571 -0.0892 -0.0849 -0.4408
24555W        W42079   6.325  15.629  11.372  0.0819  0.2438 -0.0283
24556W        W42080   4.360   1.296   1.347  0.0539  0.0808  0.0206
24557W        W42081   5.490   3.021  12.428  0.1348  0.1610 -0.1513
24558W        W42082  15.729   4.988   2.658  0.2203  0.2588 -0.1514
24559W        W42083  13.804   2.608   4.398 -0.0219 -0.0571  0.0304
24560W        W42084   8.011  14.155   4.388 -0.1835  0.4709  0.1555
24561W        W42085   9.637   3.207   4.838  0.0078  0.3225 -0.2291
24562W        W42086   8.664  15.452   1.556  0.1133  0.0458 -0.6530
24563W        W42087  13.685   5.859  13.089 -0.0843  0.0198 -0.0672
24564W        W42088  11.395   7.864  13.801  0.1987  0.0392  0.0134
24565W        W42089   5.526  17.310  11.594  0.0627 -0.1558 -0.1256
24566W        W42090   6.409  15.269  11.895 -0.0003 -0.0265  0.1094
24567W        W42091  17.649  14.680   4.302 -0.1817 -0.1783 -0.1432
24568W        W42092   0.360  18.229   0.192  0.2685 -0.3114 -0.3855
24569W        W42093   4.931   5.285   4.290  0.0993  0.1201  0.1130
24570W        W42094  12.769  11.041  15.549  0.0275  0.2657 -0.0355
24571W        W42095  16.861   9.582  12.012 -0.4640  0.0084  0.1154
24572W        W42096  15.844   3.499   0.777 -0.1937 -0.0680  0.2997
24573W        W42097   0.042  11.463  15.498  0.0132 -0.2780 -0.1022
24574W        W42098   3.302   8.293   1.593  0.3765 -0.1302 -0.2914
24575W        W42099  12.496  11.816   0.215  0.0106  0.1493 -0.0503
24576W        W42100  11.266  12.031  12.216 -0.0614  0.2174  0.3381
24577W        W42101  12.073   1.431  13.806  0.0177  0.2132 -0.1654
24578W        W42102  11.064  10.721   1.656  0.0896  0.1808  0.0324
24579W        W42103  15.359   1.144  11.734  0.3884  0.2990  0.2335
24580W        W42104   4.393   3.349  15.288 -0.2373  0.0625 -0.1420
24581W        W42105   7.688  15.892   0.055 -0.2366 -0.0100 -0.1136
24582W        W42106   6.673  12.427   1.354 -0.0222  0.5255 -0.1844
24583W        W42107  11.485   8.565   4.429 -0.1846 -0.2289  0.1907
24584W        W42108  15.127   9.957  14.196  0.0552  0.2638 -0.6071
24585W        W42109  12.894  17.430   4.070  0.0995 -0.1745 -0.1314
24586W        W42110   1.815   1.822  11.367  0.0270  0.0741  0.0253
24587W        W42111   0.873  14.983  12.921 -0.0010 -0.0801 -0.3286
24588W        W42112   0.894  13.994  13.655 -0.2331  0.1597 -0.2631
24589W        W42113  17.690  18.367  15.606 -0.0845  0.0937 -0.0027
24590W        W42114  12.881  17.258  13.480  0.0408 -0.0512 -0.2047
24591W        W42115   2.346   8.130   1.338  0.1457  0.0849 -0.0648
24592W        W42116   3.207   6.511  12.265 -0.0392 -0.1786  0.3712
24593W        W42117  14.989   2.745   2.426  0.0819 -0.0475 -0.2988
24594W        W42118   8.540  14.667   0.533 -0.1033  0.0134 -0.0694
24595W        W42119   8.173  18.076   2.597 -0.2373 -0.2688 -0.3116
24596W        W42120   9.516  13.062  13.363 -0.1659  0.1787  0.3768
24597W        W42121   2.768  12.800  14.069 -0.0305  0.1728 -0.6619
24598W        W42122   3.280   3.961  11.307  0.2205 -0.0229 -0.2722
24599W        W42123  16.715   0.967   4.766 -0.0135 -0.2402 -0.3255
24600W        W42124  14.555  13.787   0.104 -0.1414  0.2503  0.0977
24601W        W42125  17.016  13.930   3.172 -0.1946 -0.1111  0.1795
24602W        W42126  13.533   4.460  14.299  0.2418  0.0073  0.0753
24603W        W42127   1.727  14.247   4.825 -0.1259 -0.1220  0.1502
24604W        W42128  16.760  10.186  15.808  0.2309  0.0252  0.4045
24605W        W42129   0.987   8.325   4.447  0.0960  0.1100  0.0817
24606W        W42130   3.395   3.195   0.035  0.3373 -0.0292  0.2902
24607W        W42131   2.024  17.151  11.158  0.0228 -0.0938 -0.1225
24608W        W42132   5.213   1.484   5.796  0.3184 -0.2710 -0.1087
24609W        W42133  10.674  12.102  11.404 -0.2237 -0.4979 -0.1690
24610W        W42134   2.661  15.811  11.674  0.1030  0.1356  0.1453
24611W        W42135  16.366   1.287   4.369  0.2244 -0.2267  0.1067
24612W        W42136   0.605   6.972   1.876 -0.0788  0.0411  0.1803
24613W        W42137  16.957   1.335   2.365 -0.0497 -0.1820  0.0924
24614W        W42138   0.678   1.717  10.829 -0.1243 -0.1274 -0.2044
24615W        W42139   1.633  15.562  13.578  0.2695  0.4629 -0.0418
24616W        W42140   4.161  15.562  12.452 -0.1194 -0.1865  0.1254
24617W        W42141   7.189  14.329   3.785 -0.2138 -0.1525  0.1478
24618W        W42142   4.898   1.722  10.357 -0.1446  0.1289 -0.1475
24619W        W42143  13.720   8.766  13.442  0.2393 -0.0260  0.0459
24620W        W42144  16.026  15.057  13.856 -0.0558 -0.1785  0.0404
24621W        W42145   2.010  10.959   5.184 -0.2085  0.2867  0.0718
24622W        W42146   9.623  11.131  12.457 -0.0289 -0.1093  0.2816
24623W        W42147   2.834   0.777   2.689 -0.0416  0.1035 -0.0288
24624W        W42148  14.297   0.825   3.575  0.3838  0.1610  0.2473
24625W        W42149   4.346  10.648   4.120 -0.1086  0.2878  0.0114
24626W        W42150  13.984   9.323   4.910 -0.2978 -0.0060 -0.1888
24627W        W42151  14.592  10.089   2.778  0.1361  0.2981  0.3697
24628W        W42152   5.542   3.444   1.676 -0.2988 -0.0803 -0.3771
24629W        W42153   7.273  15.285  12.940  0.0254 -0.1427 -0.3595
24630W        W42154   2.038   0.415  11.738 -0.0106 -0.1232  0.0689
24631W        W42155  13.225   5.633   3.984 -0.1213 -0.1808 -0.0309
24632W        W42156   6.486   8.238   4.258  0.3132 -0.0794 -0.1319
24633W        W42157   8.689   0.594   1.145 -0.2516 -0.2205 -0.0243
24634W        W42158   4.186  14.878   2.323 -0.0171 -0.1600 -0.0142
24635W        W42159  15.173  14.537  12.005  0.1586 -0.2520  0.2441
24636W        W42160   1.707  17.418  13.062 -0.1612 -0.1295 -0.4324
24637W        W42161  16.047   7.712  15.592  0.1470  0.0750 -0.1215
24638W        W42162  18.191   8.332  10.818  0.0047 -0.0099  0.4651
24639W        W42163  11.258   8.747   1.790  0.3448 -0.0316 -0.3422
24640W        W42164  12.457   5.332  11.424 -0.2079 -0.1122 -0.0702
24641W        W42165  18.072  12.805  14.705 -0.0365 -0.0454 -0.2818
24642W        W42166   0.444   6.350  14.516  0.1502  0.0677 -0.0303
24643W        W42167   7.437  15.188   1.622  0.2486  0.0863  0.2567
24644W        W42168  16.059   9.167   5.123 -0.1545 -0.1670 -0.3124
24645W        W42169   4.795  12.335   0.179  0.3004 -0.3495 -0.0334
24646W        W42170   5.997  15.078  12.825  0.0686 -0.1915 -0.0818
24647W        W42171  15.877  10.856   4.308 -0.1793 -0.1611  0.1176
24648W        W42172   5.354   5.661   4.469  0.2100  0.2185  0.0168
24649W        W42173  12.671  16.372   0.600  0.0910 -0.0378 -0.1496
24650W        W42174   8.140   3.023   0.858 -0.0217 -0.0013  0.0897
24651W        W42175   3.612  10.603   3.183  0.0955 -0.1892 -0.0346
24652W        W42176  13.714   4.374   4.157  0.0611 -0.0911  0.0801
24653W        W42177   4.133   3.045  12.811 -0.2452 -0.4053  0.1590
24654W        W42178  10.632   3.802   2.502  0.0445  0.0933  0.1760
24655W        W42179   5.397   3.858  14.642 -0.0456 -0.0529  0.1266
24656W        W42180   1.714  11.302   1.958 -0.1614  0.0620 -0.1684
24657W        W42181   7.551   8.722  12.715  0.1792  0.1505 -0.1734
24658W        W42182  15.376   9.153   3.922  0.1613  0.2359 -0.1301
24659W        W42183  17.250   5.193   4.366  0.1976  0.0169 -0.3321
24660W        W42184   6.402   5.581  12.664 -0.2251 -0.1514  0.3696
24661W        W42185   7.961  13.929   1.919  0.1819 -0.0477  0.0537
24662W        W42186   0.071   9.901   3.032  0.0909  0.3316  0.0295
24663W        W42187  13.751  17.802   0.100 -0.1669 -0.0088 -0.0110
24664W        W42188   4.201   2.320  12.078  0.0341  0.2458  0.3117
24665W        W42189  13.250   7.846   1.905 -0.3317  0.1337  0.1307
24666W        W42190   0.854  14.714  10.808 -0.1057  0.0274 -0.3233
24667W        W42191  14.686  14.561  12.096 -0.0874 -0.1286  0.0461
24668W        W42192   2.560   0.269  12.623 -0.2703  0.3215  0.3021
24669W        W42193  16.204   6.131   3.335  0.1318 -0.0978  0.1891
24670W        W42194  12.095   0.436   0.715  0.1965 -0.1287  0.2717
24671W        W42195  11.094  11.505  12.116 -0.2761 -0.2205 -0.2955
24672W        W42196  16.271   1.466  14.831  0.1516 -0.4985  0.2019
24673W        W42197  15.297   5.995  15.808 -0.2911  0.1998  0.0957
24674W        W42198   7.217   1.127   5.244 -0.2928  0.0961  0.0526
24675W        W42199   8.086  10.638   2.382 -0.1325 -0.0960 -0.2077
24676W        W42200   2.806  13.009  15.560  0.1004  0.2420  0.0538
24677W        W42201  18.194   0.364  12.571 -0.0201 -0.0905  0.1665
24678W        W42202   2.253   1.412  14.513 -0.0426  0.5000 -0.3217
24679W        W42203  13.614  18.384  14.791 -0.2651 -0.1403 -0.3900
24680W        W42204   9.026   4.943  15.273 -0.0692 -0.0218  0.1616
24681W        W42205  11.457  10.570  14.030  0.1457  0.1512 -0.0250
24682W        W42206   8.025  14.210   3.895  0.1511 -0.1891 -0.0308
24683W        W42207   5.612   9.781  15.673  0.1082 -0.4537 -0.0809
24684W        W42208  12.169  13.127   1.604  0.1120  0.0880  0.1172
24685W        W42209  11.242   9.874   4.361  0.0749 -0.0006 -0.0840
24686W        W42210  13.858   9.577  12.196 -0.0297  0.1619  0.2904
24687W        W42211   5.717   7.138   1.934 -0.1555  0.1850  0.2201
24688W        W42212  14.847  16.232  11.645  0.0367  0.0158 -0.0397
24689W        W42213  15.989  14.327   2.839 -0.0824 -0.1510  0.2262
24690W        W42214   5.245  11.781  11.366  0.0050  0.1133 -0.0223
24691W        W42215  16.449  15.012   1.159  0.0391 -0.0616 -0.3620
24692W        W42216  16.557  10.819   3.512 -0.1123 -0.1427 -0.1982
24693W        W42217  11.320  16.211   2.521 -0.1711 -0.1217 -0.0730
24694W        W42218   0.241   0.548   5.767 -0.2346  0.2135  0.1547
24695W        W42219   0.559  16.636   1.792  0.2588  0.0341 -0.2166
24696W        W42220   6.257   1.763  10.836  0.2822 -0.0133  0.0831
24697W        W42221   4.379   2.357   4.471 -0.2784 -0.1952 -0.1378
24698W        W42222  12.233  10.165   0.202  0.2511 -0.0578 -0.0807
24699W        W42223  15.960  10.499   1.294 -0.3731 -0.3401  0.0564
24700W        W42224  16.731   7.123   4.936 -0.0550  0.1057  0.4462
24701W        W42225  13.497  14.269   2.285  0.1282 -0.2954  0.1659
24702W        W42226  16.687  14.316   2.988  0.0432  0.1036  0.3894
24703W        W42227   6.917  17.567   5.774 -0.2667 -0.1705 -0.1902
24704W        W42228   3.730   3.819   4.354 -0.1125 -0.0710 -0.3353
24705W        W42229  13.666  13.323  13.213  0.0621 -0.2098  0.1912
24706W        W42230   6.153   9.348  12.601  0.1857  0.1302  0.4436
24707W        W42231  11.528  13.872   0.517 -0.0144 -0.0546  0.0754
24708W        W42232  12.606   5.056   3.378  0.1617  0.1565 -0.1619
24709W        W42233  15.427   6.717   1.167 -0.1690 -0.0393 -0.0900
24710W        W42234  16.133  10.104  12.451  0.2984  0.0949  0.2083
24711W        W42235  14.551  13.788  13.834  0.1243  0.0368  0.2522
24712W        W42236   5.286   5.168  14.884  0.0888 -0.1620  0.1724
24713W        W42237  14.776  16.576  15.182  0.0206  0.1558  0.2922
24714W        W42238   7.800   7.713  12.664  0.0139 -0.2233  0.1267
24715W        W42239  11.758  14.941   1.773 -0.2503 -0.1701 -0.1077
24716W        W42240  16.472   7.151  10.833 -0.1667 -0.1515 -0.1151
24717W        W42241  10.444  18.170   0.046  0.0969 -0.0628 -0.0495
24718W        W42242  18.022  15.154   0.217  0.0671 -0.0053 -0.1260
24719W        W42243   3.423  13.530  14.051 -0.2835  0.0552 -0.0485
24720W        W42244   6.040  15.766  15.560  0.0862 -0.1702  0.0461
24721W        W42245   8.969   5.880  12.697 -0.3473 -0.2448 -0.0763
24722W        W42246   7.611  12.870   0.516 -0.0503 -0.0949 -0.0723
24723W        W42247   7.118   4.380  12.753  0.1179  0.1888 -0.1776
24724W        W42248  14.725  16.404   3.780  0.1989 -0.1789  0.0343
24725W        W42249   9.744   1.491  13.115 -0.1463 -0.2333 -0.0023
24726W        W42250  11.699   9.923   3.026 -0.1936  0.0935  0.1785
24727W        W42251  11.969  18.404   2.374 -0.0116  0.0079 -0.0178
24728W        W42252   5.422   1.206   3.306  0.2127  0.1124 -0.3003
24729W        W42253  13.125   5.474  14.166 -0.0284 -0.0465 -0.2817
24730W        W42254  16.913  15.640   1.858  0.1204 -0.0321  0.1488
24731W        W42255  14.609   9.661  12.299  0.2068 -0.0164  0.4780
24732W        W42256   9.495   1.551  15.777 -0.0236  0.2950  0.1957
24733W        W42257  14.604   3.916  14.859  0.0350  0.1216 -0.2798
24734W        W42258  13.908  11.993   0.673 -0.0291  0.0539  0.0864
24735W        W42259  15.075  14.722   3.586 -0.3587  0.1708  0.0036
24736W        W42260   0.825  15.188  10.932  0.1916  0.0472  0.0565
24737W        W42261   8.572  16.187  11.903  0.0929 -0.3089 -0.0222
24738W        W42262   5.556  18.124  14.965  0.2027  0.2944 -0.0774
24739W        W42263  10.799  10.082   0.325  0.0284  0.1886  0.4709
24740W        W42264   8.941  15.916   1.776  0.0278  0.1308 -0.1371
24741W        W42265  10.113   9.128   3.227  0.0198 -0.0965  0.2338
24742W        W42266   2.352  16.068  15.856 -0.2649  0.1289  0.0582
24743W        W42267   0.297   3.408   1.145 -0.2282  0.1619 -0.0995
24744W        W42268   4.003   1.127  10.521 -0.1989  0.0399  0.2129
24745W        W42269   5.924   8.843   0.191  0.2009 -0.2850  0.4925
24746W        W42270   3.679   5.998  12.405  0.2511  0.2774 -0.1057
24747W        W42271   2.099   5.931  13.483 -0.3290 -0.1529 -0.0413
24748W        W42272  13.805   7.806  15.069  0.4431  0.0599 -0.2012
24749W        W42273  15.342   1.179   1.938 -0.0345  0.0506  0.1438
24750W        W42274   3.076   0.899   3.168 -0.1278  0.1324  0.1680
24751W        W42275   2.713   9.740   0.004  0.0799  0.2359 -0.0997
24752W        W42276  17.420   8.251   5.337  0.1628  0.0599  0.3552
24753W        W42277   2.440   3.306  13.584 -0.0443 -0.1117  0.1317
24754W        W42278  17.501  17.610  13.046 -0.1667 -0.1701  0.0771
24755W        W42279  10.506   4.539   4.543  0.0349 -0.1155  0.0792
24756W        W42280   2.492   8.843  14.566  0.0048  0.0875 -0.0438
24757W        W42281  18.162   0.340   3.122  0.1368  0.1691  0.1416
24758W        W42282   4.945   7.256  15.264  0.1685  0.0131  0.1907
24759W        W42283   5.316  13.898   4.020  0.0862 -0.0525 -0.4361
24760W        W42284  11.299   2.755   1.769  0.4835  0.1176  0.0319
24761W        W42285   4.634  17.758  12.728 -0.1921  0.1705 -0.3680
24762W        W42286   9.008  17.995  15.178  0.1657  0.2267 -0.0155
24763W        W42287   8.591   0.523  11.367 -0.1322 -0.3437 -0.0145
24764W        W42288   4.604   7.727   2.436  0.3695 -0.0114 -0.1884
24765W        W42289  17.246   9.578  14.218  0.3232 -0.0939 -0.0396
24766W        W42290  11.712   0.666  15.361  0.1875 -0.1285  0.2629
24767W        W42291   7.208  10.716  10.178  0.0704  0.1880 -0.2505
24768W        W42292  15.571   6.767  13.013 -0.1875 -0.1255 -0.2408
24769W        W42293  15.814  14.421  12.811 -0.2257  0.4522 -0.1116
24770W        W42294  11.935  17.225  12.092  0.0538  0.1584  0.0761
24771W        W42295   9.186  14.706  14.585  0.1553 -0.0260  0.2536
24772W        W42296  15.087   2.447   1.537 -0.1129 -0.3760 -0.4240
24773W        W42297  15.787  16.037   2.960  0.0158 -0.3402 -0.0928
24774W        W42298   4.733   9.722  10.965 -0.0608 -0.0603  0.0412
24775W        W42299   7.275  11.962   1.974 -0.0359 -0.1131 -0.2061
24776W        W42300  15.719   6.228  15.717  0.1720  0.1419  0.0861
24777W        W42301   3.983   6.735  14.507 -0.1470 -0.0519 -0.2247
24778W        W42302   7.065   5.318  12.744 -0.0592 -0.2839  0.1677
24779W        W42303  12.082   9.371   5.035 -0.3125 -0.0364  0.0781
24780W        W42304  13.615  17.871   1.993  0.1944  0.1877 -0.0177
24781W        W42305  14.395   0.414   4.756 -0.1653  0.5329 -0.2351
24782W        W42306   6.893   2.958  15.565 -0.0322  0.0997 -0.1480
24783W        W42307  11.473   2.358  15.183  0.1911 -0.2934 -0.0041
24784W        W42308   0.096   8.477   2.893 -0.0176 -0.0724 -0.0400
24785W        W42309  14.894   6.287  11.504  0.0446  0.2299  0.0294
24786W        W42310   0.411  14.723   0.901  0.0507 -0.1138  0.2195
24787W        W42311  11.300   4.653   3.629  0.0844  0.1334 -0.2359
24788W        W42312   9.453  12.367   3.399 -0.1765 -0.3485 -0.1125
24789W        W42313  15.885  13.684  14.665 -0.3702 -0.0410  0.2249
24790W        W42314  17.894  15.034   1.320  0.0402 -0.0133 -0.0204
24791W        W42315  12.943   3.355  14.699  0.0546 -0.1149 -0.0191
24792W        W42316   7.549  14.382   4.239 -0.0315  0.1378  0.1476
24793W        W42317  16.794   5.655   0.946  0.1096 -0.1104 -0.1873
24794W        W42318   8.636   5.364   4.128  0.0520 -0.1181  0.3119
24795W        W42319  12.888  17.111   0.033 -0.1870 -0.2119  0.0865
24796W        W42320   5.242   9.335   2.314 -0.2489  0.0397 -0.1494
24797W        W42321   7.255  10.651  12.734  0.1545  0.0182 -0.1957
24798W        W42322  18.334   2.317   2.082  0.1735  0.0820 -0.2926
24799W        W42323  13.905   4.318   2.264  0.2605  0.0506 -0.0567
24800W        W42324   9.751  15.880  13.144 -0.0331 -0.0333  0.3297
24801W        W42325   7.534   6.154  12.354  0.1956  0.0721 -0.0780
24802W        W42326  18.177  10.091  11.136  0.2227  0.2466 -0.1226
24803W        W42327   4.714   6.106   1.259  0.1119 -0.0890 -0.3026
24804W        W42328  12.298  14.895  14.951 -0.1086 -0.0579  0.0043
24805W        W42329   2.370   3.393   4.412 -0.1430  0.0729 -0.1765
24806W        W42330   2.513  12.304   3.666  0.3533  0.2178 -0.0104
24807W        W42331   3.743   7.167  14.776  0.2224  0.0487 -0.0829
24808W        W42332   3.635  11.930   1.229  0.0273 -0.0955  0.3003
24809W        W42333  11.463  17.680  12.162 -0.2049 -0.0377  0.0523
24810W        W42334   2.359  13.823   2.579  0.0021 -0.2186  0.1640
24811W        W42335  11.649   0.574   0.438  0.2315 -0.1793 -0.2953
24812W        W42336   1.201  12.015   3.020  0.1500  0.0306  0.0431
24813W        W42337  10.619  15.067   3.916 -0.5349  0.0384  0.1489
24814W        W42338  12.052  13.132   2.441 -0.1155  0.4330 -0.1781
24815W        W42339  15.440  14.105   1.803  0.1703 -0.0787  0.2116
24816W        W42340   9.018  10.373  15.385 -0.0236 -0.2683  0.1153
24817W        W42341   1.431   6.241  11.880 -0.2709 -0.2410  0.1742
24818W        W42342  16.768   2.399  11.520  0.1193 -0.1524 -0.1290
24819W        W42343   2.429  10.202  15.805  0.0487 -0.4104 -0.1517
24820W        W42344   0.210   4.998  11.663  0.0687  0.4809 -0.2860
24821W        W42345   0.615   9.781  13.795  0.1433 -0.0512  0.1344
24822W        W42346  10.438  16.413  12.573 -0.0715 -0.2532  0.0965
24823W        W42347   4.712  14.412   2.083  0.0081  0.0969  0.0559
24824W        W42348  17.187  11.596   0.280  0.0564 -0.2150 -0.1111
24825W        W42349   0.759  17.036   0.492  0.4221 -0.0550  0.1705
24826W        W42350  17.626   0.745  11.319  0.4976  0.0379 -0.2970
24827W        W42351  16.445  18.018   0.548  0.5007 -0.1082  0.0088
24828W        W42352   2.198   3.901   1.183 -0.1038  0.3701 -0.1563
24829W        W42353   5.055   5.563  15.065 -0.0425  0.1639  0.2121
24830W        W42354  17.195  16.684   2.024 -0.4423  0.1437 -0.3577
24831W        W42355   4.728   9.494  15.354 -0.0872 -0.2367 -0.0423
24832W        W42356   4.544  11.086   4.249 -0.3390  0.1739 -0.2804
24833W        W42357  15.612  16.413   3.306  0.1617  0.0817 -0.1701
24834W        W42358  12.022   7.063  14.018 -0.1641 -0.2936  0.5115
24835W        W42359  17.802  14.325  13.140 -0.2202  0.3013 -0.0893
24836W        W42360   1.329  14.178   4.058  0.2518  0.3153  0.0114
24837W        W42361  15.251  16.572   2.233 -0.3167  0.1137 -0.1349
24838W        W42362  13.545  18.298   1.306  0.0894  0.0401  0.0789
24839W        W42363  11.682   3.936  13.669 -0.0880  0.1682 -0.0507
24840W        W42364  17.307   1.696   4.527 -0.2122 -0.0325  0.0315
24841W        W42365   2.746  18.350   3.083 -0.1192 -0.1452 -0.1049
24842W        W42366   7.300   0.654  12.458  0.2361  0.2039  0.3068
24843W        W42367   9.335   4.800  11.123 -0.0773  0.0577  0.1194
24844W        W42368  12.856   8.719   3.395  0.2082  0.0899  0.3018
24845W        W42369   7.623   2.638  14.313  0.0765  0.2120  0.2467
24846W        W42370   1.135   6.729   1.779 -0.1368  0.1332  0.2902
24847W        W42371   9.456  10.899  13.482  0.2267 -0.0659  0.0651
24848W        W42372   3.073   2.812  10.748  0.2399 -0.3399 -0.2932
24849W        W42373   4.971  15.944   3.519  0.2726  0.0543 -0.2467
24850W        W42374  16.178  14.526   4.117  0.2780  0.0416  0.1984
24851W        W42375   6.563   4.639  12.124 -0.1702  0.1732 -0.0448
24852W        W42376  16.402  16.628  11.060  0.0292 -0.0489 -0.1141
24853W        W42377   7.263  16.322   4.095  0.4545 -0.1971  0.1003
24854W        W42378   6.241   1.909   1.275 -0.1924 -0.1354 -0.0200
24855W        W42379  16.896  14.853   2.886  0.0221  0.0376 -0.1215
24856W        W42380  12.489   3.813   3.897 -0.1331  0.1065  0.0671
24857W        W42381  16.120   0.817  12.631  0.0099 -0.2490  0.2799
24858W        W42382   1.895   0.258   4.127  0.2688  0.2563 -0.1418
24859W        W42383  13.780   1.087   6.175  0.3157  0.2050  0.1918
24860W        W42384  10.979   8.728  13.471  0.0925 -0.0693 -0.0945
24861W        W42385  15.333   1.545   2.674  0.0675  0.3523 -0.1227
24862W        W42386   4.362   0.187  15.804  0.3966  0.0369 -0.0427
24863W        W42387   1.254  13.442   1.591  0.1581 -0.3146  0.1023
24864W        W42388   3.763   2.508  10.053  0.3722 -0.0010 -0.0751
24865W        W42389   1.018   3.875   1.649  0.0549 -0.3102 -0.0663
24866W        W42390  10.354   1.486  13.409 -0.1524 -0.1135  0.0652
24867W        W42391   6.733  18.262  11.859 -0.2818 -0.0455  0.1363
24868W        W42392   2.017  12.492  14.421 -0.1952  0.0273  0.2508
24869W        W42393  10.312   0.085  11.236  0.0518  0.3516  0.1205
24870W        W42394  10.672  13.803  14.501  0.0208  0.0255  0.0516
24871W        W42395   2.047  17.311   2.207 -0.1234 -0.1666  0.1276
24872W        W42396   4.763   8.682  14.609  0.1845 -0.2162 -0.0576
24873W        W42397   4.084  13.022   0.466 -0.2061 -0.2063  0.3159
24874W        W42398  15.037   5.908   5.835  0.2411  0.3173  0.2128
24875W        W42399   5.446  10.138  15.374 -0.2609  0.0936  0.0889
24876W        W42400   9.843   9.436  11.691  0.0970  0.1525 -0.1165
24877W        W42401   1.380  14.048   0.843 -0.3509  0.0768  0.0826
24878W        W42402   6.953  12.905   3.548  0.1522 -0.1767 -0.0424
24879W        W42403  16.590   2.745  12.845  0.1148  0.1052  0.0511
24880W        W42404   9.803  16.802   0.576  0.1052 -0.0519 -0.1575
24881W        W42405   2.384   2.994   2.651  0.0674 -0.0205 -0.2820
24882W        W42406  15.726   7.283   2.770  0.1797 -0.0641 -0.0210
24883W        W42407  11.457   9.217   1.965  0.1743 -0.3181 -0.2782
24884W        W42408  17.608   1.552  15.833 -0.2003 -0.2058 -0.2386
24885W        W42409  15.417   2.957   2.337 -0.1066  0.0109 -0.1063
24886W        W42410   1.294  15.008  11.117  0.1129 -0.1778 -0.1344
24887W        W42411  13.289   8.578   0.571 -0.2408  0.0129  0.3008
24888W        W42412   7.010   1.109   0.616  0.0610 -0.2653 -0.0634
24889W        W42413  18.081  12.082   0.543 -0.0181 -0.1079  0.0626
24890W        W42414  15.822  14.204   4.753 -0.1006 -0.1682 -0.0751
24891W        W42415   2.716   1.405   4.102 -0.2164 -0.0726  0.0912
24892W        W42416  13.897  11.735  11.440 -0.1190 -0.0756  0.1533
24893W        W42417   5.430   1.872  15.534 -0.3841  0.1346  0.0061
24894W        W42418  10.304  16.299   2.516  0.1122  0.2472  0.1185
24895W        W42419   8.164   9.428  11.211 -0.1635  0.0517 -0.3614
24896W        W42420  14.199   9.088  11.548  0.2432 -0.1164 -0.0157
24897W        W42421  13.972   5.097  15.323  0.0490  0.4092  0.2887
24898W        W42422  17.391  12.797  15.851  0.1407 -0.4086 -0.2556
24899W        W42423   4.953   1.096   0.147  0.0018  0.0955  0.2290
24900W        W42424  17.597   5.951   9.747 -0.1124  0.2455 -0.2196
24901W        W42425   3.971  14.001  11.149  0.0341 -0.2748  0.0070
24902W        W42426   6.370  14.931  13.639 -0.0188  0.0753 -0.0368
24903W        W42427  10.301  11.895   0.033 -0.2410 -0.0376  0.3126
24904W        W42428   9.907   4.744  14.290  0.0181  0.3977 -0.1892
24905W        W42429  11.578   8.771   3.947 -0.1063 -0.1053 -0.3443
24906W        W42430   8.304  13.628  15.039  0.1387  0.2066  0.2203
24907W        W42431   8.465   9.021  10.154 -0.3500  0.0463 -0.0070
24908W        W42432  16.334  14.715   2.430  0.1937 -0.0126  0.2122
24909W        W42433  13.351   3.472  15.635 -0.1763 -0.1868 -0.0754
24910W        W42434   7.594   5.006   4.252 -0.0904 -0.1504  0.0703
24911W        W42435   0.216  14.198   2.879  0.1055  0.0527  0.0469
24912W        W42436   8.202  18.045  15.694  0.0015 -0.0960 -0.3043
24913W        W42437  13.612  14.144   1.485  0.3101 -0.0111  0.0669
24914W        W42438   5.294  12.315   3.919 -0.1039  0.2430 -0.1008
24915W        W42439  17.670   0.012   1.673 -0.0307 -0.1181  0.3954
24916W        W42440  16.321  11.440  11.535  0.1365 -0.1975  0.0761
24917W        W42441  16.331   0.286   1.702  0.1091 -0.1165  0.0284
24918W        W42442  10.946  17.386  14.784  0.1053 -0.2893  0.2376
24919W        W42443   4.173   8.426   1.632 -0.0512  0.0900  0.0427
24920W        W42444  11.675  17.755   2.954  0.1693  0.5287  0.1551
24921W        W42445   8.798   9.987   2.172  0.3040  0.0808  0.1087
24922W        W42446   7.985   0.633   0.951 -0.3469 -0.0106 -0.0772
24923W        W42447   3.534  15.917  14.956 -0.5214  0.1594 -0.2325
24924W        W42448   0.340   6.101   5.587  0.2909  0.2517  0.0418
24925W        W42449  10.798   2.472  11.349  0.1636 -0.0691  0.0523
24926W        W42450   2.635   7.870  11.363  0.1171 -0.2218 -0.2317
24927W        W42451  10.517  10.024   2.694 -0.0334  0.0390 -0.0036
24928W        W42452  12.845  14.416   3.009  0.0226 -0.0120 -0.2152
24929W        W42453  15.290   8.285  11.668  0.2270 -0.1729  0.0807
24930W        W42454  11.630  14.357   0.236 -0.0978 -0.0230  0.0716
24931W        W42455   6.263   3.215   3.923  0.2702  0.0068 -0.0675
24932W        W42456   7.460  15.468  15.604  0.3930  0.3027  0.2724
24933W        W42457   1.356  14.816  12.970  0.1122 -0.0625 -0.0959
24934W        W42458   3.273   7.469   0.349  0.2013  0.1361  0.1263
24935W        W42459  14.454   3.785   0.213 -0.0236  0.2611 -0.0185
24936W        W42460   5.836   9.781   3.889 -0.0960  0.1478  0.1005
24937W        W42461   1.190   0.330  12.799 -0.0471  0.3306 -0.2197
24938W        W42462  16.156  14.659  11.798  0.2739 -0.0637  0.2318
24939W        W42463   1.618  15.989   3.483 -0.0460 -0.1544 -0.3057
24940W        W42464   9.761  11.890   4.165 -0.0943  0.0850  0.0543
24941W        W42465   6.784  11.280   0.240 -0.0768  0.3120  0.2385
24942W        W42466  12.997   8.566  14.243  0.0694  0.0194 -0.0747
24943W        W42467   0.003  16.971   2.535  0.0830 -0.0612  0.1290
24944W        W42468  14.822   9.097   3.842  0.2200 -0.1558 -0.0794
24945W        W42469  15.512   3.424  11.361  0.0412 -0.0564  0.0236
24946W        W42470   3.628  13.518   2.113 -0.0869  0.2977 -0.2514
24947W        W42471  10.177   4.207  13.524  0.1289  0.2603  0.1974
24948W        W42472   9.861  13.325  13.132  0.1451  0.0197  0.2345
24949W        W42473  16.338  12.508   2.751  0.1830  0.1304  0.4306
24950W        W42474   9.453  18.281  14.191  0.1019 -0.0011  0.2383
24951W        W42475   7.628   3.288  15.433  0.0821 -0.2867  0.2025
24952W        W42476   8.923   1.975  11.735  0.1157 -0.3937 -0.0319
24953W        W42477   6.426   4.150  15.442 -0.1591 -0.0835 -0.1271
24954W        W42478   2.261  14.400   3.331 -0.1241 -0.0364  0.1355
24955W        W42479   5.828   1.534  11.938 -0.3986  0.1492 -0.0556
24956W        W42480  12.991   2.527  14.451 -0.4043  0.1196  0.0676
24957W        W42481  15.596   9.158   1.973 -0.3553 -0.0783  0.1668
24958W        W42482   6.508   1.599  14.408  0.3708  0.0698 -0.1280
24959W        W42483   4.619   7.146   4.410  0.1052 -0.2183 -0.0293
24960W        W42484  11.530   2.010  12.250  0.1410 -0.1552  0.0602
24961W        W42485  13.205  16.884   4.946  0.0167 -0.3516 -0.2559
24962W        W42486   4.558   0.292   1.920  0.2393 -0.0835  0.1238
24963W        W42487   6.777   6.303   0.299  0.0531  0.0227  0.1653
24964W        W42488   7.196   1.999   1.097  0.1702 -0.0754  0.0368
24965W        W42489  11.474  10.391  10.544 -0.4173  0.0352  0.1458
24966W        W42490   8.713  14.796  15.497 -0.3165 -0.0081  0.0695
24967W        W42491   8.983  17.767  11.817  0.2201  0.0041  0.1641
24968W        W42492  14.706  12.448   0.233 -0.0376  0.1508  0.0697
24969W        W42493   1.236   5.933   0.053  0.1407  0.1612 -0.1480
24970W        W42494  18.197  12.366  12.333 -0.2110 -0.1127  0.0511
24971W        W42495  11.537  10.762  14.796 -0.0656  0.0686  0.2305
24972W        W42496   0.227   0.195  12.433  0.1274 -0.1063 -0.0995
24973W        W42497   5.904  10.704  13.850 -0.4730  0.0388 -0.1149
24974W        W42498  14.724   3.301   0.137  0.1807 -0.1349 -0.2171
24975W        W42499   1.236  14.720   4.069 -0.0167 -0.2037 -0.1355
24976W        W42500   4.221  11.837  14.943  0.1848 -0.1796 -0.0322
24977W        W42501   5.204  16.218  10.549 -0.0449  0.3482  0.0054
24978W        W42502  16.134  16.696  13.917  0.1600 -0.0220  0.1455
24979W        W42503   6.829  16.610   3.994  0.2838 -0.1734  0.0420
24980W        W42504  10.044   0.639   0.602 -0.0167 -0.6517  0.2818
24981W        W42505  10.550   6.114  13.555  0.0109  0.0759 -0.1118
24982W        W42506  14.336   3.762  10.980 -0.2367 -0.1476 -0.0355
24983W        W42507  13.191   5.261  13.750  0.0171  0.1189  0.2286
24984W        W42508   2.715  12.029   5.977 -0.1284 -0.4065  0.1025
24985W        W42509   3.482  16.117  12.179 -0.0941  0.1907 -0.2219
24986W        W42510   1.504  11.221   2.565  0.4116 -0.0898  0.3319
24987W        W42511   8.292   6.636  15.084  0.1391 -0.1709  0.1464
24988W        W42512  15.172   7.136  13.018 -0.3046  0.0967 -0.1061
24989W        W42513   8.079   8.825  11.942  0.7333  0.0415 -0.0301
24990W        W42514   5.911   7.147  13.707  0.0359  0.3709  0.0909
24991W        W42515  10.769  13.565  15.468  0.1316  0.3059  0.0867
24992W        W42516  14.189  16.946  15.791  0.3808 -0.0127  0.3648
24993W        W42517   5.671   6.650  11.975  0.0153  0.3617 -0.1646
24994W        W42518  15.426   8.250  14.007 -0.0418 -0.0327 -0.2063
24995W        W42519  12.533   9.615   1.920  0.0298  0.1516 -0.0320
24996W        W42520  18.165   6.809  14.853 -0.0528  0.1246  0.0837
24997W        W42521   2.674   6.185   5.602  0.0246 -0.1770  0.0946
24998W        W42522  11.340  12.188  15.751  0.0327  0.1155 -0.0409
24999W        W42523   5.809   8.951  12.438  0.0100 -0.2710  0.1145
25000W        W42524  14.451  17.625  12.143 -0.2817 -0.3182  0.2634
25001W        W42525  11.247   0.959  11.248 -0.1193 -0.0955 -0.0115
25002W        W42526  14.884  18.174  13.332 -0.1329  0.0260  0.1438
25003W        W42527  11.704  11.798   0.809 -0.2912  0.0875  0.0506
25004W        W42528  15.414   0.896   4.777  0.3004  0.0415 -0.1834
25005W        W42529  12.007  16.823  15.250 -0.1793  0.1195  0.2189
25006W        W42530   3.916   8.765  11.654 -0.0659 -0.0309  0.2945
25007W        W42531  17.570   9.268   3.685  0.2650  0.1607 -0.0404
25008W        W42532   9.011   8.520  10.800 -0.0050  0.1058  0.0974
25009W        W42533  16.438  12.742   5.343 -0.0301  0.2334  0.3631
25010W        W42534  14.006  10.988   5.417 -0.2643  0.0953  0.0699
25011W        W42535   9.915   4.114  15.579 -0.1991  0.0715  0.0598
25012W        W42536   5.885   6.087   0.450 -0.3219  0.0687 -0.0129
25013W        W42537  16.190   9.877   0.042  0.2386 -0.1530  0.0562
25014W        W42538  17.374  18.351  14.521  0.5223  0.3924  0.2218
25015W        W42539   1.106  12.296  14.096  0.2228  0.2084 -0.0839
25016W        W42540  15.777  13.356   4.381  0.0071  0.2283 -0.3333
25017W        W42541   8.185   5.457   5.070  0.1654  0.2747 -0.0143
25018W        W42542  15.534   4.953  14.388 -0.3383  0.1352 -0.1998
25019W        W42543  13.398  18.051  14.491 -0.0905 -0.0842  0.0647
25020W        W42544  10.759   7.277  10.077  0.1893 -0.1684  0.3732
25021W        W42545   5.255   7.175  14.385  0.1802 -0.0505 -0.1388
25022W        W42546  10.666   0.680   4.766  0.5063 -0.0505 -0.2670
25023W        W42547  17.417   0.413  15.307 -0.3553 -0.0026  0.2157
25024W        W42548  15.473  15.305  15.466 -0.0624  0.0683 -0.1352
25025W        W42549  14.074  14.887   1.019  0.0726  0.4080  0.2464
25026W        W42550   1.012   1.121  11.516  0.4908  0.2184 -0.0135
25027W        W42551   8.835  17.364   1.897 -0.1003  0.2020 -0.2835
25028W        W42552  13.183   9.590   1.318 -0.3526  0.0503 -0.1342
25029W        W42553   3.186   3.934   2.085  0.0723  0.0865  0.4233
25030W        W42554  12.298   4.070   3.546 -0.1332  0.0625 -0.0631
25031W        W42555   9.975   5.242  13.922  0.0867  0.1507  0.3223
25032W        W42556  15.566   4.738   2.192 -0.1380  0.2636 -0.1458
25033W        W42557  11.128  16.585   2.799  0.0314  0.1253 -0.0752
25034W        W42558   4.354  13.697  15.104  0.3202 -0.2636  0.0578
25035W        W42559  12.233  11.216  11.471 -0.1428  0.1832 -0.0297
25036W        W42560   6.386   5.116  12.233  0.2435 -0.1714  0.1448
25037W        W42561   8.460   2.885  13.191  0.0795 -0.0660  0.1028
25038W        W42562   0.152  13.770   4.140  0.0266  0.2133  0.1549
25039W        W42563  13.185  10.380  12.113  0.0841 -0.2406 -0.0892
25040W        W42564   2.305  15.488  11.841 -0.2928  0.0516 -0.1681
25041W        W42565  16.077   2.986  15.473 -0.1763 -0.0744 -0.1063
25042W        W42566   6.374  11.650   0.293 -0.0411 -0.0775  0.2358
25043W        W42567   3.326  17.073  12.358 -0.1804 -0.0085  0.1915
25044W        W42568  16.098  13.744   4.381 -0.0948 -0.3073 -0.1981
25045W        W42569   5.157  10.071   1.384 -0.1259  0.3051  0.2933
25046W        W42570  16.885  15.218   6.050  0.2752  0.0416  0.1025
25047W        W42571   4.994  16.590  12.048  0.0869  0.0245 -0.2806
25048W        W42572  14.538   3.356   4.318 -0.2068  0.0512 -0.2883
25049W        W42573  15.602   8.161  15.501  0.2946 -0.1122 -0.0031
25050W        W42574   7.455   7.859  15.479 -0.0563 -0.1145  0.1969
25051W        W42575  11.570   8.280  15.583 -0.3937 -0.2390  0.0358
25052W        W42576   8.967   5.011   3.997  0.0629  0.1783  0.0346
25053W        W42577   2.937   7.823   1.966 -0.0311 -0.1341  0.0877
25054W        W42578  15.072   3.396   0.528  0.0453 -0.1731  0.1020
25055W        W42579  15.027   5.330   0.548 -0.1783 -0.2287 -0.0346
25056W        W42580  16.267  11.680   2.517 -0.0347  0.1594  0.3618
25057W        W42581   1.771  15.496  12.312 -0.0698 -0.1434 -0.1022
25058W        W42582  11.246  13.297  13.988 -0.0588 -0.2502  0.1735
25059W        W42583   8.559   9.894   4.359 -0.1054 -0.1316  0.1065
25060W        W42584  11.501   9.183  12.203 -0.2103 -0.1584 -0.0988
25061W        W42585   6.882   4.136   3.299  0.0628  0.3028  0.3335
25062W        W42586   6.356   4.337  11.762 -0.1696 -0.0186  0.0651
25063W        W42587   4.396  10.227   3.131  0.0723 -0.1477  0.2081
25064W        W42588  12.055   9.407  12.943 -0.1048  0.1298  0.3370
25065W        W42589   8.045   7.820  13.115  0.1340 -0.0753  0.1237
25066W        W42590  13.060   6.921   1.102 -0.0313  0.0215 -0.0611
25067W        W42591   4.597   2.617  10.221  0.1235  0.0003 -0.0821
25068W        W42592   6.508   3.993   2.379 -0.1510 -0.0711  0.2489
25069W        W42593   1.578   3.111  11.764 -0.1266 -0.3078  0.1573
25070W        W42594   6.800   9.959   2.297 -0.1185 -0.1847  0.0069
25071W        W42595   7.460  12.321  13.989 -0.3399 -0.0860 -0.0094
25072W        W42596  10.429   8.783   0.261  0.1007  0.1552  0.0300
25073W        W42597  14.626  16.621  15.652  0.2680 -0.0387 -0.0743
25074W        W42598   1.641   0.765  13.486  0.2091  0.2006  0.0670
25075W        W42599   8.677  10.924   4.411 -0.0219 -0.0311 -0.0127
25076W        W42600   3.053   1.682   1.981  0.2855  0.0353 -0.2249
25077W        W42601   8.347   5.005  14.858 -0.1006 -0.2431 -0.2406
25078W        W42602  13.181   4.065   0.491 -0.3124 -0.0271 -0.0824
25079W        W42603   4.957   2.319   0.833 -0.1738  0.2769 -0.3825
25080W        W42604  15.457   8.593   0.684 -0.0034 -0.0082 -0.0651
25081W        W42605  15.358  14.023  10.988  0.0813  0.3960 -0.3085
25082W        W42606   1.177  16.241  12.252 -0.3078 -0.2819  0.0992
25083W        W42607  16.144  12.975   2.250  0.1972  0.0762  0.1245
25084W        W42608  11.187   0.090   3.128 -0.0349  0.2497  0.0533
25085W        W42609   4.997  17.281   6.119 -0.1324 -0.0095  0.1176
25086W        W42610  16.696   6.851  12.286  0.1568  0.0018  0.2137
25087W        W42611  15.744   7.005  10.226 -0.0587 -0.0109  0.0765
25088W        W42612   8.526  10.605  10.458 -0.3154  0.2183 -0.1986
25089W        W42613   1.852  10.989   0.083 -0.1946 -0.0890  0.1118
25090W        W42614   2.460   6.580  15.167 -0.1272  0.1404 -0.1202
25091W        W42615   5.158   9.054  12.462 -0.1473 -0.1508 -0.3037
25092W        W42616  13.232   9.688   4.195 -0.0829  0.1155  0.0891
25093W        W42617   8.222  17.582   2.649  0.1162 -0.1667  0.2093
25094W        W42618  11.665  16.814  12.068  0.0113  0.2321  0.1701
25095W        W42619   7.266   0.052   2.705  0.2176 -0.4391  0.0471
25096W        W42620   4.458  11.728   3.574 -0.0650  0.0180  0.1554
25097W        W42621   2.957  15.504  11.149  0.1648 -0.2087 -0.1513
25098W        W42622   1.919   3.832   3.395 -0.0277 -0.0958  0.2057
25099W        W42623  15.041   0.208   1.546  0.2473 -0.0659 -0.2362
25100W        W42624  12.765  12.652  14.571 -0.2711 -0.0160 -0.1449
25101W        W42625   4.840   5.611   2.127 -0.2336  0.0901 -0.0311
25102W        W42626  12.529   0.526  11.326  0.2737 -0.1197  0.3335
25103W        W42627  13.291  18.241   3.011  0.2749 -0.0636 -0.0148
25104W        W42628  16.374   4.048  12.873 -0.1763  0.2272 -0.1356
25105W        W42629   5.307   8.193  15.822  0.0221  0.0678 -0.1605
25106W        W42630   3.168  14.770   0.080 -0.4310 -0.0761  0.1478
25107W        W42631   5.867   7.603  10.015  0.3493  0.0780  0.0215
25108W        W42632  13.199  14.478  14.883 -0.1673 -0.0976  0.1082
25109W        W42633   3.102   6.027   0.644  0.0040 -0.0277  0.3741
25110W        W42634   2.490  14.509  14.398 -0.1327  0.0431 -0.0963
25111W        W42635   4.590  16.002   0.691 -0.0014 -0.1771 -0.1014
25112W        W42636  15.551  11.049   0.555 -0.3493 -0.0061  0.0691
25113W        W42637   0.241   8.316   0.172  0.0727  0.0432 -0.1425
25114W        W42638   6.457  14.873  14.622 -0.1222 -0.0107  0.0122
25115W        W42639   3.854   0.014  11.899  0.2155 -0.3190 -0.3451
25116W        W42640  16.620  11.961   2.334  0.0959  0.0757  0.4678
25117W        W42641  17.911  12.150  11.522  0.1328 -0.0173 -0.0142
25118W        W42642  15.634   0.569   4.089 -0.1286  0.1000  0.0451
25119W        W42643  17.151   5.353  15.709 -0.3802  0.0982 -0.0252
25120W        W42644   1.229   4.905  11.689 -0.0975 -0.0533 -0.1142
25121W        W42645  11.021   9.763   2.592 -0.0286  0.0548  0.1256
25122W        W42646   5.859   2.074  14.001  0.0419 -0.1525 -0.1045
25123W        W42647   5.697   2.597  15.010  0.0493 -0.0939  0.1350
25124W        W42648  11.413  15.125  12.206  0.1222  0.3084 -0.0806
25125W        W42649   2.868   5.670   1.065  0.0378 -0.0062 -0.0748
25126W        W42650   5.420  12.144   3.022 -0.1339  0.2659  0.0763
25127W        W42651  12.298  10.412   2.596 -0.2295 -0.0030 -0.2125
25128W        W42652  15.422  16.983  15.616 -0.1335 -0.0300  0.0425
25129W        W42653   1.300   7.021  15.832  0.1251 -0.2442 -0.0278
25130W        W42654  11.639   6.458   4.029 -0.1415 -0.0463 -0.0465
25131W        W42655  16.285  16.619  10.601 -0.0743 -0.2971 -0.1569
25132W        W42656  12.614  13.157   2.285 -0.0787  0.0375 -0.0023
25133W        W42657  11.071   8.871   0.964  0.0129  0.0223 -0.1836
25134W        W42658  13.475   1.839  11.514  0.2202 -0.2538  0.1198
25135W        W42659   8.459   1.749  14.082  0.0279  0.3747 -0.2872
25136W        W42660   6.849  18.364   5.089  0.0899 -0.0948 -0.2204
25137W        W42661  12.513   1.579  12.703 -0.1110  0.0606  0.0110
25138W        W42662  14.770   9.791  11.123 -0.1448  0.0536  0.1599
25139W        W42663  12.232   2.004  14.627 -0.1263  0.0455 -0.0777
25140W        W42664  13.240   0.623   0.389 -0.3514  0.0145 -0.2235
25141W        W42665  15.378  12.780  14.547 -0.2527  0.2120 -0.2170
25142W        W42666  16.801  10.167   3.799  0.1688 -0.1840 -0.1077
25143W        W42667  15.405  17.572   5.239  0.0548 -0.0349  0.2130
25144W        W42668   1.352  16.916  14.196 -0.2184 -0.0461 -0.1004
25145W        W42669  18.323  10.624   0.330  0.2213 -0.1206 -0.0587
25146W        W42670  17.491   5.701  15.243 -0.2085 -0.0892  0.0065
25147W        W42671   8.322   5.826  14.445 -0.2349 -0.1902  0.2856
25148W        W42672   4.435   6.186   0.334  0.0382  0.2800 -0.1125
25149W        W42673  13.846  14.240  14.532 -0.0210  0.6335  0.2526
25150W        W42674  11.958   2.041   3.803  0.0349  0.1185 -0.0569
25151W        W42675  11.178  14.125  11.217  0.0054  0.0899  0.0227
25152W        W42676   7.127  15.586   0.174 -0.0702 -0.0656 -0.0826
25153W        W42677   0.995   1.525  12.818  0.1271  0.0533  0.0113
25154W        W42678   3.919   0.389  15.508  0.2653  0.0953 -0.0882
25155W        W42679  11.067  11.305  15.664 -0.3639  0.0482  0.0851
25156W        W42680   0.682  12.771   4.946 -0.2022  0.3600  0.1171
25157W        W42681   3.994   1.594   1.136  0.3816 -0.4761  0.1054
25158W        W42682   7.293   7.653   0.088  0.0461  0.1091 -0.1868
25159W        W42683  15.235   3.428  15.835 -0.0508  0.0753  0.0099
25160W        W42684   0.897  15.561   5.772  0.3640  0.1810  0.0440
25161W        W42685  18.243  15.435  14.736 -0.1214  0.1274  0.1353
25162W        W42686   5.529  14.784   0.481 -0.0362 -0.0500 -0.1840
25163W        W42687   9.576  12.727  11.588  0.1279 -0.2393  0.1765
25164W        W42688  10.663  16.684   1.103 -0.2004 -0.2135  0.0365
25165W        W42689   1.054  10.334   1.290 -0.2147  0.0290  0.1032
25166W        W42690   8.847  14.101   4.969 -0.1598 -0.1062 -0.3988
25167W        W42691  16.828   6.699   3.560 -0.0868  0.1609  0.0379
25168W        W42692  11.661   6.123   1.988 -0.2205  0.0515 -0.0219
25169W        W42693  16.820   3.677  10.008 -0.2151  0.0121 -0.1086
25170W        W42694   4.605  16.533   2.739  0.1668  0.0160 -0.1877
25171W        W42695   2.451   4.315  10.878 -0.2023  0.1499 -0.1444
25172W        W42696   8.011   1.817   3.163 -0.0233 -0.1601 -0.3422
25173W        W42697  17.792   1.192   3.725 -0.2060 -0.0323  0.0867
25174W        W42698   7.945   3.503  12.430  0.1231 -0.0476  0.2308
25175W        W42699   7.388   6.397  14.171 -0.0443 -0.0271  0.0501
25176W        W42700  13.718  15.813   4.344  0.0981  0.1650 -0.0141
25177W        W42701  14.419   6.267  11.795 -0.0274  0.4657 -0.0092
25178W        W42702   3.658   4.512   0.506  0.1842 -0.1947  0.0586
25179W        W42703   0.863   4.026   4.156  0.3069 -0.1351 -0.0911
25180W        W42704   2.701   7.128   2.710 -0.0133 -0.0853  0.2269
25181W        W42705   1.762   4.443   0.942  0.1046 -0.0454  0.3863
25182W        W42706   2.140  10.156   4.122  0.1774 -0.1692 -0.0984
25183W        W42707   9.325   7.831  12.099 -0.1740  0.2505  0.2482
25184W        W42708  16.180   1.302  12.833  0.0059  0.2367 -0.0475
25185W        W42709   4.574  12.996  13.939 -0.2197 -0.2741 -0.1205
25186W        W42710  14.984  11.140  15.665 -0.1523 -0.0731  0.0576
25187W        W42711  10.958   0.145   5.042 -0.2238 -0.1512  0.2021
25188W        W42712   4.507  13.299   2.840 -0.1979  0.1667  0.3437
25189W        W42713  11.570  10.662  12.457 -0.0967 -0.1514 -0.0432
25190W        W42714  12.133  12.449  12.120  0.0691 -0.0088 -0.0123
25191W        W42715   7.854   8.591  11.157 -0.3518  0.1743  0.0583
25192W        W42716   3.937   7.578  15.767  0.1752 -0.0800  0.0011
25193W        W42717   7.173  12.689   2.669  0.0104 -0.1187  0.2064
25194W        W42718   3.836   5.577   1.307 -0.2157  0.0388  0.2197
25195W        W42719  16.749   0.888   3.166 -0.2100 -0.1370 -0.2014
25196W        W42720   5.614  15.785   1.599  0.1499 -0.2644 -0.1239
25197W        W42721  13.578  10.078   4.255  0.0295  0.0206  0.1190
25198W        W42722   3.238  16.506   2.130  0.2809 -0.1753 -0.3047
25199W        W42723   3.491   5.189   1.350  0.2622 -0.2161 -0.0019
25200W        W42724  12.014  13.324  15.369 -0.1873  0.1738 -0.1698
25201W        W42725  15.461  14.518  14.237  0.0874 -0.0676  0.0356
25202W        W42726  12.840  12.229  14.783 -0.5705  0.3871  0.2211
25203W        W42727   1.517  18.310   5.426 -0.0655 -0.1958  0.0901
25204W        W42728   3.434   4.266  12.790  0.0233  0.2105 -0.2401
25205W        W42729   9.980  15.434   5.830 -0.0106 -0.0493  0.0820
25206W        W42730  16.487  11.917  11.455 -0.2964  0.2479 -0.2905
25207W        W42731  17.644  13.110   3.930 -0.1132 -0.2040 -0.1135
25208W        W42732   5.747  12.777   1.294  0.0862  0.1111 -0.0926
25209W        W42733   1.688  12.930   2.667  0.0353 -0.0689  0.1652
25210W        W42734   2.154  15.899   4.178 -0.1634  0.0417 -0.2408
25211W        W42735  12.829  15.586  12.929  0.0446  0.0134  0.4489
25212W        W42736   1.680  10.218   0.545 -0.1993 -0.3392 -0.2995
25213W        W42737   5.580   4.511   3.091 -0.2992  0.1799 -0.1267
25214W        W42738   2.149  17.227  12.819  0.0795  0.2910  0.0628
25215W        W42739   1.619  11.661   1.030 -0.1585  0.2725 -0.3433
25216W        W42740  14.017   8.007   2.985 -0.1334  0.2968  0.0337
25217W        W42741   9.231   5.474   2.169  0.0545  0.3285 -0.1342
25218W        W42742  12.730  15.723  15.800  0.1339  0.0366  0.2657
25219W        W42743   7.741   9.110   0.079 -0.3801 -0.1688 -0.0214
25220W        W42744  12.743   9.665   3.383  0.1650  0.1187 -0.1028
25221W        W42745  17.202   4.123   3.084 -0.1291 -0.1731 -0.1020
25222W        W42746   1.194  17.692  15.475 -0.0978  0.0898 -0.0957
25223W        W42747   4.021   0.799   3.651 -0.0416 -0.0283  0.3248
25224W        W42748   6.799  17.264  11.671 -0.1552 -0.3729  0.0960
25225W        W42749   1.789  16.914   3.657 -0.0683 -0.0796 -0.2085
25226W        W42750  11.325  10.574   5.057 -0.0038  0.3025 -0.0041
25227W        W42751  17.929  18.130   4.548  0.1082  0.2199  0.2691
25228W        W42752   9.231   0.837  13.160 -0.1059  0.2365 -0.1523
25229W        W42753   5.627  11.627   2.844  0.3166 -0.0489  0.0521
25230W        W42754  16.516   1.837   3.090 -0.1265  0.1556 -0.0899
25231W        W42755   6.245   7.649  15.704  0.0126  0.0413 -0.1493
25232W        W42756   7.632  13.040  15.831 -0.0885  0.1419 -0.0975
25233W        W42757   0.477   5.579   3.340 -0.0929  0.1079  0.2055
25234W        W42758   3.873   4.125   1.767 -0.0420 -0.0661  0.0905
25235W        W42759  10.359   3.298  11.504 -0.0205 -0.1732 -0.1839
25236W        W42760  14.333  11.164  12.854  0.0332 -0.0622  0.0627
25237W        W42761   8.025  10.026  14.063 -0.1834  0.1994  0.0973
25238W        W42762   1.472   7.699  11.475 -0.2023 -0.3332 -0.0047
25239W        W42763  15.437   0.566  14.051  0.1977 -0.0029 -0.2071
25240W        W42764  12.207   7.328  11.887  0.0158 -0.2213 -0.1978
25241W        W42765   2.857   5.123   0.554 -0.1239 -0.0037 -0.0190
25242W        W42766   9.586  11.944  15.360 -0.1915 -0.0215  0.1722
25243W        W42767  13.147   3.680  12.229  0.1829  0.1977  0.0002
25244W        W42768   1.550   7.966  13.671 -0.1967 -0.1533 -0.0703
25245W        W42769   2.597  10.160   1.549  0.0109 -0.1746 -0.2626
25246W        W42770   7.773  10.500  13.548 -0.0155  0.2216  0.0729
25247W        W42771   6.800  12.830   0.993 -0.0547 -0.0862  0.0898
25248W        W42772  11.369   2.060   3.146  0.1344 -0.0485  0.2509
25249W        W42773   0.558  17.851  11.196  0.1468 -0.2208 -0.0614
25250W        W42774   9.278  11.414  12.824 -0.2330  0.0989 -0.1640
25251W        W42775  12.091   0.459  11.089  0.0202  0.2925 -0.0499
25252W        W42776  14.858  16.873   3.601  0.1292 -0.0031 -0.0771
25253W        W42777   5.539  10.568   1.969 -0.2012  0.2910  0.0738
25254W        W42778   8.827  11.843   2.594 -0.1668  0.2413  0.0375
25255W        W42779   4.025   9.055  13.218 -0.0747  0.1061 -0.0990
25256W        W42780  10.543   9.429   4.536 -0.0555 -0.1981  0.4280
25257W        W42781   0.088   0.424   1.796 -0.0926  0.1191  0.0187
25258W        W42782   5.810  11.051   2.144  0.2511  0.0340  0.0550
25259W        W42783  15.967   9.437  15.694 -0.0557  0.3640  0.0179
25260W        W42784  12.326   8.845  12.908 -0.0852  0.1384  0.0243
25261W        W42785   0.100   9.292   2.516  0.0191  0.1130  0.3621
25262W        W42786  15.071  10.749   0.045  0.1010 -0.0819 -0.0706
25263W        W42787  12.239  13.876   2.304  0.3012 -0.0006  0.0113
25264W        W42788  15.390   8.915  12.932 -0.1154  0.3275 -0.2050
25265W        W42789  12.721   9.400  15.121 -0.0236  0.2503  0.0076
25266W        W42790  11.326  13.025   4.519  0.1726  0.0449  0.2636
25267W        W42791   1.386  12.399  15.733 -0.1323  0.2868  0.0326
25268W        W42792   3.989   0.493  14.186  0.0370  0.0246  0.1639
25269W        W42793  11.991  16.321  15.082  0.0147  0.1375 -0.2659
25270W        W42794   9.885   2.221  13.653 -0.2256 -0.0076 -0.0657
25271W        W42795   5.806   3.856   1.034  0.2234  0.1869  0.1513
25272W        W42796  14.977   9.175   1.757 -0.0943  0.0478  0.0445
25273W        W42797  12.272  10.007  12.240 -0.6025 -0.0360  0.1634
25274W        W42798  17.704   8.017   1.728 -0.0828  0.0232  0.0782
25275W        W42799  15.131  15.901  11.919 -0.0044 -0.0411  0.1651
25276W        W42800   3.105   3.385  13.111  0.1232  0.0901  0.2915
25277W        W42801   6.667   0.333  11.803 -0.1590 -0.1312  0.1317
25278W        W42802   6.147   8.120   3.780  0.0520  0.2374 -0.2276
25279W        W42803  15.807   8.315   0.984  0.4126 -0.2090 -0.0471
25280W        W42804   1.333  10.339   9.949 -0.1456 -0.0237  0.0202
25281W        W42805  12.513  12.598  13.140 -0.0344  0.0633  0.0619
25282W        W42806  12.531  15.427   4.406  0.0905 -0.1503 -0.3847
25283W        W42807   9.998  10.067  12.561  0.0451  0.0245 -0.0012
25284W        W42808  15.478  17.271   0.749  0.0442  0.2468  0.0251
25285W        W42809   2.072  16.994  11.727 -0.1264 -0.4187  0.1061
25286W        W42810   5.003  11.145  14.067 -0.0500 -0.0001 -0.1925
25287W        W42811  11.719   2.435   4.982  0.0566  0.1323 -0.0424
25288W        W42812   2.855  18.284   2.290 -0.1788 -0.0640 -0.0930
25289W        W42813  10.413   0.194   4.869 -0.0987 -0.1342 -0.0327
25290W        W42814   3.083   9.652  12.616 -0.0602  0.6063  0.0651
25291W        W42815   5.039  12.783  13.881  0.1106  0.1989 -0.2449
25292W        W42816   3.390   5.679  11.027 -0.0691  0.1758  0.1678
25293W        W42817  15.482  17.063  13.336  0.1402 -0.0271 -0.0719
25294W        W42818   3.791   5.666   4.197  0.0030  0.1664 -0.1892
25295W        W42819   2.840  15.728   2.149 -0.2193  0.0306 -0.0911
25296W        W42820  13.969  13.171   0.495 -0.0559 -0.0800  0.0445
25297W        W42821   9.904   3.932   0.707  0.0330  0.0257  0.0749
25298W        W42822   8.211   4.664  13.417  0.1206  0.1463 -0.1041
25299W        W42823   8.287  17.021  13.274  0.0933 -0.0610  0.3592
25300W        W42824  10.061   1.532   0.805  0.2556  0.0717 -0.1841
25301W        W42825  13.110   1.533   3.043 -0.3365 -0.0125  0.1565
25302W        W42826   9.959   7.523   3.937  0.1182 -0.5034 -0.0688
25303W        W42827   3.876  14.925  12.944  0.0353 -0.1185 -0.0266
25304W        W42828  13.212   8.231  15.158  0.3044  0.0507  0.0509
25305W        W42829   0.766   2.442   3.455 -0.1085  0.2785 -0.4033
25306W        W42830  15.369  14.972   4.555 -0.2666  0.0577  0.0168
25307W        W42831  13.841  15.564  14.231 -0.0498  0.2644 -0.0696
25308W        W42832  18.094  14.155   0.211 -0.0960 -0.0633  0.1273
25309W        W42833  14.335  10.515   0.049  0.2381  0.0914  0.0376
25310W        W42834  16.307   5.193  11.458  0.1044  0.0088  0.0849
25311W        W42835  10.213   1.979  13.354 -0.1471 -0.1715 -0.0586
25312W        W42836   6.022  14.727   3.713  0.1315 -0.3276 -0.0415
25313W        W42837   6.007  16.077   1.741 -0.0922 -0.0958 -0.0278
25314W        W42838   6.402   6.533  11.247  0.3653 -0.0147  0.0776
25315W        W42839   7.954   7.251  13.326 -0.0700  0.1016  0.0366
25316W        W42840   0.566  10.423   1.367 -0.3885  0.2761 -0.3110
25317W        W42841   3.127  17.442   0.161 -0.0313 -0.0028  0.1421
25318W        W42842   3.625   4.672  13.269 -0.3055 -0.0684 -0.4538
25319W        W42843   0.826   4.875   4.408  0.1211  0.0159 -0.3275
25320W        W42844  16.581   1.655   1.623  0.0099 -0.1311 -0.0918
25321W        W42845  10.373   5.334  12.734  0.4027  0.0267  0.3033
25322W        W42846   7.674  17.426   3.677  0.0324 -0.1661 -0.1773
25323W        W42847   7.207  11.756   2.509 -0.1089 -0.2890  0.0537
25324W        W42848   8.041  12.030  13.672  0.2099  0.0741  0.0805
25325W        W42849  11.060  10.632   3.912 -0.3117  0.0941  0.0754
25326W        W42850  10.971   2.933   3.672 -0.0041  0.0104  0.0548
25327W        W42851  11.443   9.554  13.938 -0.1135  0.1827 -0.1781
25328W        W42852   7.696   6.366  11.664 -0.0113 -0.2524 -0.0449
25329W        W42853  13.279   8.756  13.901  0.2032  0.0641 -0.0392
25330W        W42854   8.840  15.128   2.502 -0.2118  0.0732 -0.0468
25331W        W42855   1.309  17.851  13.092  0.0945 -0.0818 -0.3127
25332W        W42856  13.115  13.819   1.141  0.1512 -0.0847  0.1188
25333W        W42857   3.271   6.092  10.606 -0.1487 -0.0945 -0.2533
25334W        W42858  14.271   3.703  12.627  0.0274  0.0858 -0.2524
25335W        W42859  10.733  11.727  14.279  0.0014 -0.3581  0.1847
25336W        W42860   2.934  12.443   1.751 -0.2376  0.0972  0.0374
25337W        W42861  12.116  15.032   3.034 -0.2755  0.1255  0.1714
25338W        W42862  15.884  16.909   1.248 -0.1305 -0.1016  0.1086
25339W        W42863   3.149   9.241  14.996  0.4885 -0.1613  0.1819
25340W        W42864  11.470  12.641   0.607 -0.0649  0.0066  0.0516
25341W        W42865   0.806   8.427  14.061  0.2781  0.0708  0.0211
25342W        W42866  15.507   2.608   0.253  0.0679  0.1944 -0.1549
25343W        W42867  17.069   7.953   2.554  0.2312 -0.0875  0.1329
25344W        W42868   5.400  11.122  15.543  0.0705  0.0169 -0.1914
25345W        W42869  15.924   6.155  13.943  0.1425 -0.0833 -0.3678
25346W        W42870   6.251   7.847   3.324  0.2897  0.1721  0.3895
25347W        W42871  14.233  10.133   0.412  0.2032  0.5276  0.1770
25348W        W42872   4.624  13.677  12.295  0.2807 -0.1334 -0.2542
25349W        W42873  17.991   5.281   2.461  0.0008 -0.0947 -0.1875
25350W        W42874   1.842  12.073  11.863 -0.0436  0.1922  0.1534
25351W        W42875  12.449  16.833  15.526  0.0268 -0.1864 -0.5356
25352W        W42876  10.288   6.534  13.669 -0.1044 -0.3482  0.1221
25353W        W42877   0.414  11.325   2.331  0.2603  0.0588  0.2037
25354W        W42878  10.442  15.494   0.343  0.0135 -0.2348 -0.0220
25355W        W42879   8.374   6.816   1.812 -0.1801 -0.2420 -0.2554
25356W        W42880  13.603  10.136  12.287 -0.0378  0.1942  0.5009
25357W        W42881   6.987   6.509   1.539 -0.1374 -0.0715  0.0977
25358W        W42882  17.398  17.052  14.261 -0.0888 -0.3119 -0.0759
25359W        W42883   4.792   5.279  13.030  0.1192  0.0692  0.0765
25360W        W42884  10.904   8.533  15.276 -0.1069 -0.1720  0.0360
25361W        W42885   8.507   7.080   2.386  0.2578  0.0229  0.4061
25362W        W42886  10.635  16.144  15.066 -0.2020  0.2268  0.1490
25363W        W42887   5.934  13.018  13.653 -0.3892 -0.2346  0.1570
25364W        W42888   3.260  16.553  12.215  0.0682 -0.0242 -0.2250
25365W        W42889   2.809   1.039   4.504  0.2295  0.4031  0.0238
25366W        W42890  10.731   6.572  13.482  0.1247 -0.1581  0.0515
25367W        W42891  12.541  14.901   0.284  0.3649  0.0682  0.1305
25368W        W42892   4.987   9.769  14.926  0.0667  0.1824 -0.1914
25369W        W42893   4.196  15.912   3.807  0.3703 -0.1596 -0.1036
25370W        W42894   8.362   6.341   3.965 -0.0515  0.0166  0.0804
25371W        W42895   7.481   5.793  15.721 -0.3182 -0.1465 -0.2851
25372W        W42896   3.373   3.020   2.541 -0.0227  0.0837 -0.0386
25373W        W42897  16.460  16.755  12.100  0.2533 -0.1450 -0.2197
25374W        W42898   5.403   5.582  14.617 -0.1569 -0.1452  0.0024
25375W        W42899  10.764   9.769   4.889 -0.0641 -0.0604 -0.0704
25376W        W42900  15.475  10.629   0.293 -0.3727  0.1496 -0.0279
25377W        W42901   4.503   4.886  13.194 -0.1385  0.0310  0.0275
25378W        W42902   1.791   2.175  14.661 -0.1016  0.0220 -0.2914
25379W        W42903   1.625  10.534   4.355  0.0418  0.0529 -0.0293
25380W        W42904  14.355  18.355   4.774  0.3377 -0.1344  0.2839
25381W        W42905   7.691  17.249   0.922 -0.0498 -0.0993 -0.0578
25382W        W42906   9.682   6.493  15.123  0.0343 -0.0495 -0.2228
25383W        W42907   1.410   8.127   4.234 -0.1566  0.3581  0.3287
25384W        W42908   7.264  16.051   1.857  0.1683  0.0104  0.3770
25385W        W42909  14.070  13.191   5.894 -0.1372  0.0693 -0.2956
25386W        W42910   0.109   5.035   1.537 -0.1399 -0.0870  0.0434
25387W        W42911   4.746  13.452   1.076  0.2547 -0.0973  0.0749
25388W        W42912   9.926   7.813   1.040  0.2346  0.0356 -0.0453
25389W        W42913   5.345  11.043   4.357 -0.1301 -0.0437 -0.0231
25390W        W42914  15.578  14.315  13.209  0.0742  0.3219 -0.3787
25391W        W42915  12.139   8.316  15.800  0.1102 -0.3174 -0.0745
25392W        W42916   1.053  14.481  10.405  0.3286 -0.0245 -0.2433
25393W        W42917  16.708  11.173   4.850 -0.0944  0.1029 -0.0936
25394W        W42918  11.778  11.473   4.957 -0.1707 -0.1575 -0.0973
25395W        W42919   5.421  18.078   3.572  0.3337 -0.0294 -0.1805
25396W        W42920  15.693  16.676   5.281  0.0491  0.2881 -0.0827
25397W        W42921  10.220   3.524   2.216 -0.1991 -0.1275  0.0788
25398W        W42922   3.752   1.225  12.450 -0.1611  0.0985  0.1814
25399W        W42923   1.343  14.691   1.401  0.2468 -0.1864 -0.3240
25400W        W42924   9.727  13.925  14.405 -0.0085  0.1656 -0.2322
25401W        W42925   1.138  11.387  13.898 -0.0462 -0.3175  0.1721
25402W        W42926   3.333   3.403  15.393 -0.0705 -0.1675  0.0355
25403W        W42927  15.138   8.583   2.975  0.3701  0.0002  0.3204
25404W        W42928   8.352  17.073   3.182  0.1992 -0.2703  0.1415
25405W        W42929  16.255   9.329   4.284 -0.2685 -0.1208  0.0961
25406W        W42930  14.203   8.769   0.747  0.0032  0.3471 -0.1176
25407W        W42931  10.672   1.931  15.475 -0.1537  0.2884  0.1696
25408W        W42932   7.130   6.924  12.417 -0.0950  0.2095 -0.1819
25409W        W42933  15.244   8.192  14.558 -0.0955  0.1065 -0.3394
25410W        W42934  15.875   2.267   0.359 -0.0606 -0.1096 -0.2341
25411W        W42935  16.079  16.516   1.501 -0.0601  0.0121 -0.2429
25412W        W42936   9.308  11.494  12.287  0.0195 -0.0955 -0.1045
25413W        W42937  13.264  11.575   3.289 -0.2460  0.2597 -0.2023
25414W        W42938   0.736   9.151   3.910 -0.0857  0.1271 -0.1544
25415W        W42939   4.978  12.877   0.223  0.4045  0.1755  0.2435
25416W        W42940  12.586  15.560   4.972 -0.1572  0.4055  0.1528
25417W        W42941   4.823  14.836   1.576  0.0022 -0.0881 -0.0198
25418W        W42942  13.638  17.328   1.815  0.0119  0.1501 -0.0527
25419W        W42943   6.858   6.894   5.814 -0.2524  0.4819 -0.0112
25420W        W42944   6.562   8.320  13.390  0.5812  0.0998 -0.4049
25421W        W42945  10.150   0.953  15.029 -0.0297 -0.0484 -0.0080
25422W        W42946  14.159   6.807   4.339  0.1135 -0.1082  0.1607
25423W        W42947  15.290   1.264   5.092 -0.2832 -0.0139 -0.2374
25424W        W42948  10.081   9.783  15.434 -0.0753 -0.0966 -0.1180
25425W        W42949  16.121   5.730  15.475 -0.1001  0.2123  0.1552
25426W        W42950  18.369  17.203  11.418 -0.2989 -0.0581 -0.0440
25427W        W42951  11.951   1.117  15.531  0.0579  0.2396 -0.0030
25428W        W42952   5.903  12.002  10.198  0.1939 -0.4479 -0.0112
25429W        W42953   7.991   2.258  15.530  0.0785 -0.0127  0.2455
25430W        W42954   1.603   4.752   3.449  0.1260 -0.1054 -0.0347
25431W        W42955   3.667  11.385   4.155  0.0869 -0.2091  0.4940
25432W        W42956  13.754  12.599   4.483  0.1374 -0.0602  0.0996
25433W        W42957   6.674   0.281   1.451  0.0828 -0.0698 -0.1164
25434W        W42958   2.045  14.748  14.703  0.1405 -0.1092 -0.1563
25435W        W42959  12.202  18.382  14.601  0.1601 -0.0828 -0.0615
25436W        W42960  14.104   1.821  12.921 -0.1733  0.0121 -0.1130
25437W        W42961  14.013  10.686   2.564 -0.4691 -0.2029  0.2484
25438W        W42962   8.588   9.571   3.925  0.1924  0.0412 -0.0139
25439W        W42963   2.614   0.113   3.589  0.3202  0.0311  0.2000
25440W        W42964   2.040  12.699  13.289  0.0629 -0.1286  0.1733
25441W        W42965   0.294   7.094  11.066  0.2200  0.0347 -0.0431
25442W        W42966   9.125   2.580   1.134 -0.0562 -0.2734 -0.0636
25443W        W42967  14.637   4.812  12.079  0.0436  0.2098  0.0169
25444W        W42968   5.211  11.753  12.325 -0.0727 -0.0928 -0.1585
25445W        W42969   7.056   4.850   5.145 -0.1616  0.2838 -0.0026
25446W        W42970  16.476   2.673  15.623 -0.1189 -0.0238 -0.3302
25447W        W42971  10.928  12.914  13.883  0.1175 -0.0556 -0.1381
25448W        W42972  11.908   8.553   3.153 -0.1832 -0.0802  0.3554
25449W        W42973   4.156   8.999  15.411  0.2727 -0.1964  0.4877
25450W        W42974  14.304   4.551   0.112 -0.0662  0.2543 -0.3862
25451W        W42975   6.836   4.895  13.948  0.2962 -0.4373  0.2393
25452W        W42976   2.451  15.335  13.074  0.1397  0.1461 -0.1707
25453W        W42977   2.091   6.761  14.041  0.1657 -0.1943  0.2528
25454W        W42978   5.188   8.956  11.033  0.1881  0.0788 -0.0816
25455W        W42979   4.501  15.248   4.871 -0.0135 -0.0375  0.0503
25456W        W42980  18.386   3.986   1.749  0.0308  0.1337 -0.1138
25457W        W42981  15.938  10.836   1.943  0.0145  0.1683  0.2852
25458W        W42982  18.157   6.593   4.131 -0.1017  0.2595 -0.1488
25459W        W42983   5.100   5.469  11.877  0.0663  0.2655 -0.0511
25460W        W42984  11.156   1.657  11.403 -0.0608 -0.1030 -0.0320
25461W        W42985  12.256   4.703   3.651 -0.0746  0.1768  0.1895
25462W        W42986   7.519  17.604   1.208  0.3378  0.1065  0.0339
25463W        W42987   1.986  18.174  13.676  0.2235  0.1465  0.1500
25464W        W42988   5.004   5.316   0.014  0.0132  0.2127  0.0598
25465W        W42989   6.252  10.022   4.013 -0.0084 -0.1284  0.1992
25466W        W42990   4.374  15.636  11.000 -0.0325 -0.2260 -0.0261
25467W        W42991  18.187   5.745  13.972  0.0741  0.0127 -0.0057
25468W        W42992   2.739  16.387  15.208 -0.0937  0.3185 -0.1052
25469W        W42993  16.819  14.013  12.238 -0.0344 -0.0850 -0.1908
25470W        W42994   3.514   8.534  12.303  0.3257 -0.0237  0.1158
25471W        W42995   9.172   9.230   3.253  0.0326  0.0857  0.1860
25472W        W42996   9.493   5.146  10.163  0.1402  0.1386 -0.0535
25473W        W42997  14.628  13.145  12.424  0.1369 -0.0223 -0.3127
25474W        W42998  13.722   4.365   0.879 -0.0061 -0.0019  0.2034
25475W        W42999  13.290  13.891   0.689  0.1054 -0.0830  0.0654
25476W        W43000  13.772   5.212  14.846 -0.1548 -0.2424 -0.0726
25477W        W43001  15.375   7.282   3.641 -0.2732  0.3249 -0.0114
25478W        W43002  12.940   1.423  14.801  0.0159  0.1355  0.1269
25479W        W43003  13.836  18.076   4.724  0.4659 -0.3897 -0.2953
25480W        W43004   4.333   5.844  15.209  0.1572 -0.2057 -0.0753
25481W        W43005   9.747  16.240   4.117 -0.1605  0.3126 -0.2924
25482W        W43006  14.694  13.270  13.864 -0.1544 -0.2387  0.1671
25483W        W43007   3.111  13.863   4.453 -0.0359 -0.1249  0.0151
25484W        W43008   4.028   4.333   5.794  0.2243  0.1264  0.0493
25485W        W43009   6.883   7.329  13.670 -0.0826  0.0731  0.1168
25486W        W43010   9.940   9.292  14.766  0.1775 -0.0652  0.2611
25487W        W43011   3.251  14.527  10.663  0.1321 -0.1657  0.2668
25488W        W43012  17.440  17.299   2.801  0.0060 -0.2046  0.1689
25489W        W43013   7.992   4.070   0.754  0.1913 -0.0475  0.0541
25490W        W43014  10.048  18.227  12.801  0.1859 -0.0808  0.1230
25491W        W43015  18.336  12.816   1.928  0.2570 -0.3157 -0.0201
25492W        W43016  14.820   0.087  12.946 -0.1432  0.0627 -0.2275
25493W        W43017   0.159  15.597   4.339 -0.0664 -0.0503 -0.2033
25494W        W43018   3.105  12.254   0.550  0.4044 -0.3094  0.1976
25495W        W43019   1.038   1.881   0.590  0.0620 -0.2728 -0.2617
25496W        W43020   8.979   1.024   3.311 -0.0110  0.1385 -0.0992
25497W        W43021   3.746  17.162  15.563 -0.1543  0.2125  0.0405
25498W        W43022  17.405   4.220   1.628 -0.1228 -0.3169 -0.1196
25499W        W43023   9.789  12.043   3.266  0.1053 -0.0905  0.1702
25500W        W43024  14.128   2.933  13.110 -0.1085  0.0434 -0.1111
25501W        W43025   1.168   5.464  12.313  0.4948 -0.3077 -0.0357
25502W        W43026  13.253  14.104  15.352 -0.3207 -0.1788 -0.1328
25503W        W43027   5.055  11.782   4.712  0.2641  0.0856  0.1799
25504W        W43028   8.861   7.040  11.818  0.3574  0.0964 -0.0362
25505W        W43029   2.691  12.773   2.043  0.0573 -0.0140  0.1399
25506W        W43030  11.939   8.510  15.244 -0.3626 -0.1969  0.0574
25507W        W43031  13.405  14.835  13.305  0.5628 -0.3238 -0.3450
25508W        W43032  15.862  15.849   2.049  0.2162  0.2464  0.2271
25509W        W43033  16.776  13.994  14.736  0.3249 -0.1937  0.3015
25510W        W43034   0.706   7.653  11.511 -0.2583  0.0279 -0.0522
25511W        W43035   3.231   1.436   0.176 -0.3094 -0.0018  0.1391
25512W        W43036   5.260   1.464   5.292 -0.0526  0.0433  0.0666
25513W        W43037   4.112  11.022   1.494 -0.1965  0.0604  0.0869
25514W        W43038  17.392   5.997   2.701  0.3165  0.0941  0.1211
25515W        W43039   1.153  15.289   2.847  0.1677  0.1053 -0.1136
25516W        W43040   1.947  12.877   1.289 -0.2775  0.3313 -0.1315
25517W        W43041   9.029   5.802  12.155  0.3199 -0.2698  0.0396
25518W        W43042   7.296  12.182  11.730  0.0111  0.1762  0.1859
25519W        W43043   6.357  15.997   0.642  0.3986  0.0039  0.0843
25520W        W43044  18.365  10.360   1.228  0.0854  0.1192  0.4585
25521W        W43045   5.188  13.534  14.504  0.0355  0.0973 -0.2764
25522W        W43046  17.535   1.870   2.646  0.1232  0.0880  0.1077
25523W        W43047   0.116   1.503   2.771 -0.1020 -0.1507  0.1416
25524W        W43048   6.850  14.491   2.119 -0.1564  0.0273  0.0303
25525W        W43049   9.785   0.239  15.574 -0.0132  0.1871 -0.1483
25526W        W43050   3.903  10.285  15.658 -0.1285  0.1485 -0.1042
25527W        W43051   1.534  13.394   9.801  0.0684  0.4183 -0.1277
25528W        W43052   8.210   0.200   1.878 -0.0898 -0.1123  0.0389
25529W        W43053  13.781   4.341   4.631 -0.0442  0.0035  0.2351
25530W        W43054   2.341  18.338  14.705  0.0907 -0.0401  0.1328
25531W        W43055   0.910  11.136   2.630  0.1981 -0.2036 -0.0239
25532W        W43056   8.123  18.309  13.991 -0.1550 -0.1383 -0.2502
25533W        W43057  14.348  13.918  12.971 -0.0502  0.1113  0.2268
25534W        W43058   6.394   5.453   2.178  0.1941 -0.0310 -0.1475
25535W        W43059  16.629   8.487  13.515 -0.0771  0.0945 -0.0121
25536W        W43060   6.445   5.417   1.009  0.2229  0.4634 -0.0548
25537W        W43061   7.289  12.613  11.439  0.2150 -0.0485  0.2857
25538W        W43062   1.192  13.625   3.561 -0.0645  0.1456  0.3810
25539W        W43063   9.345  18.236   3.987  0.2247 -0.0193 -0.1503
25540W        W43064  15.517  13.202   4.832 -0.2838 -0.1090  0.0373
25541W        W43065  18.244   4.805   2.555 -0.0054  0.2386  0.0570
25542W        W43066   4.459  10.787   3.252  0.0783 -0.1597  0.0402
25543W        W43067  12.937  15.231   4.769 -0.1239  0.0219  0.1550
25544W        W43068  12.491   4.361  15.689 -0.0207  0.1072  0.0235
25545W        W43069   2.758   1.646   0.337  0.0701 -0.2717 -0.1788
25546W        W43070  17.287   0.841  13.745  0.0682  0.0708  0.1310
25547W        W43071   1.803  14.847   2.713  0.0851  0.1652 -0.2524
25548W        W43072   7.831   9.833  13.623 -0.1421 -0.7354 -0.0271
25549W        W43073  15.852  17.328   2.383  0.1876 -0.0304  0.2290
25550W        W43074   0.149   7.181  14.044  0.0188  0.0625  0.1316
25551W        W43075   2.481   6.011   2.006 -0.0291  0.0787 -0.0176
25552W        W43076   0.542   8.796  11.040 -0.0923  0.2600 -0.1695
25553W        W43077   9.574   9.042  14.528  0.0899  0.1609  0.3721
25554W        W43078   4.510  10.655  12.994  0.1391 -0.2353 -0.2367
25555W        W43079   5.264   8.334   4.301  0.4582 -0.1848 -0.0983
25556W        W43080   6.929  16.735  11.471 -0.3208 -0.0313  0.1804
25557W        W43081   6.597   4.588   3.241  0.5607 -0.1664 -0.3711
25558W        W43082  15.683   8.677   4.013  0.0174  0.0815 -0.0666
25559W        W43083  16.267   2.330  13.696 -0.0604  0.2692 -0.1603
25560W        W43084   9.837   3.712  13.400 -0.0992 -0.1214 -0.0013
25561W        W43085  17.301   2.105   5.438 -0.2475 -0.0422 -0.2087
25562W        W43086   0.826  11.033  14.166 -0.2931 -0.1158 -0.0277
25563W        W43087   5.357   6.987  12.211  0.0257  0.0961 -0.0505
25564W        W43088   7.731  18.374   2.546  0.0700 -0.1247 -0.0636
25565W        W43089   2.136   8.744   0.540  0.0271  0.3829 -0.0205
25566W        W43090  10.909   7.695   0.086 -0.0937 -0.1871  0.1332
25567W        W43091   7.673   5.496  13.576 -0.2073  0.2049  0.2293
25568W        W43092   1.542   7.316   2.662 -0.3926  0.0696 -0.3068
25569W        W43093  13.064   2.117  11.585 -0.0890  0.2613  0.0626
25570W        W43094   8.126   5.362   1.337 -0.1851 -0.0144 -0.2363
25571W        W43095  12.556  13.715   3.499 -0.3281 -0.4044  0.2414
25572W        W43096   0.915   4.357   1.902 -0.2698  0.2747  0.1543
25573W        W43097  16.973   6.950   1.047  0.2055 -0.0006 -0.0819
25574W        W43098  17.949   1.268   0.227 -0.0805 -0.2679 -0.2386
25575W        W43099   5.827   1.932   2.954  0.0898 -0.4046 -0.0242
25576W        W43100  12.909   4.989   1.913 -0.1419  0.0714 -0.2976
25577W        W43101  12.145   7.237   3.268 -0.1079 -0.3632 -0.1268
25578W        W43102  17.118  17.633  14.773  0.1580  0.1577  0.0537
25579W        W43103   9.395  11.744  11.867 -0.0710 -0.1789  0.1403
25580W        W43104   8.120   5.390  13.010  0.3946  0.1309 -0.1797
25581W        W43105  11.339  11.121  12.497  0.0331 -0.0608  0.0830
25582W        W43106   2.325  14.879  11.243 -0.1370 -0.1045  0.3439
25583W        W43107  10.971  12.284  13.176  0.0452  0.0519  0.1276
25584W        W43108   5.605   6.111   0.047 -0.0553 -0.4102 -0.0696
25585W        W43109   0.582  13.190  13.939  0.0422  0.2361  0.0633
25586W        W43110  14.866   3.727  15.803 -0.0426  0.0398  0.2006
25587W        W43111  18.302  16.041   2.941 -0.1478 -0.5508  0.0153
25588W        W43112   7.152  11.038  14.329  0.1948  0.2627  0.1196
25589W        W43113  11.583  12.045  10.973  0.1605  0.3017  0.0066
25590W        W43114  10.499  11.862  13.583  0.0327 -0.0682 -0.1584
25591W        W43115  12.179  10.919  13.562  0.1032  0.2160 -0.0256
25592W        W43116   9.542   4.928  15.663  0.0577  0.4467  0.2370
25593W        W43117   7.657  13.610  11.039 -0.3545  0.0439  0.1537
25594W        W43118  12.652  16.589  11.603  0.2333  0.0037 -0.2575
25595W        W43119   6.716  14.812   4.653  0.2447  0.0909  0.0482
25596W        W43120   3.169  13.421  12.764 -0.0664 -0.0595  0.0103
25597W        W43121  18.095  15.785  15.736  0.1222 -0.2053 -0.3887
25598W        W43122   5.655  12.839  15.390  0.0908  0.1456  0.1268
25599W        W43123   4.511   1.596   1.943 -0.0024 -0.0136  0.0799
25600W        W43124  10.781   1.283   1.906 -0.0694 -0.2665  0.0038
25601W        W43125   8.658   0.166   1.375 -0.0156 -0.0022 -0.3002
25602W        W43126   6.760  13.486   0.379 -0.1961 -0.2047  0.1580
25603W        W43127   3.235   5.137   4.810  0.1478  0.0381 -0.1795
25604W        W43128   3.304   1.560  11.129 -0.0039 -0.2993 -0.0967
25605W        W43129  13.157  10.606  13.153  0.0329  0.1018  0.0286
25606W        W43130  17.312  10.375  11.480 -0.1030  0.2605 -0.5349
25607W        W43131   7.617  10.148   2.181 -0.0709  0.3323 -0.2199
25608W        W43132   0.620   5.293  12.379 -0.1761  0.0058  0.0047
25609W        W43133   8.792   2.542  13.947 -0.1918  0.1341  0.1225
25610W        W43134   9.875   6.697   0.532  0.0028 -0.0389 -0.1752
25611W        W43135  14.683  11.564   1.303  0.1068 -0.2284 -0.2294
25612W        W43136   5.633  15.319   3.613 -0.0527 -0.2104  0.1828
25613W        W43137  15.605   7.444  15.437  0.1080 -0.0500 -0.3491
25614W        W43138   5.367  15.688   3.424  0.0102  0.0765 -0.1749
25615W        W43139  14.574  16.075  14.764  0.0907  0.1145 -0.1353
25616W        W43140   4.081  13.539  14.440  0.1216  0.1861 -0.2236
25617W        W43141   7.149  11.315   1.971 -0.1369 -0.0242  0.2830
25618W        W43142   7.467   9.288  12.315  0.2106  0.0602  0.1360
25619W        W43143   0.839   3.509  12.461 -0.4652  0.1274  0.1096
25620W        W43144   9.165   2.394  14.306  0.3143  0.0265 -0.0563
25621W        W43145  12.434   8.692  14.976 -0.3071 -0.0023  0.0495
25622W        W43146   1.859   9.491   2.736 -0.0513  0.0739  0.2269
25623W        W43147   4.632  14.384  14.609 -0.0576 -0.0380 -0.2224
25624W        W43148   6.413   2.156  15.755 -0.2972 -0.0949  0.2130
25625W        W43149   1.380  16.104   0.031 -0.4469  0.3204 -0.1977
25626W        W43150   0.559  11.017  11.183 -0.3893 -0.2135  0.0798
25627W        W43151   9.192  14.091   1.644  0.0265 -0.0160  0.3134
25628W        W43152   6.913   8.028   0.620  0.1438  0.0848  0.1596
25629W        W43153  14.114   9.883  11.852  0.0038 -0.3442  0.0164
25630W        W43154  16.623  15.872  11.467 -0.1779 -0.0175 -0.2007
25631W        W43155  16.738   1.068  15.619  0.0987 -0.2887 -0.0177
25632W        W43156   6.665  10.882  13.511 -0.1956  0.0491  0.0115
25633W        W43157   9.006  11.018  14.220 -0.0525  0.0821 -0.1078
25634W        W43158   7.015   3.418  11.568  0.1676  0.4014  0.3692
25635W        W43159  10.672   6.356  14.702  0.0906 -0.0725 -0.1211
25636W        W43160   4.862   9.898  12.051 -0.1533 -0.0134 -0.0353
25637W        W43161   1.653  12.711  15.421  0.1779 -0.0060 -0.1061
25638W        W43162   5.474   3.454  12.582 -0.1754  0.0105  0.3509
25639W        W43163   8.549  14.258  13.081  0.2280  0.0523  0.1250
25640W        W43164   7.762   4.291   4.045  0.0008 -0.3745  0.1239
25641W        W43165  14.417   9.425   2.003 -0.0527  0.0357 -0.0384
25642W        W43166  14.947   8.237   0.580  0.0585  0.2891  0.1963
25643W        W43167  15.260  15.695   4.136  0.0486  0.1328  0.1578
25644W        W43168  17.132  16.791  11.896 -0.0235  0.0633  0.0095
25645W        W43169  16.217  16.720  15.125  0.0526  0.2383 -0.1507
25646W        W43170   9.676  13.453  14.093  0.2187  0.0369  0.0191
25647W        W43171  11.028  15.280  13.890 -0.3052 -0.2339 -0.0973
25648W        W43172  12.323   6.166  11.030 -0.0873  0.3196 -0.0905
25649W        W43173   4.265   5.833  10.905 -0.1064 -0.1743  0.0399
25650W        W43174   4.212  13.275   1.342 -0.0555  0.0219  0.0214
25651W        W43175   2.090  13.741   3.189  0.1772 -0.0428 -0.1880
25652W        W43176  16.431  10.368   2.051  0.1231  0.1051 -0.2228
25653W        W43177   5.994  13.850  12.266  0.1394 -0.1325 -0.0903
25654W        W43178  15.694   8.051   4.153  0.2181  0.0726  0.1501
25655W        W43179  15.746   0.856   1.146 -0.0080 -0.0635 -0.1664
25656W        W43180   2.605   1.576  10.515  0.2154 -0.2923 -0.4120
25657W        W43181   7.172   2.764  10.417 -0.0649 -0.1659 -0.1428
25658W        W43182  11.038   3.942   2.105  0.2709  0.2788  0.1758
25659W        W43183  16.466   9.603  13.798 -0.1253  0.0874  0.0639
25660W        W43184  10.798  11.816  12.389 -0.2181  0.2267 -0.1642
25661W        W43185   7.761   4.863  13.735  0.2908 -0.1080  0.0937
25662W        W43186  14.638  13.876  15.045  0.2508 -0.1320  0.0658
25663W        W43187   5.526  15.939   1.103 -0.0204  0.1126  0.1419
25664W        W43188   4.431  10.933   0.032 -0.0734  0.2063  0.2112
25665W        W43189   1.452   2.067  11.735  0.1540  0.1176  0.1271
25666W        W43190   1.834  11.531  13.194 -0.0017  0.0592 -0.1621
25667W        W43191   0.527   1.632   0.331  0.1604 -0.0309  0.0193
25668W        W43192  17.876   9.720  15.688  0.0905  0.1970 -0.0337
25669W        W43193  10.012   1.099  13.734  0.0394 -0.3714  0.1248
25670W        W43194   9.381  18.306   0.065  0.2617  0.2188  0.0170
25671W        W43195  10.636  11.404   2.164  0.1173  0.2757  0.0507
25672W        W43196   2.623   0.587   0.165 -0.2790  0.1921  0.0768
25673W        W43197   5.518   1.542   0.601 -0.2471  0.1869  0.1687
25674W        W43198  13.337   3.609   2.923 -0.1980  0.0280 -0.2564
25675W        W43199  17.779   1.400   3.266  0.1362 -0.1263 -0.2796
25676W        W43200  17.106   6.453  12.778 -0.4666  0.1701 -0.3425
25677W        W43201  13.648   1.881  15.735  0.2791 -0.2559 -0.1125
25678W        W43202   4.671  15.673   3.839 -0.1262  0.0477  0.0208
25679W        W43203  16.220   8.617   3.865  0.0077  0.0181 -0.1176
25680W        W43204  15.207   0.315   3.192  0.0259 -0.3632 -0.2512
25681W        W43205   1.972  15.208  15.530 -0.1460 -0.1039 -0.0133
25682W        W43206  13.538   0.051   2.530  0.1013  0.1800  0.1290
25683W        W43207   4.160   2.467  13.011 -0.1481  0.1688 -0.2651
25684W        W43208   4.982  13.819   0.423 -0.1574 -0.1874  0.0613
25685W        W43209   8.647  16.853   3.558 -0.0218  0.0324 -0.2229
25686W        W43210  12.929   8.154   4.023 -0.1324  0.0696 -0.1701
25687W        W43211  17.453  16.952   5.823  0.3341 -0.2986 -0.0172
25688W        W43212   3.232   2.407   4.915  0.0226  0.2156 -0.0140
25689W        W43213   9.280   0.559  12.745  0.0459  0.1582  0.1634
25690W        W43214   0.685  15.446   3.871 -0.1795 -0.0973  0.0936
25691W        W43215   2.323   9.427   2.931 -0.2073  0.0695 -0.3269
25692W        W43216   6.575   7.712  13.532  0.1194 -0.2524 -0.0400
25693W        W43217   4.591   0.731   0.466  0.2312  0.3604 -0.0916
25694W        W43218   9.696   9.335   0.287 -0.0330 -0.0577  0.0654
25695W        W43219   7.760  15.050  15.594  0.0378  0.0730 -0.1887
25696W        W43220   0.558  11.911  10.732 -0.0002 -0.1669 -0.2744
25697W        W43221   4.233   8.677   3.746  0.3572  0.4235  0.1318
25698W        W43222   9.737   0.117   3.580  0.1555 -0.0349 -0.2363
25699W        W43223   2.614  15.256  12.571 -0.1718  0.1370 -0.1276
25700W        W43224  18.053  11.109   3.986 -0.2071  0.0432 -0.4009
25701W        W43225   7.623  11.651  15.634  0.0667 -0.0845 -0.0139
25702W        W43226  12.972   9.072  11.329 -0.0651 -0.0047 -0.1045
25703W        W43227   3.760  10.487  13.662 -0.0657  0.2538  0.3018
25704W        W43228  16.499  16.881   3.403  0.0223  0.1096 -0.1337
25705W        W43229  15.123  17.535  13.388  0.1345  0.2599  0.1218
25706W        W43230  12.892   7.164  14.326  0.1698  0.1640 -0.1040
25707W        W43231  14.555   9.872   4.782 -0.0812  0.1455  0.2432
25708W        W43232  17.316   3.604  11.951  0.0857  0.3493 -0.0487
25709W        W43233  11.587   7.311   3.978  0.2419  0.3106 -0.0717
25710W        W43234  10.822   3.673  14.815  0.0600  0.1874  0.3340
25711W        W43235   9.348   4.045  12.883  0.0908 -0.0214  0.0711
25712W        W43236  12.762   6.892  13.035  0.1636 -0.0684  0.4096
25713W        W43237  11.054   1.513  12.277  0.3560  0.1008 -0.1731
25714W        W43238   0.433  13.029  14.876  0.2087 -0.1000  0.4644
25715W        W43239  12.413  15.953   4.674  0.3814 -0.1416 -0.0070
25716W        W43240   6.869  13.544  11.228  0.2005  0.1136 -0.0841
25717W        W43241  14.220   9.514   3.990  0.0888 -0.0752  0.0824
25718W        W43242   6.831   3.237   0.106  0.0836 -0.3856 -0.0266
25719W        W43243  15.290   5.056   1.880 -0.1319 -0.0304  0.3895
25720W        W43244   9.405  12.256  13.342  0.0866  0.1380  0.0819
25721W        W43245   0.816   8.226   3.585  0.3557 -0.1515 -0.0075
25722W        W43246   4.836  10.344  12.857 -0.0596  0.1543  0.2674
25723W        W43247  16.459  12.408  11.337 -0.2429 -0.1634  0.2228
25724W        W43248  15.027   0.767  15.806 -0.1001 -0.0495  0.0744
25725W        W43249  12.327   5.382  15.846  0.2220  0.1379  0.2868
25726W        W43250   0.876   3.662  11.579 -0.1175 -0.2279 -0.1558
25727W        W43251  12.210  10.318   0.734  0.0332  0.1273 -0.1337
25728W        W43252   0.251   6.473   4.340  0.2263 -0.4076  0.0788
25729W        W43253  16.356  11.708   4.120  0.1158  0.1167 -0.0410
25730W        W43254  16.408  17.118  12.787  0.1902  0.2504 -0.1304
25731W        W43255  10.686  14.945   2.806 -0.0457  0.1684 -0.2701
25732W        W43256   3.978   2.327   4.774 -0.0938 -0.0499 -0.1248
25733W        W43257   5.160   6.755   0.012  0.0111 -0.0828 -0.0215
25734W        W43258  12.387  12.978  14.786  0.1239 -0.1179 -0.4465
25735W        W43259   6.334   5.921  12.118 -0.2391 -0.0245 -0.3651
25736W        W43260   9.888   0.385  12.038 -0.1921 -0.3066 -0.2704
25737W        W43261   8.429   0.888   4.368  0.0619  0.1871  0.1553
25738W        W43262  16.573   3.066  14.780  0.0010 -0.3145  0.1032
25739W        W43263   8.956  14.984   0.550  0.0072 -0.0677  0.1578
25740W        W43264   4.337  17.305  12.825  0.0016  0.0262  0.1747
25741W        W43265   8.536  17.103  10.220 -0.0796 -0.0673 -0.1435
25742W        W43266   2.744  11.824  10.668 -0.1999  0.2209 -0.0785
25743W        W43267   9.235  16.068  11.307  0.1848 -0.3346 -0.4892
25744W        W43268  16.789   1.243   0.666 -0.0072  0.0130  0.2195
25745W        W43269  12.017  17.954   6.167  0.1263 -0.0011  0.1488
25746W        W43270  10.296  14.372   0.229  0.2589  0.0322  0.0844
25747W        W43271   9.479   3.441   0.019 -0.1219  0.2588 -0.0283
25748W        W43272  11.132  17.003   2.413  0.4110  0.2356  0.1580
25749W        W43273  12.627   1.694  13.904  0.0955 -0.1421 -0.2734
25750W        W43274   1.559   5.146  13.188  0.0784  0.3120  0.1525
25751W        W43275  12.242   2.054  12.697 -0.3607 -0.1250 -0.0486
25752W        W43276   4.088   7.787   4.267 -0.2126  0.2347 -0.0406
25753W        W43277  17.725   1.905   3.202  0.1146  0.2336  0.5735
25754W        W43278   4.593  11.967   1.731  0.0064 -0.3669  0.2345
25755W        W43279   1.424   7.874  15.443  0.0246  0.0718  0.0023
25756W        W43280  16.533   3.034  13.710  0.2696  0.0077 -0.2177
25757W        W43281  17.059  11.673  12.228 -0.0777 -0.3092 -0.2699
25758W        W43282   7.537  18.363   1.128  0.1945  0.1357 -0.0261
25759W        W43283   0.538   0.227   1.060 -0.0061  0.1177  0.0866
25760W        W43284   0.724  14.892   3.849  0.1777  0.2554 -0.2478
25761W        W43285   9.967  11.990   1.715 -0.0046  0.0420  0.1016
25762W        W43286   6.888  16.327   2.130  0.1105 -0.1775 -0.3762
25763W        W43287   0.608   1.817   5.226  0.2891  0.0187  0.1576
25764W        W43288  13.332   7.603  15.173  0.1556  0.0384  0.1819
25765W        W43289  15.358   2.044  13.574 -0.0911 -0.4553  0.2337
25766W        W43290   8.051   3.147  13.971  0.2009  0.1106 -0.2122
25767W        W43291   4.874   4.692   1.339  0.0380  0.1834  0.3650
25768W        W43292  14.973   4.291   2.881  0.0421  0.0205  0.1349
25769W        W43293  15.469  10.728  13.608  0.1058  0.1562  0.1781
25770W        W43294   6.463   6.644   1.739 -0.1302  0.1252 -0.1268
25771W        W43295   6.283  11.717  13.833 -0.0302 -0.2421  0.0853
25772W        W43296  11.759   9.154   0.247 -0.1758 -0.2018 -0.3902
25773W        W43297  15.330   4.853   3.790  0.2188  0.0285  0.0378
25774W        W43298   5.724  11.528   2.366  0.2773 -0.1353  0.1267
25775W        W43299  13.393  14.574  14.158  0.0695  0.2745 -0.0619
25776W        W43300  15.552   7.370  10.573 -0.2712  0.1277  0.1149
25777W        W43301   1.407  10.691   0.976 -0.0130  0.0287  0.2176
25778W        W43302  12.962  12.440  11.648 -0.2340  0.0781 -0.2073
25779W        W43303   3.186  10.784   2.684 -0.2291 -0.2487 -0.1715
25780W        W43304   7.531   2.958   5.187 -0.2045  0.0600  0.0088
25781W        W43305   8.379   1.088   2.815 -0.1828 -0.1780 -0.3574
25782W        W43306  18.087  15.152  11.037  0.1146  0.1989  0.1238
25783W        W43307   2.849   2.349   4.033 -0.1676  0.1225  0.0443
25784W        W43308   2.451  16.938   4.283 -0.1846  0.0022  0.0431
25785W        W43309  14.727   4.708  10.855  0.1756 -0.2239 -0.1372
25786W        W43310   6.903   7.960  11.483  0.4569 -0.3138 -0.0785
25787W        W43311  10.176  17.735   4.348  0.0635  0.1396 -0.1896
25788W        W43312   0.018   6.026  10.817 -0.1808  0.0670 -0.1238
25789W        W43313  17.652  11.642   0.102 -0.1665 -0.1483 -0.2535
25790W        W43314   5.964   9.794   0.416  0.3252 -0.0324  0.1381
25791W        W43315  10.758   5.042   4.877 -0.2765  0.3593 -0.0196
25792W        W43316   8.853  15.168  13.564 -0.0047 -0.0903 -0.1605
25793W        W43317   2.422  12.430   3.070  0.0010 -0.1399 -0.1881
25794W        W43318  18.055   3.763  13.565 -0.1575  0.0386 -0.1939
25795W        W43319   9.462  10.387  15.564  0.0715 -0.1093  0.2637
25796W        W43320   4.690   6.390  11.706  0.1113  0.0584 -0.2568
25797W        W43321   7.272  14.786   3.514  0.1461  0.2887 -0.1785
25798W        W43322   1.536  14.414   3.026  0.2474  0.0352 -0.1963
25799W        W43323   4.664   0.917   3.883  0.3782 -0.0959 -0.0900
25800W        W43324   5.363   8.398   0.765 -0.0207 -0.2500  0.1636
25801W        W43325   1.288   8.405   0.799 -0.1723  0.2364  0.1773
25802W        W43326   0.443   0.276  11.331 -0.0871  0.0685 -0.1690
25803W        W43327  12.143   1.247  11.519  0.1479 -0.0272  0.4191
25804W        W43328   7.861  17.244  12.470  0.0509  0.2138  0.2542
25805W        W43329   9.596   5.076   1.129 -0.4440  0.2619  0.1590
25806W        W43330  17.146   7.255  12.520  0.4389  0.3871 -0.0849
25807W        W43331   8.963   1.129   0.578 -0.0360 -0.1300  0.4220
25808W        W43332   5.888   8.706   1.499 -0.2304  0.0865  0.0236
25809W        W43333   4.926  12.462  15.012 -0.0263 -0.0547 -0.0621
25810W        W43334   1.979   4.454  14.233 -0.2831  0.2356  0.2281
25811W        W43335   6.338   2.019   3.185  0.0617 -0.1609 -0.0733
25812W        W43336  15.809  10.860   2.964 -0.2379  0.0460 -0.1800
25813W        W43337   1.567  15.870  12.117  0.0435  0.1194 -0.1577
25814W        W43338  10.957  10.788   2.869 -0.1730  0.2643 -0.2195
25815W        W43339  18.331  11.543  12.592  0.0598  0.1836 -0.1058
25816W        W43340   4.965  14.114  15.761  0.2877 -0.0311  0.1440
25817W        W43341   6.423  18.152  15.139  0.2190  0.0368  0.1269
25818W        W43342   8.593   6.678   3.364  0.5790  0.0984 -0.1675
25819W        W43343   1.071   8.522   0.246 -0.3048  0.0815  0.1275
25820W        W43344  10.389   1.602  13.940  0.3288 -0.0054  0.1688
25821W        W43345  16.204  17.190   3.212  0.4425  0.0357 -0.0667
25822W        W43346   1.904  10.258  14.246 -0.1071 -0.0094 -0.4272
25823W        W43347   0.112  10.437   2.969 -0.1039  0.0503 -0.1897
25824W        W43348  14.890   9.651  11.836  0.2699  0.0916 -0.0143
25825W        W43349  14.823  12.687  12.107 -0.1083 -0.1346  0.0664
25826W        W43350   2.163   1.907   3.606 -0.1134 -0.0845  0.0918
25827W        W43351   4.606  15.174   0.247 -0.1526  0.0374 -0.0271
25828W        W43352   2.936   2.908  13.019  0.1793 -0.1171  0.0625
25829W        W43353   5.548   6.442  14.073 -0.0907 -0.1583 -0.1829
25830W        W43354   7.188  13.383   3.501 -0.1352 -0.0802  0.3867
25831W        W43355   0.063   8.185   4.254  0.2251  0.0875 -0.1582
25832W        W43356   2.375   4.812   2.407 -0.3222 -0.2224  0.0475
25833W        W43357   3.890   7.593  10.918  0.0167 -0.1309  0.2270
25834W        W43358   7.073  10.875   1.632 -0.1270  0.1947 -0.4826
25835W        W43359   3.627   2.643  14.753  0.2452 -0.2552  0.0645
25836W        W43360   2.019  10.664  10.864 -0.0560 -0.1610  0.0575
25837W        W43361   4.309   1.672  12.752  0.0937 -0.0616  0.0955
25838W        W43362   7.109   2.005   3.035 -0.1417 -0.0376 -0.1867
25839W        W43363  18.407  15.103   5.031  0.1624  0.2946  0.0545
25840W        W43364   7.147  18.371  13.100  0.1641  0.1634 -0.0032
25841W        W43365  14.495  14.888  12.618 -0.1375 -0.1637  0.0065
25842W        W43366  16.794  11.002  14.282 -0.0301  0.0725 -0.0215
25843W        W43367   2.625   0.046   0.052  0.0537 -0.0798  0.0859
25844W        W43368  16.149   6.585  13.709  0.1802 -0.0416 -0.0067
25845W        W43369   7.784   4.790  14.751 -0.0417 -0.1730  0.1294
25846W        W43370   0.357  16.961   4.296  0.0944  0.1624  0.3178
25847W        W43371   2.547   7.141  11.827 -0.3763  0.0770  0.2476
25848W        W43372  10.725  15.608   5.099 -0.0650 -0.1325 -0.0483
25849W        W43373   6.401  11.897  13.367 -0.1225 -0.0328 -0.0594
25850W        W43374   5.602   1.595   3.609 -0.0936  0.2195  0.2452
25851W        W43375   3.998   9.344   5.429 -0.0100 -0.0677  0.1183
25852W        W43376   7.238  17.659  13.536 -0.4501 -0.1997  0.2169
25853W        W43377   6.130   8.278   1.433  0.0312 -0.1450 -0.0485
25854W        W43378   8.600  13.948  11.243 -0.0003 -0.1171 -0.4515
25855W        W43379   7.461   7.981   1.785 -0.2420  0.1328 -0.1332
25856W        W43380  14.116   9.271   1.563 -0.4162  0.1868  0.1587
25857W        W43381   6.778   1.098  11.612 -0.1956  0.1860  0.1967
25858W        W43382   2.234   9.226   1.784 -0.1067  0.1392 -0.0142
25859W        W43383   6.722  16.108   4.139 -0.2267 -0.2152 -0.0143
25860W        W43384   0.565   7.539  13.057 -0.2324 -0.1727 -0.1113
25861W        W43385  15.875  13.615  13.729  0.2609  0.1658 -0.1882
25862W        W43386  16.262   3.669  13.155  0.2974  0.0855 -0.0427
25863W        W43387   0.536  11.915   0.376  0.0914 -0.2085  0.1909
25864W        W43388  17.770   9.323  13.039  0.0864 -0.1575  0.1790
25865W        W43389  15.909   1.910  15.305 -0.1039  0.2024  0.2592
25866W        W43390   1.388  18.235  13.516  0.0294  0.1190  0.2603
25867W        W43391   9.150   2.376  12.067  0.2453 -0.0047  0.0063
25868W        W43392  10.636   2.905  13.823  0.1252  0.0449  0.1143
25869W        W43393  16.604   1.291  15.186  0.1559  0.0019  0.2847
25870W        W43394   4.962  15.439   4.954  0.0993 -0.4081 -0.2188
25871W        W43395  16.599   9.681  12.498  0.0865  0.1827  0.2444
25872W        W43396   2.828   3.963   5.344 -0.1536  0.2860 -0.0769
25873W        W43397  14.474  13.201   0.639 -0.1586 -0.1487  0.2645
25874W        W43398  10.019   3.516  12.351 -0.1054  0.1735 -0.2374
25875W        W43399   3.084   3.300  11.634  0.0500 -0.1911 -0.1560
25876W        W43400   8.211   4.326  14.298 -0.0232  0.1803 -0.2587
25877W        W43401   2.427   0.063  15.253  0.1404 -0.3626  0.2845
25878W        W43402  15.849  13.462   2.178  0.1177  0.1374  0.0104
25879W        W43403   8.578  10.748   3.945  0.1882 -0.2737 -0.1756
25880W        W43404   4.389   7.282  11.403  0.3117 -0.1210 -0.0283
25881W        W43405   3.400  13.941  11.920 -0.1339  0.1645 -0.2365
25882W        W43406   6.658  17.510   2.914  0.2626  0.0921 -0.3523
25883W        W43407   1.389   9.452  14.239  0.2291  0.1576 -0.1054
25884W        W43408   1.027  14.460   3.728  0.1059 -0.1997  0.5317
25885W        W43409  11.192   3.393  11.993  0.2676 -0.0378  0.0150
25886W        W43410  12.368  15.003  11.630  0.2225  0.0958 -0.0423
25887W        W43411   8.884  16.390   1.829  0.0833 -0.0551 -0.4143
25888W        W43412   6.860   7.804   6.022 -0.1864 -0.2738 -0.0812
25889W        W43413  13.590   9.291   2.411  0.2096 -0.0055 -0.3333
25890W        W43414   5.183  16.657   0.201 -0.1910  0.0506  0.0030
25891W        W43415   2.166  17.761  12.308  0.2679  0.3688  0.0919
25892W        W43416   4.584  17.412   4.233  0.0565 -0.1759  0.1480
25893W        W43417  15.991   3.742  11.327  0.1508 -0.0501  0.1169
25894W        W43418   9.347  13.808   4.805 -0.2232  0.2532  0.4065
25895W        W43419   8.250  16.354  14.797  0.2718 -0.3302  0.2294
25896W        W43420  13.641   7.776   1.560 -0.1347 -0.1492 -0.0588
25897W        W43421  18.357  14.859  13.950  0.0688 -0.2203 -0.2090
25898W        W43422   4.490  14.203   1.572  0.0747 -0.1700  0.2410
25899W        W43423  13.718  11.365   5.331  0.0448 -0.0235  0.2807
25900W        W43424   2.845   7.258   4.591 -0.1410  0.5429 -0.0706
25901W        W43425   8.619   9.537  13.122 -0.0971  0.0605  0.1084
25902W        W43426  18.267   7.267   0.243 -0.0106  0.0300  0.1797
25903W        W43427  12.447   2.980   3.223  0.4348  0.0802 -0.0960
25904W        W43428   7.886   5.546  15.451 -0.0544  0.4867 -0.0260
25905W        W43429   1.510   6.815   2.427  0.1537  0.1208 -0.0800
25906W        W43430   0.007   2.972  10.923  0.3641 -0.2627 -0.0387
25907W        W43431   7.057   5.526   4.708 -0.0580 -0.2791  0.0341
25908W        W43432   4.014   7.595  14.621  0.0047  0.1833 -0.1749
25909W        W43433   9.850   8.579   2.378 -0.0743  0.3214  0.0697
25910W        W43434   3.294   0.770  11.576 -0.4097  0.2460 -0.1896
25911W        W43435   0.507   1.714   2.574  0.1128 -0.0320 -0.1765
25912W        W43436  17.986  14.066  13.555  0.0520 -0.1592 -0.1773
25913W        W43437   4.530   9.391   4.137  0.1029 -0.0263  0.2961
25914W        W43438  12.241   7.826  14.060 -0.0081  0.2427 -0.1438
25915W        W43439  14.070  17.859  15.105 -0.1423  0.0854 -0.0126
25916W        W43440   6.410   1.763   2.528  0.2765 -0.2591  0.0080
25917W        W43441  10.486  12.136  14.100  0.2832  0.0015  0.0268
25918W        W43442  15.870   3.274   4.047  0.2243 -0.0880 -0.0534
25919W        W43443   2.342   6.678  12.127 -0.1401  0.1570  0.0566
25920W        W43444   6.737  12.712  15.755  0.2762  0.4343 -0.2674
25921W        W43445  11.463  10.308  14.454 -0.1461  0.0155  0.3992
25922W        W43446  16.893  10.011  12.259 -0.0976 -0.1528 -0.0586
25923W        W43447   1.258   8.905  14.732 -0.0243  0.2174  0.0883
25924W        W43448   8.442  10.289   2.322 -0.1671  0.4002 -0.2630
25925W        W43449   9.530   4.480   0.659 -0.2282 -0.1925  0.2932
25926W        W43450  15.377   5.670   5.439  0.2145 -0.1458  0.0774
25927W        W43451   0.189   9.473   4.284 -0.2160 -0.1045 -0.1249
25928W        W43452   2.361   7.255   2.346  0.0343 -0.3390  0.1646
25929W        W43453  18.351   8.619  15.188 -0.1038  0.2497  0.1185
25930W        W43454  17.385  14.512  12.794  0.0675 -0.1968 -0.0297
25931W        W43455   2.083   1.700   3.107  0.1537 -0.1073  0.1098
25932W        W43456   8.234   7.288  14.799 -0.1133 -0.0196  0.2369
25933W        W43457   8.331  15.281   0.457  0.1189  0.0700 -0.3930
25934W        W43458   2.408  10.353   2.055 -0.3413  0.1820  0.4401
25935W        W43459   8.485   6.209  11.566 -0.1942 -0.0654 -0.1355
25936W        W43460   1.472   2.326  14.236 -0.0716 -0.0274 -0.2297
25937W        W43461   2.019   5.577   3.611  0.3009 -0.0172 -0.3866
25938W        W43462  17.702   1.854  11.868  0.1899 -0.0282 -0.1483
25939W        W43463   6.445   9.878   4.962 -0.0644 -0.0134  0.1013
25940W        W43464  18.151   5.548  10.815  0.1624 -0.1244  0.2067
25941W        W43465   5.020   8.502   3.761 -0.1639  0.0945  0.0583
25942W        W43466  12.813   9.221   4.243 -0.0159 -0.1476 -0.1409
25943W        W43467  15.480  13.659  14.924  0.2353  0.2332 -0.3240
25944W        W43468  12.002  13.921   0.436 -0.4882  0.0768 -0.0278
25945W        W43469   0.954   7.073  12.067  0.0759 -0.2309  0.0794
25946W        W43470  13.779   5.196  12.580  0.2741  0.1760 -0.1878
25947W        W43471  12.434  14.009   5.183 -0.0757  0.1911 -0.0089
25948W        W43472  13.399   4.971  15.143  0.0340 -0.2485 -0.1781
25949W        W43473  12.535  12.824   0.283  0.1308  0.0013  0.1263
25950W        W43474   7.995   2.001   0.101  0.0296  0.0075 -0.1775
25951W        W43475  12.906   6.187  11.181 -0.0226  0.0239  0.0319
25952W        W43476   8.598  12.866  15.735 -0.3115  0.0687 -0.3668
25953W        W43477  14.748  17.320  15.094 -0.1217  0.0362 -0.0129
25954W        W43478   0.165  17.216   4.704 -0.0851 -0.1594 -0.2931
25955W        W43479   9.845   6.130  11.650 -0.3452  0.1788  0.0229
25956W        W43480  17.837   7.816  14.064  0.0810 -0.3095 -0.0331
25957W        W43481  10.379  17.430  11.404  0.0618 -0.2543  0.0688
25958W        W43482   4.631   8.521  11.894 -0.0271  0.0898 -0.0315
25959W        W43483   4.630  17.450   2.403 -0.2760 -0.0190  0.4657
25960W        W43484  13.358   7.290  11.590 -0.2921  0.0067 -0.3017
25961W        W43485   6.901  10.599  13.900 -0.0161  0.1608 -0.0801
25962W        W43486   7.314   3.786  15.749 -0.1663  0.2370 -0.3346
25963W        W43487  18.270  12.182  11.884  0.1896  0.1855 -0.0779
25964W        W43488   5.593   5.435  15.284 -0.0090 -0.3397 -0.1997
25965W        W43489   4.759  16.129   1.339  0.2136  0.7272  0.0411
25966W        W43490   5.384   6.869   3.785 -0.0222 -0.1140  0.2196
25967W        W43491  17.996   1.065   4.729  0.2071 -0.1138 -0.2473
25968W        W43492  17.902  10.047   1.481  0.0771 -0.0606 -0.0636
25969W        W43493   5.548   8.186  14.423  0.3222 -0.2152 -0.1327
25970W        W43494  10.975  10.146   2.924  0.3267 -0.2609  0.0907
25971W        W43495  11.067  18.340  13.771  0.2366 -0.2035 -0.0220
25972W        W43496   8.159   9.654  13.318  0.1696 -0.0656  0.1731
25973W        W43497   6.584  16.018   4.715  0.0375  0.0164  0.0881
25974W        W43498  17.421   3.750  12.440  0.0483  0.1165  0.1644
25975W        W43499   0.282  17.573  11.493 -0.1086 -0.0564 -0.0788
25976W        W43500  17.299   4.488  14.633  0.2245  0.1430 -0.2730
25977W        W43501   1.886   9.680  12.509  0.1976  0.2633  0.2233
25978W        W43502   1.048  12.015  13.091 -0.0590  0.0150  0.0786
25979W        W43503   6.478   2.664   5.306 -0.0457  0.0466 -0.0702
25980W        W43504   3.020  10.005  11.508 -0.4227  0.1379  0.0557
25981W        W43505  16.735  11.981  14.493 -0.0872 -0.2580 -0.2475
25982W        W43506   1.195   7.164  13.706 -0.0266  0.1355  0.1685
25983W        W43507  17.246   4.948   2.118  0.1591 -0.2665 -0.1565
25984W        W43508  10.728   7.242   3.324 -0.1098  0.1226  0.1422
25985W        W43509   4.589  13.680  13.734 -0.0750  0.0493 -0.0483
25986W        W43510  16.720   2.124   3.975 -0.0509  0.3932  0.0672
25987W        W43511   7.957  16.592  14.378  0.0443 -0.7121 -0.1499
25988W        W43512  14.340   5.546  11.698  0.2071  0.1506 -0.0868
25989W        W43513  13.159  14.784   2.999  0.1828  0.3725 -0.0523
25990W        W43514  10.303  13.675   2.203 -0.0894 -0.0460 -0.1625
25991W        W43515  17.144  14.639  13.691 -0.0535  0.0699  0.0324
25992W        W43516  17.822   3.042   1.920  0.2416  0.2496  0.2327
25993W        W43517   8.266  15.350   4.698 -0.1377 -0.1477 -0.0913
25994W        W43518  16.390   3.098   3.026  0.1498 -0.2432 -0.0834
25995W        W43519  15.816   0.462  12.413 -0.4669 -0.4188  0.0535
25996W        W43520   0.366  15.018  12.883  0.0478 -0.2332  0.1304
25997W        W43521   0.335  13.758  15.313  0.2212  0.0523 -0.0978
25998W        W43522  11.180   4.084  15.456 -0.0603  0.1777 -0.0675
25999W        W43523  16.976   0.583   3.694  0.0714 -0.1023 -0.0409
26000W        W43524   7.806  10.144   1.167  0.2443  0.0074 -0.1565
26001W        W43525  16.111  15.360   0.921  0.2422 -0.0418  0.2890
26002W        W43526   2.125   5.596  11.448  0.0405 -0.1759  0.1183
26003W        W43527  12.061   0.833   4.319 -0.2136  0.2527 -0.0014
26004W        W43528  17.330  12.668   0.475 -0.0594  0.0423 -0.0513
26005W        W43529  17.628  17.355   1.388 -0.1603 -0.1059  0.1909
26006W        W43530  15.962  11.241  15.540  0.1307  0.0649  0.0641
26007W        W43531  11.410   7.822   2.884 -0.1659 -0.2205  0.0697
26008W        W43532   2.941  15.973   2.925  0.0712  0.0430  0.3240
26009W        W43533  16.144  15.253   1.475  0.0805  0.3181 -0.3316
26010W        W43534  12.762  13.322   3.336 -0.0340  0.3930 -0.1262
26011W        W43535   9.850  11.372   4.294 -0.1502  0.0371  0.0598
26012W        W43536   3.529  17.045  11.904  0.3601  0.1292 -0.2471
26013W        W43537   8.805  14.984   3.132 -0.1971 -0.2867 -0.0304
26014W        W43538   9.699  18.345   4.789 -0.1266 -0.2482 -0.0077
26015W        W43539  15.440   1.959  15.538 -0.0707 -0.0597 -0.1837
26016W        W43540   3.979   8.492   0.245  0.2058 -0.2877 -0.2787
26017W        W43541  13.624   9.655  15.743 -0.0397 -0.2208  0.3323
26018W        W43542  14.566  10.993  13.410 -0.0874 -0.3223  0.0307
26019W        W43543  15.733   1.024  12.150 -0.1739  0.1360  0.0491
26020W        W43544  13.977  11.234  10.223  0.1806 -0.2809 -0.2367
26021W        W43545   3.874   8.202   3.686 -0.2096 -0.2702 -0.0424
26022W        W43546  13.877  10.118  15.341 -0.0893 -0.1528  0.2640
26023W        W43547   8.638   4.875  12.023  0.0362  0.0140 -0.1627
26024W        W43548  12.402   5.751   3.511  0.2853 -0.3118 -0.0280
26025W        W43549  17.845   6.075  13.801 -0.3073  0.1785  0.1747
26026W        W43550  18.014  12.062   4.157 -0.1248 -0.1604 -0.0286
26027W        W43551  16.154  16.744   4.534  0.0352 -0.1605 -0.3079
26028W        W43552  13.053   5.861   0.788 -0.0103  0.1019  0.1015
26029W        W43553   5.546   1.363  12.954  0.0826 -0.2330 -0.2586
26030W        W43554  12.999  12.379  13.904 -0.0817  0.2111  0.3870
26031W        W43555   1.418   6.282  14.135 -0.0004 -0.2107 -0.0481
26032W        W43556   3.500  10.216   3.967 -0.0152 -0.0525  0.1902
26033W        W43557  10.431   1.867   3.092 -0.4495  0.2387  0.2712
26034W        W43558   1.966   0.614   9.798 -0.1853 -0.1740  0.0555
26035W        W43559   7.563   2.498  13.350  0.2211  0.1830 -0.1046
26036W        W43560  10.445   0.060   0.883  0.0832  0.2345 -0.2712
26037W        W43561  15.160  16.874  14.962 -0.0750 -0.0331  0.0304
26038W        W43562  18.152  15.870   1.663 -0.3428 -0.2466 -0.2279
26039W        W43563  17.266   6.054   4.294 -0.0266  0.0705 -0.1246
26040W        W43564  10.700  15.996  12.748 -0.0216 -0.0368 -0.1026
26041W        W43565   9.032  13.192   5.123 -0.2193  0.2184  0.1592
26042W        W43566  13.433  16.357  14.175 -0.1020 -0.1025  0.1846
26043W        W43567  13.599  10.682  14.396 -0.1879 -0.2019 -0.1147
26044W        W43568   3.249  13.058  11.787  0.2469 -0.3089  0.0249
26045W        W43569  12.294   3.185   0.093 -0.0300  0.1471  0.2228
26046W        W43570  13.956   1.251   1.333  0.0912  0.0435 -0.1868
26047W        W43571  13.472  12.653   0.293  0.2416  0.0163 -0.1988
26048W        W43572   7.927   6.651   9.863 -0.1306 -0.0920  0.1817
26049W        W43573   5.961   5.275  11.833 -0.1365  0.0355  0.1496
26050W        W43574   1.622  15.583   0.468  0.0040  0.1206  0.1441
26051W        W43575  17.824   2.523   1.821 -0.1872  0.0084 -0.0728
26052W        W43576   4.726   6.460   1.695 -0.0044 -0.0461 -0.0481
26053W        W43577  15.524   8.403   4.453  0.1607  0.0553 -0.0216
26054W        W43578   8.737  17.399   1.395 -0.2603  0.0220 -0.0460
26055W        W43579  11.960  17.902   3.440 -0.0595  0.2296 -0.1090
26056W        W43580   1.748  17.796  13.402 -0.0876 -0.0510  0.1719
26057W        W43581  18.339  17.306  11.969  0.0521 -0.0156  0.3959
26058W        W43582   7.897   5.569  14.596  0.2951 -0.1588  0.0432
26059W        W43583   1.682   0.311  15.495 -0.1058 -0.1251  0.3090
26060W        W43584  10.892   6.089   1.659  0.0121  0.0604 -0.0232
26061W        W43585  14.556   3.464   1.642 -0.0827  0.2568  0.2300
26062W        W43586   2.024   2.986   3.879  0.0932  0.0598 -0.0283
26063W        W43587  11.343   5.158  13.752  0.0209 -0.1534  0.2208
26064W        W43588  17.707  13.309   3.026 -0.1281 -0.1311  0.2412
26065W        W43589   4.445  14.843   4.105  0.3162 -0.0874  0.1916
26066W        W43590  16.466   3.525   3.393 -0.1588  0.0111 -0.2629
26067W        W43591   0.328  15.885  11.353 -0.0546 -0.1375 -0.3260
26068W        W43592  11.472   1.994  14.248  0.0161 -0.5090  0.2150
26069W        W43593  12.934  14.466  15.349  0.0711  0.1015  0.0859
26070W        W43594  10.895  15.946   0.401  0.0991  0.1711 -0.0179
26071W        W43595  13.345   9.843   5.082 -0.0625 -0.1830  0.2189
26072W        W43596  12.761  13.792   2.898 -0.2267  0.1027 -0.2601
26073W        W43597  18.147  14.674   1.510  0.1685  0.0241  0.1859
26074W        W43598   2.668   2.390   1.514 -0.0073 -0.0388  0.0851
26075W        W43599  11.895   9.343  14.721  0.2561  0.1451  0.0207
26076W        W43600   9.062   3.568   4.477  0.1754  0.1963 -0.1157
26077W        W43601   3.277  12.163  14.662 -0.2495  0.0824 -0.2224
26078W        W43602  15.399  16.999   2.025  0.1178 -0.1157 -0.2186
26079W        W43603   0.362   2.731  10.040 -0.2291  0.0218 -0.0933
26080W        W43604   1.074  15.998   1.455 -0.1554 -0.0492  0.1457
26081W        W43605  10.609   6.335   0.358  0.1366  0.0331  0.2373
26082W        W43606  10.989   4.673  14.585  0.1401  0.0602  0.1574
26083W        W43607   6.610   4.798   2.767 -0.1775 -0.0893  0.2201
26084W        W43608   7.551   8.688   3.353  0.0742  0.0786 -0.2026
26085W        W43609  16.198   6.701   0.125  0.1460 -0.0572 -0.0641
26086W        W43610   0.180   4.933  12.137 -0.0076 -0.0634 -0.1235
26087W        W43611  11.995   2.106  10.368 -0.1668  0.1679 -0.3700
26088W        W43612  10.377  16.864   0.156 -0.0957 -0.0348 -0.2230
26089W        W43613   9.716  11.796   4.636  0.1913  0.2102  0.3381
26090W        W43614   9.183   8.942   0.765  0.1858  0.2234 -0.2471
26091W        W43615  13.353  16.969   0.219  0.2726 -0.0493 -0.3815
26092W        W43616   3.605  14.837  10.921  0.1134 -0.1022 -0.1368
26093W        W43617   9.969  10.334  15.719 -0.1368  0.0671 -0.1586
26094W        W43618   7.092  18.026  13.915  0.0461 -0.0032 -0.2422
26095W        W43619   1.803  11.678   0.492 -0.2781  0.1586  0.0407
26096W        W43620  14.750   9.950   1.540  0.1772 -0.2580  0.1218
26097W        W43621  15.961   5.443   0.500 -0.0726 -0.1892 -0.1681
26098W        W43622  10.415  12.598   5.929 -0.1408  0.0270 -0.0223
26099W        W43623   7.206   2.888  14.232 -0.0888  0.0739  0.1362
26100W        W43624   8.510  13.357   5.124  0.1858  0.0580  0.3880
26101W        W43625  12.435   6.088   2.355 -0.1617 -0.1186 -0.2730
26102W        W43626   6.157   0.401  11.973 -0.0198 -0.2809  0.3326
26103W        W43627   6.268  13.042   4.390  0.2880 -0.3394 -0.2083
26104W        W43628  12.894  10.934   5.086 -0.1963 -0.1077 -0.1699
26105W        W43629  13.513   0.055  11.482 -0.0377 -0.1829  0.3016
26106W        W43630   3.178  12.753   0.410  0.1466 -0.3651 -0.0761
26107W        W43631  13.457  13.588  13.748  0.1927  0.1426  0.1036
26108W        W43632   3.381   8.217   2.733  0.1886  0.1348 -0.0260
26109W        W43633   9.340  14.909   3.286  0.0996 -0.0192 -0.0273
26110W        W43634   7.651  15.509   0.764 -0.0684  0.2743  0.1663
26111W        W43635   6.504   9.670   1.136  0.3093 -0.1434 -0.1552
26112W        W43636   2.138   1.096   0.814  0.4806 -0.0048 -0.1490
26113W        W43637  11.851  15.281   2.112 -0.0000 -0.2182  0.1184
26114W        W43638  15.357   2.314  13.047 -0.1399 -0.2379 -0.2238
26115W        W43639   2.954   6.454  14.660 -0.1277  0.0275 -0.1704
26116W        W43640  12.091  11.893   1.136  0.0871 -0.5399 -0.3098
26117W        W43641  15.577   5.805  11.769 -0.3018  0.0279 -0.0189
26118W        W43642   7.333   9.641   4.960 -0.0458 -0.0921 -0.3326
26119W        W43643  14.363   5.261  13.517 -0.2560  0.1321 -0.0107
26120W        W43644  14.105   2.990   1.633 -0.0649 -0.1556  0.0648
26121W        W43645  15.176   5.667  13.112  0.0448 -0.0322 -0.2913
26122W        W43646   4.280  13.367   0.844 -0.0315  0.0549 -0.2325
26123W        W43647   5.155   3.271   1.955  0.1728  0.2351  0.3066
26124W        W43648   5.456   7.108  13.939 -0.0728 -0.2100  0.4162
26125W        W43649   4.983   9.005   1.955 -0.2982  0.1092  0.1384
26126W        W43650  16.788  15.700  13.154  0.0319  0.0546 -0.0929
26127W        W43651   6.249  13.861   3.504 -0.0798  0.1143 -0.2126
26128W        W43652  14.796   0.183  10.864  0.1899  0.0478 -0.1263
26129W        W43653   7.877   2.324   4.887 -0.0662  0.1358  0.0904
26130W        W43654   5.998   9.465  10.956 -0.2864 -0.1116 -0.0256
26131W        W43655   4.136   7.157   5.619  0.3281  0.0229 -0.3479
26132W        W43656   9.715  13.227  11.421 -0.2880  0.0102  0.0447
26133W        W43657   8.463  12.858  14.442 -0.0505 -0.2667  0.4168
26134W        W43658  15.715   1.581  11.276  0.1974 -0.2056  0.1179
26135W        W43659  15.387   5.643  15.110  0.1466 -0.1107  0.2824
26136W        W43660  18.206  14.001  11.419 -0.2032 -0.0586  0.1119
26137W        W43661  18.140  16.999  12.802  0.0579 -0.2399  0.0983
26138W        W43662  10.494   9.304   4.022  0.0576 -0.1316 -0.0831
26139W        W43663   8.999  18.369   4.369 -0.2481  0.2035 -0.2286
26140W        W43664   6.847   6.056   1.322 -0.0835  0.0948 -0.2418
26141W        W43665  10.820   8.418   1.701 -0.2190  0.0611 -0.0885
26142W        W43666   8.469  17.259  13.693 -0.0181 -0.0020 -0.3231
26143W        W43667   0.373  14.105  14.336 -0.1577 -0.0138  0.2224
26144W        W43668  10.983   3.160  15.479 -0.1832  0.0277  0.1321
26145W        W43669  11.080  12.980   3.209 -0.3094  0.3259  0.1748
26146W        W43670   0.230  16.382  12.290  0.1567 -0.0226 -0.3024
26147W        W43671  12.021   2.389  12.379  0.2542 -0.1415 -0.3749
26148W        W43672   9.475  15.822   3.574 -0.0998 -0.3852  0.0221
26149W        W43673   3.852  12.526   4.626  0.2285 -0.2508  0.1997
26150W        W43674  15.470  11.434   3.690 -0.2716 -0.3218 -0.1321
26151W        W43675  15.671   5.152  15.331  0.0178 -0.3253 -0.1576
26152W        W43676  11.045   1.942   4.827  0.1836 -0.2456  0.5407
26153W        W43677   1.579   6.289   1.249  0.1752 -0.0128  0.3286
26154W        W43678   7.117  16.922   0.732 -0.4072  0.1409 -0.0343
26155W        W43679   5.776   0.200   3.462  0.2910 -0.0535  0.0699
26156W        W43680  18.178   6.799   0.867  0.2226 -0.0646  0.1925
26157W        W43681  17.518   2.024   4.872 -0.0601  0.0257  0.2022
26158W        W43682  18.130   8.425  11.380  0.2151 -0.1844  0.0209
26159W        W43683   3.914  12.403   1.674  0.0788  0.2329  0.2397
26160W        W43684   1.074   8.983  10.957  0.1039 -0.0157  0.2011
26161W        W43685   7.001   7.497   0.998 -0.0554 -0.1145 -0.0106
26162W        W43686   7.117   3.920  11.413 -0.1312 -0.0339 -0.5078
26163W        W43687   5.865  14.842  10.991  0.3450 -0.0800  0.2324
26164W        W43688   5.782   3.183  15.101  0.0944  0.2832 -0.2326
26165W        W43689   7.880   2.065  14.049 -0.0266  0.3620 -0.4735
26166W        W43690  15.452  11.805   3.134  0.0521 -0.4770 -0.1813
26167W        W43691   3.419   0.696   0.468 -0.0995  0.0322 -0.1608
26168W        W43692  13.215  18.153   2.208  0.1663  0.0561 -0.0534
26169W        W43693  17.872  15.987   4.224  0.0513 -0.1738  0.1192
26170W        W43694  11.810   6.034   4.395  0.2478 -0.3030 -0.1130
26171W        W43695  13.108  16.177  12.101  0.0145  0.4188 -0.0358
26172W        W43696  12.938  15.205  15.236 -0.0476 -0.0653  0.1451
26173W        W43697   7.529  16.128   3.713  0.1367  0.1255  0.1694
26174W        W43698  14.167  10.459  12.029  0.0257  0.3715  0.1829
26175W        W43699   7.807   6.502   1.224 -0.2059  0.3465  0.1611
26176W        W43700  17.204  17.615  10.294 -0.1577 -0.0919  0.0231
26177W        W43701   3.461  16.721   4.543  0.0662 -0.4759 -0.0593
26178W        W43702   4.702   5.659  11.641  0.2436  0.1342 -0.1178
26179W        W43703   3.804  10.556  14.717  0.2956  0.0093 -0.0335
26180W        W43704   9.438   2.577   0.624  0.1376  0.0529  0.0425
26181W        W43705   2.509  11.735  14.839  0.0440  0.0233 -0.0621
26182W        W43706  14.205   2.965   3.956  0.0328 -0.4271  0.3406
26183W        W43707  10.102   6.048  14.619  0.3396  0.0861  0.0971
26184W        W43708  11.343   3.556   0.459  0.2110  0.1381  0.1289
26185W        W43709   0.213  14.218  12.455 -0.2348  0.0249  0.1647
26186W        W43710  15.628   7.869   4.743  0.5035 -0.0468  0.1814
26187W        W43711   3.735  12.844   4.076 -0.3096  0.3471 -0.2471
26188W        W43712   4.054   6.831  15.036  0.2163  0.2201 -0.2534
26189W        W43713   6.035  14.798   2.463  0.1255 -0.1893  0.1048
26190W        W43714  14.167  16.924   3.242 -0.0336 -0.0227  0.0130
26191W        W43715   5.474  10.102  11.127 -0.1586  0.0200 -0.0230
26192W        W43716   6.947  14.593  11.837 -0.2655 -0.0082 -0.6347
26193W        W43717  11.721   2.000  15.489 -0.1653 -0.1334  0.1232
26194W        W43718   8.728  13.053  15.243  0.0114  0.6731 -0.0576
26195W        W43719   0.046   3.978  14.967  0.2196  0.4737  0.0243
26196W        W43720  12.825  12.168   1.504 -0.1398  0.2075 -0.0101
26197W        W43721   3.839   0.989   0.363 -0.0505 -0.1616 -0.0848
26198W        W43722   8.686  11.611  15.695 -0.1809  0.0081  0.3086
26199W        W43723   0.217   9.004  15.284 -0.0241  0.0412 -0.2932
26200W        W43724   4.271   3.808   3.329  0.0093  0.1036  0.0876
26201W        W43725   3.115  17.104  13.628 -0.0099  0.2450 -0.1484
26202W        W43726  12.963  13.399  14.237 -0.1460  0.0070  0.3372
26203W        W43727   5.716   0.990  10.687 -0.2769  0.0270  0.1671
26204W        W43728   1.882   8.179  14.653  0.2878 -0.2082  0.2777
26205W        W43729  14.747   4.057   2.414 -0.4291 -0.1877  0.2704
26206W        W43730  16.181  11.211   3.130 -0.0213 -0.0284  0.2445
26207W        W43731   8.108   6.616   3.385 -0.0984 -0.0270 -0.0091
26208W        W43732  13.698  15.899  13.237 -0.1949 -0.2845  0.1901
26209W        W43733  16.759   7.620  10.653  0.0208 -0.1668 -0.1037
26210W        W43734   7.153  16.634  13.510 -0.0870  0.3888  0.0688
26211W        W43735  14.711   0.679   3.069 -0.1660 -0.1423 -0.0780
26212W        W43736   1.844   4.458   5.510 -0.1782 -0.0550 -0.1683
26213W        W43737  11.017   1.274  14.750  0.0852 -0.2393 -0.1552
26214W        W43738  15.994  12.095   3.379  0.3489  0.0556 -0.0656
26215W        W43739   4.199   8.158  13.265 -0.0803  0.0110 -0.0749
26216W        W43740   9.835  14.820  14.281 -0.0498  0.3701 -0.2169
26217W        W43741   0.456  15.297  14.874 -0.4458  0.1741  0.0444
26218W        W43742   5.266   8.299  11.983 -0.1028  0.0221 -0.0324
26219W        W43743   8.435   5.100   2.431 -0.0848 -0.2064 -0.4214
26220W        W43744   6.194  17.402   5.311 -0.0596  0.2055 -0.0125
26221W        W43745   3.196   5.083  14.005 -0.0194  0.1051 -0.1491
26222W        W43746  16.359   9.762   3.911 -0.0570  0.1482  0.2103
26223W        W43747   1.458  17.562   0.260 -0.1851 -0.3437  0.1150
26224W        W43748  15.900  10.302  15.210  0.1616  0.0346  0.1437
26225W        W43749   9.890  16.023   0.277  0.0383  0.3274  0.0293
26226W        W43750  13.930   0.102  12.967  0.0265 -0.2934  0.1018
26227W        W43751  16.565   0.064  14.193 -0.0978 -0.0083  0.1362
26228W        W43752   6.460  16.625  15.284 -0.2002  0.1033 -0.1013
26229W        W43753  17.843   0.100   0.635 -0.4881  0.0724  0.1238
26230W        W43754  13.619   4.792   2.336 -0.2257  0.0973  0.1169
26231W        W43755   6.269   4.969   4.424 -0.1634  0.1570 -0.1032
26232W        W43756   2.222   6.513   4.440 -0.0024  0.1747 -0.0337
26233W        W43757  15.191   1.729   0.549  0.5629  0.1713  0.1790
26234W        W43758  14.429   2.237   0.992 -0.0705 -0.1178 -0.2437
26235W        W43759   7.538  12.196   1.466  0.1365 -0.0287  0.2612
26236W        W43760  17.608   5.377  12.556 -0.4835 -0.0603 -0.3646
26237W        W43761  11.174  15.337   0.989  0.0597 -0.1449 -0.2156
26238W        W43762   6.492   2.553  10.929 -0.2067  0.0352  0.0022
26239W        W43763  12.416   5.625   0.428 -0.1138  0.1754  0.2493
26240W        W43764  17.068  14.353   3.655  0.0989 -0.1911 -0.1199
26241W        W43765  15.409   3.284  11.904  0.1060  0.2144  0.3465
26242W        W43766  11.803  12.849  13.920  0.0065  0.2632  0.0290
26243W        W43767  14.239   0.321   5.710  0.1016  0.0684  0.1040
26244W        W43768   2.255   4.164   2.124 -0.0162  0.0317 -0.1831
26245W        W43769  16.641  12.926   4.201  0.1952  0.0296 -0.1168
26246W        W43770   2.899  16.047   0.806 -0.0053 -0.1283  0.1554
26247W        W43771  10.304   1.744  12.054 -0.2092  0.0436 -0.2794
26248W        W43772  11.015  18.373   2.095  0.2678  0.0759  0.0116
26249W        W43773  10.517  15.135  15.128 -0.4755  0.2955  0.0049
26250W        W43774  12.538  11.136   1.848 -0.2075  0.1286 -0.0752
26251W        W43775  11.674  12.946  14.412  0.1321 -0.1037  0.1664
26252W        W43776   4.574  12.355  12.535  0.3891  0.0093 -0.1751
26253W        W43777  10.436  17.253  13.160 -0.1123  0.0683 -0.2964
26254W        W43778  17.052  11.002   2.599 -0.1078 -0.1226  0.0399
26255W        W43779  14.043   7.549   0.963  0.1668  0.0935 -0.1641
26256W        W43780  12.606   2.764   3.966  0.1422 -0.1907  0.0667
26257W        W43781  12.178  16.671  13.685 -0.1321  0.0037 -0.1552
26258W        W43782   5.865  12.424  12.884  0.2294  0.0652 -0.1315
26259W        W43783   2.399  17.724   1.876  0.2523  0.2142  0.1974
26260W        W43784  12.791  13.664  13.644 -0.0501  0.1720 -0.1960
26261W        W43785   6.914   2.214  14.925  0.0350  0.2062  0.1965
26262W        W43786   3.719   6.291  14.240  0.3411 -0.0628  0.0449
26263W        W43787  14.487   3.931   1.944  0.1430 -0.0923  0.2259
26264W        W43788   9.195  13.228   2.998 -0.2005  0.2670  0.0740
26265W        W43789   6.358   6.996  12.923  0.0381  0.2660 -0.0574
26266W        W43790   1.807  13.592   3.603  0.1507 -0.0927 -0.1471
26267W        W43791   5.530  10.464   1.430 -0.0690 -0.0208 -0.0999
26268W        W43792  11.175   3.723   0.032  0.1384 -0.3518 -0.0866
26269W        W43793   9.465   9.935  13.880 -0.1510 -0.1069  0.1556
26270W        W43794  15.873  14.740  14.217  0.0660 -0.0293  0.0363
26271W        W43795   1.898  14.285   0.716 -0.1077  0.1207 -0.2072
26272W        W43796   5.926  12.993  14.959 -0.1601  0.0116 -0.0536
26273W        W43797   6.360   5.092  15.250 -0.1747  0.0107  0.1818
26274W        W43798   8.967  18.226  15.635 -0.1758  0.1042  0.0957
26275W        W43799  13.585  14.629   5.553  0.1490 -0.0776  0.0255
26276W        W43800  14.861   5.336  11.410  0.3040  0.1587 -0.1775
26277W        W43801  12.825   0.431   1.626 -0.1023 -0.0393 -0.1523
26278W        W43802  15.215   4.582   3.394 -0.0284 -0.1861  0.1702
26279W        W43803  17.392   2.543  15.687 -0.0328  0.2326 -0.0501
26280W        W43804  14.085  12.329  13.946 -0.2844 -0.0127 -0.1420
26281W        W43805   1.215   1.516  12.360 -0.2400 -0.1418 -0.0834
26282W        W43806  16.723  11.497  14.479  0.1842  0.0011  0.1518
26283W        W43807   6.141  16.621  12.700 -0.0031 -0.0864 -0.0328
26284W        W43808  11.910  13.229   5.300  0.4390 -0.2936  0.1684
26285W        W43809  12.485  13.939  14.685  0.0107  0.0110  0.0744
26286W        W43810   9.441   9.137   4.884 -0.0763 -0.2708  0.4708
26287W        W43811   0.189  13.400  15.631  0.0763  0.2200  0.0635
26288W        W43812  13.675  15.462   2.120  0.2303 -0.3333 -0.0278
26289W        W43813  12.492  10.187  15.651 -0.0253 -0.1313 -0.1166
26290W        W43814  13.061   5.761  14.595  0.4072 -0.0745 -0.0019
26291W        W43815   5.997  10.560  15.231 -0.0660 -0.3231 -0.4728
26292W        W43816   1.120   6.047   4.493  0.1195  0.0669  0.1741
26293W        W43817   5.211   7.707  15.334  0.4394  0.1101  0.1108
26294W        W43818  14.134   2.198  12.562  0.1393  0.0723 -0.0539
26295W        W43819  13.464  10.933  13.360  0.0723  0.2910  0.3529
26296W        W43820   2.737   5.389  12.413  0.1769  0.1258  0.0636
26297W        W43821   9.982  12.019  14.272 -0.1985  0.1710 -0.0994
26298W        W43822  14.812  15.650   4.464  0.1526  0.2800  0.2739
26299W        W43823   9.245  10.042  14.612 -0.1408  0.0751 -0.1140
26300W        W43824   7.517   0.820   0.882  0.2007  0.0853 -0.0187
26301W        W43825   8.858   7.571  14.581  0.1299 -0.2348 -0.1932
26302W        W43826   6.879   1.275   1.757 -0.1345  0.0756  0.2522
26303W        W43827   4.766  14.932   2.610 -0.2910 -0.1312 -0.1931
26304W        W43828  17.024   8.387   2.301  0.0027  0.0132 -0.0727
26305W        W43829   7.017   0.233  12.258 -0.0895 -0.2575 -0.2598
26306W        W43830  16.246  13.909   4.865 -0.1806 -0.0033  0.0019
26307W        W43831  17.844   2.698   2.350  0.2431  0.1306 -0.0951
26308W        W43832   6.251   0.712  12.551 -0.1864 -0.1221 -0.2307
26309W        W43833  14.155  14.112  12.520  0.2167 -0.2082  0.2094
26310W        W43834   1.240  17.457   9.980 -0.1002  0.0172  0.0652
26311W        W43835   7.985  12.120  12.991 -0.2846 -0.1477 -0.0047
26312W        W43836   0.731   8.978  14.955 -0.0093  0.3124 -0.2064
26313W        W43837   2.442   8.109   4.794  0.2701 -0.1420 -0.0650
26314W        W43838  18.225  13.477   1.337 -0.0310 -0.1787 -0.1180
26315W        W43839  17.444   5.195  10.785  0.3300  0.0393 -0.0185
26316W        W43840  16.467  17.841   0.025 -0.2207 -0.0706  0.0184
26317W        W43841   1.505   5.618  13.290 -0.3388 -0.0109 -0.0346
26318W        W43842  14.151   0.890   3.034 -0.1069 -0.4251  0.0078
26319W        W43843   7.671   2.248  12.893 -0.0166  0.0226  0.2493
26320W        W43844   5.411   3.750   0.154 -0.1875 -0.0496  0.1204
26321W        W43845   6.266   8.742  15.687 -0.1536 -0.0736  0.0339
26322W        W43846   4.302  13.676   2.563 -0.0309 -0.2156 -0.0197
26323W        W43847  17.070   2.709  12.064  0.2856  0.1480 -0.0907
26324W        W43848   7.187  16.573   3.576  0.1797 -0.0120  0.0440
26325W        W43849   7.083  10.608   0.469  0.2058 -0.1339  0.1174
26326W        W43850   6.559  13.223  12.908 -0.0823 -0.1086 -0.1352
26327W        W43851   1.347  10.530   1.895  0.3040 -0.0183  0.0942
26328W        W43852   6.638  10.204  14.129  0.0663 -0.1575  0.4054
26329W        W43853   6.281   9.030  12.202 -0.0533  0.3536 -0.2716
26330W        W43854   1.773  15.392  11.196  0.1734 -0.2645 -0.0172
26331W        W43855   2.784   9.328   3.834 -0.0428  0.0225 -0.1654
26332W        W43856   6.696   3.567   0.695  0.0422  0.4542 -0.1192
26333W        W43857   0.159  15.901   2.104  0.1166  0.0923 -0.0945
26334W        W43858   3.034  17.098   1.011  0.1904 -0.0866  0.3034
26335W        W43859   8.309   1.923  13.645 -0.2441 -0.0607 -0.2459
26336W        W43860   7.553  14.940   0.553 -0.0278  0.2173 -0.1084
26337W        W43861   8.573   1.594  15.391 -0.2307 -0.2981 -0.1817
26338W        W43862  14.386  17.468   1.250 -0.2811 -0.3711  0.0739
26339W        W43863  10.072   2.003   4.564 -0.0249 -0.2113  0.1794
26340W        W43864   0.145   6.264  10.121  0.2155 -0.3246  0.0673
26341W        W43865   7.075   6.906  13.475 -0.3876  0.0122 -0.2946
26342W        W43866  13.468  15.553   0.678 -0.3775 -0.3439 -0.1745
26343W        W43867   0.186   8.127  15.114 -0.1449 -0.1482  0.0207
26344W        W43868  10.804   2.378  15.525  0.0092  0.1755 -0.0853
26345W        W43869  13.754   8.828  14.038  0.1810 -0.0097  0.0468
26346W        W43870  15.159   5.161  15.277  0.0400 -0.3549 -0.1210
26347W        W43871   4.204  12.670   0.895 -0.2804  0.0912  0.0216
26348W        W43872   1.083   9.885   9.909  0.3402  0.3071  0.1676
26349W        W43873  15.211   8.709   3.917  0.0108 -0.2787 -0.1910
26350W        W43874  11.031   6.475   5.464 -0.1532 -0.0762  0.2634
26351W        W43875   0.205   5.169   3.539  0.1300  0.2541 -0.0724
26352W        W43876   7.401  15.406   2.531  0.1860 -0.2092 -0.0019
26353W        W43877  15.028  13.124  15.454  0.4767 -0.1690  0.0007
26354W        W43878  11.047  10.026  15.073  0.1554 -0.1443  0.1246
26355W        W43879   9.310  16.939  14.084  0.0433  0.1365  0.1751
26356W        W43880   5.097   5.272   2.752 -0.0373 -0.2153  0.2865
26357W        W43881  15.018   4.929  11.759  0.1627  0.1791  0.0569
26358W        W43882   7.442   8.583  14.194 -0.3279 -0.3919  0.0823
26359W        W43883  18.280  15.367   2.668 -0.2802 -0.0489  0.0493
26360W        W43884   5.688  13.405  14.496 -0.2365 -0.0535 -0.2598
26361W        W43885   7.982  17.889   0.865 -0.0779 -0.1729 -0.0422
26362W        W43886  16.099   3.556   3.046  0.3295 -0.2753  0.0409
26363W        W43887   7.751   6.972  15.223 -0.0109  0.2666  0.0158
26364W        W43888   4.708   6.413  10.010  0.2938 -0.1009 -0.2085
26365W        W43889   0.309   5.465   0.246 -0.1943 -0.0726  0.0145
26366W        W43890  18.347   8.363   0.579  0.2513 -0.4435  0.2616
26367W        W43891  18.136   4.644  13.753  0.0982  0.1416  0.0507
26368W        W43892  11.957  14.424   0.608 -0.0083  0.1189  0.0939
26369W        W43893  10.713   0.920  12.982  0.1128  0.0828 -0.2579
26370W        W43894   9.396   6.666  15.506 -0.0141  0.0949  0.1258
26371W        W43895  14.910  17.625   9.933 -0.1499 -0.1127  0.3400
26372W        W43896  10.673   4.003  15.185  0.2269 -0.0792  0.2456
26373W        W43897   7.424   8.705  15.252  0.0965  0.2055 -0.1511
26374W        W43898   3.899   8.196   2.899  0.2948 -0.1123 -0.2374
26375W        W43899  14.012  17.958   4.315  0.0067  0.2455  0.1777
26376W        W43900   7.283   5.875   3.284 -0.0612 -0.1204  0.4168
26377W        W43901   8.302   1.507   3.525  0.0099  0.0624 -0.1019
26378W        W43902  14.454   2.996  11.358  0.1489  0.1735  0.0052
26379W        W43903  16.440  15.333  11.381  0.0162 -0.3907  0.3794
26380W        W43904   5.540  11.009  14.644 -0.1820  0.0925 -0.1855
26381W        W43905   5.534  14.921  12.677 -0.1783  0.3233  0.3632
26382W        W43906  14.441  12.054  15.132 -0.2725  0.3448 -0.0151
26383W        W43907  11.863  10.465  11.408 -0.1189 -0.0882  0.0185
26384W        W43908  10.892  16.517  14.229 -0.1474 -0.0909 -0.0588
26385W        W43909   1.673  18.177   1.631  0.3434  0.0517 -0.0959
26386W        W43910   4.609   2.873  10.675  0.1454 -0.1105 -0.1464
26387W        W43911   7.046  12.344  15.835 -0.1290 -0.3675 -0.2751
26388W        W43912   9.110   5.125  15.803  0.0965  0.3470  0.0640
26389W        W43913   0.282   8.808  12.489  0.2113  0.4049 -0.4244
26390W        W43914  17.284   6.599   5.325  0.4651  0.2041  0.3156
26391W        W43915   4.816  12.189   3.768 -0.0498 -0.0683  0.3782
26392W        W43916  14.625   4.039  13.728  0.2119  0.1632 -0.4547
26393W        W43917   3.531  18.077  13.269 -0.1201 -0.1955 -0.1183
26394W        W43918   0.792   3.220   5.001  0.3841 -0.1888  0.1906
26395W        W43919  13.204   6.674   5.914 -0.0600  0.1854  0.0799
26396W        W43920  13.091   7.975  13.146 -0.0820 -0.3425  0.3189
26397W        W43921   5.909   9.478  13.047  0.1212 -0.0656  0.0604
26398W        W43922  15.635   7.423  13.226 -0.0726  0.2620 -0.1114
26399W        W43923  17.454   8.522  15.232  0.2273  0.1707  0.0425
26400W        W43924  15.909  11.685   3.776  0.5703  0.0030  0.1976
26401W        W43925   5.762  12.909   2.549  0.0456  0.1019 -0.1537
26402W        W43926  11.602  11.707  12.852  0.0774  0.2643  0.0455
26403W        W43927  13.934  12.686   3.717  0.2231 -0.1259  0.0751
26404W        W43928   0.913   2.237   1.874 -0.1855 -0.0667 -0.0910
26405W        W43929   4.053   6.494  13.932 -0.0155 -0.1122 -0.3087
26406W        W43930  15.312   2.328  12.533 -0.0474  0.1747  0.1183
26407W        W43931  15.310   5.300   2.852 -0.3601 -0.2850 -0.1815
26408W        W43932  18.221   4.089  13.129 -0.2502 -0.1027  0.0162
26409W        W43933   5.117   2.124  12.258 -0.0370 -0.0956  0.2839
26410W        W43934  13.668  10.316   1.688  0.0587  0.1072 -0.1413
26411W        W43935   9.292   9.483  15.748  0.2066 -0.2774 -0.2191
26412W        W43936   1.563  16.550   2.147 -0.1580  0.0453 -0.0786
26413W        W43937  18.212   1.190   2.136 -0.0264  0.0507 -0.1820
26414W        W43938   9.576  10.346  12.655 -0.1055  0.1123 -0.0661
26415W        W43939   5.425   4.566   3.971 -0.0333  0.3743  0.1490
26416W        W43940   2.286   8.851  12.745  0.3623 -0.0554 -0.2204
26417W        W43941  13.520   4.445   1.957 -0.3055 -0.1873  0.3280
26418W        W43942  16.727  13.821   4.989  0.1791  0.0279  0.1506
26419W        W43943  15.515  10.872  15.665 -0.1697  0.0915 -0.5298
26420W        W43944   5.126  16.904  15.624  0.1842 -0.4266  0.1169
26421W        W43945  11.168   3.346  10.664 -0.0840  0.0324  0.0526
26422W        W43946   7.425  17.545   4.560  0.1650  0.2356 -0.3981
26423W        W43947  13.655  14.579  13.653  0.0366 -0.0972 -0.0271
26424W        W43948   5.984   9.128   1.682 -0.2386  0.1353 -0.0957
26425W        W43949   9.994   0.186   4.489  0.2197  0.0240  0.0791
26426W        W43950   2.783  11.662   0.155 -0.2894 -0.0079  0.0034
26427W        W43951   8.743  13.166   3.226 -0.0158 -0.2084 -0.1327
26428W        W43952   4.440   0.587  10.848  0.1152 -0.0475 -0.2889
26429W        W43953  12.339   4.597   0.716 -0.2174 -0.4064 -0.1696
26430W        W43954   6.118   0.745  14.997  0.1409 -0.2033 -0.0929
26431W        W43955   7.709  16.108  12.968  0.1106 -0.3806 -0.2286
26432W        W43956   3.800  14.380   2.621 -0.0484  0.2930  0.2597
26433W        W43957   8.375  15.105   1.394 -0.0192 -0.1059 -0.4796
26434W        W43958   8.035  10.108  14.658 -0.1939  0.1549  0.1782
26435W        W43959   1.966  10.505  13.392 -0.3745 -0.0105 -0.0095
26436W        W43960   5.657   0.700  12.337 -0.1937  0.1087  0.1483
26437W        W43961  12.353  10.341  11.335 -0.2994  0.3012  0.0100
26438W        W43962  18.310  14.462  14.899  0.0100 -0.2404 -0.1762
26439W        W43963   2.612   6.232  12.875  0.4368 -0.1594  0.3194
26440W        W43964   3.579  16.486   4.084 -0.1069 -0.2245  0.3083
26441W        W43965   9.474   0.940   0.590 -0.0843 -0.0131 -0.0301
26442W        W43966   8.483   8.623   2.433 -0.0025 -0.0947  0.0171
26443W        W43967   6.031  10.016  15.800  0.0045  0.2153 -0.1601
26444W        W43968   8.070   3.636  13.872  0.3317  0.0674 -0.1213
26445W        W43969   6.637  15.854  15.575  0.1659 -0.3132  0.0615
26446W        W43970   8.992  17.837   2.218  0.0475  0.0996  0.0211
26447W        W43971   7.455   2.437   5.182 -0.0209 -0.0340  0.3445
26448W        W43972  18.203   2.679   0.571  0.0080 -0.2235  0.0542
26449W        W43973  15.036   6.677  12.382  0.0927  0.0090  0.3697
26450W        W43974  16.359   6.079  13.500  0.0346  0.0126  0.0579
26451W        W43975  16.286   0.783  13.493  0.0589  0.0841  0.0447
26452W        W43976   9.371   7.117   4.592  0.0479 -0.3532 -0.1173
26453W        W43977   4.289   1.319   2.801  0.0886  0.1163 -0.0242
26454W        W43978   1.488   3.502  13.194  0.1136 -0.3001 -0.2941
26455W        W43979  10.343  14.718   4.895  0.1834 -0.1119 -0.2710
26456W        W43980   0.006   2.813  13.559 -0.0693  0.0333 -0.1511
26457W        W43981   7.018   5.838  12.316 -0.3356  0.1087  0.0609
26458W        W43982  17.607  12.155  15.169 -0.1531  0.0891  0.2221
26459W        W43983  13.519   8.366  11.475 -0.0944 -0.0567 -0.1150
26460W        W43984  12.761   5.808   1.976  0.4558 -0.0896 -0.1258
26461W        W43985  17.539   8.027  15.084 -0.2772  0.1539 -0.3598
26462W        W43986  11.220   6.914   0.002 -0.0503  0.3181  0.0086
26463W        W43987  10.648  15.184  12.811  0.3363  0.0074  0.2027
26464W        W43988   1.900   2.408   3.817 -0.4533  0.2192  0.1883
26465W        W43989   7.104   1.975  13.287  0.1688 -0.1948  0.0653
26466W        W43990   0.174   5.683   0.728 -0.1894  0.0583 -0.0992
26467W        W43991   5.660   5.513   3.023  0.2093  0.0771  0.4220
26468W        W43992  14.909  17.425   3.860  0.0726 -0.1983 -0.1600
26469W        W43993   3.657   4.162  12.095  0.4613 -0.0703 -0.1932
26470W        W43994  15.859  11.957  15.018 -0.1799 -0.0689  0.1260
26471W        W43995   9.724  17.869   2.000 -0.0952  0.1743 -0.0657
26472W        W43996   0.973  10.749  12.185 -0.0130  0.0459  0.3307
26473W        W43997  10.024   4.213   2.824  0.1799  0.0075  0.1207
26474W        W43998   0.056  13.534  10.668 -0.0321 -0.3678 -0.2575
26475W        W43999  11.096   3.686  11.530  0.0050 -0.0816 -0.1902
26476W        W44000  16.587  10.606  15.284 -0.1447  0.1832 -0.0607
26477W        W44001  17.352  17.908   4.611 -0.1981  0.1437  0.0711
26478W        W44002   3.450  14.523  11.941  0.4040 -0.4275 -0.1510
26479W        W44003   6.175   1.881  13.685  0.3439  0.0405 -0.0127
26480W        W44004  13.636  17.463  14.632  0.2182  0.0012  0.3071
26481W        W44005   6.729   6.194  13.631  0.6126 -0.5052 -0.0803
26482W        W44006   0.304  14.129  11.319 -0.1701  0.1976 -0.1065
26483W        W44007  13.769   3.019  12.432 -0.1468  0.0434  0.2386
26484W        W44008   4.002  17.706   1.076 -0.1677 -0.1574  0.1657
26485W        W44009   6.689  17.642   0.272 -0.3375  0.2630  0.0784
26486W        W44010  17.444   9.103  13.375  0.2059  0.1147  0.4477
26487W        W44011   5.284   9.089  11.536 -0.4618 -0.0045 -0.0932
26488W        W44012   9.284  11.397  13.318 -0.2659  0.0351 -0.0081
26489W        W44013   4.327   2.633   0.209  0.2640  0.0324 -0.0154
26490W        W44014  12.901  10.474   3.249  0.1438 -0.2215  0.0165
26491W        W44015  10.762   9.374   1.474  0.1441  0.2296  0.0652
26492W        W44016   8.157  10.545  15.279  0.0040 -0.1254  0.1236
26493W        W44017   5.172   9.310  10.715 -0.1050  0.1571  0.0115
26494W        W44018   1.854  12.417   0.005 -0.0687  0.1482  0.0360
26495W        W44019  15.853  14.307   2.036  0.0236 -0.1312  0.2082
26496W        W44020   0.484  11.182  12.120 -0.2052 -0.0168  0.0790
26497W        W44021   3.295   4.451  12.283 -0.1838  0.1334 -0.3669
26498W        W44022   5.597   6.149   3.177 -0.0861 -0.0318  0.1493
26499W        W44023   2.125  10.237  10.615 -0.2453  0.1016  0.0925
26500W        W44024   9.574  13.080   1.414 -0.0453 -0.1172  0.1277
26501W        W44025   9.696   3.107  15.318  0.1280 -0.2029 -0.1863
26502W        W44026   9.547  13.803  12.207 -0.2061 -0.2254 -0.0239
26503W        W44027   1.661   9.055   2.551  0.0519  0.2785  0.3168
26504W        W44028  14.425   2.142  13.120 -0.2422  0.1609  0.0512
26505W        W44029   7.656   0.533  15.707 -0.4098  0.0983 -0.1806
26506W        W44030   2.007  17.306   0.126 -0.0560  0.0074  0.0506
26507W        W44031  15.310   4.536  15.351  0.3685 -0.2420  0.1268
26508W        W44032  13.572  14.652  12.588 -0.0350 -0.0361 -0.0203
26509W        W44033  14.142  11.477   2.053 -0.1865  0.0574  0.1306
26510W        W44034   5.000   2.197   3.240  0.2237  0.1654  0.1037
26511W        W44035  12.022   6.992  13.480 -0.0360 -0.0483 -0.3519
26512W        W44036  10.460   0.593  14.756 -0.0564 -0.0458 -0.1025
26513W        W44037  13.025   8.338  10.185  0.2457 -0.0050 -0.0092
26514W        W44038  15.542  14.605   0.106 -0.2012 -0.3465 -0.1940
26515W        W44039   7.506  15.347  13.546 -0.1069 -0.2587  0.1749
26516W        W44040   8.385   5.504   0.956 -0.2441 -0.3290 -0.1107
26517W        W44041  16.069   8.770  11.899  0.1940 -0.1089  0.0080
26518W        W44042  14.322   0.991  13.094 -0.2256 -0.1216  0.0374
26519W        W44043   5.849  16.851  14.012 -0.1478  0.1349 -0.1665
26520W        W44044   8.692  17.864   2.611  0.0110 -0.1608  0.1863
26521W        W44045  16.605  10.249  12.932  0.0415  0.0393 -0.1973
26522W        W44046   5.824   6.586   3.787  0.0644  0.4157 -0.2548
26523W        W44047   4.825   0.253  12.101 -0.0307 -0.2761 -0.0018
26524W        W44048  17.870  15.714   2.130  0.0019 -0.4899 -0.0461
26525W        W44049   1.773  15.453   3.443  0.3917  0.1024  0.3481
26526W        W44050   9.288   3.212  12.739 -0.2306  0.3354  0.1838
26527W        W44051  13.549   0.009  12.231 -0.2883  0.1876 -0.2331
26528W        W44052  12.360   3.733  11.932  0.4013 -0.0001  0.1045
26529W        W44053  13.640   7.190   3.428 -0.2890 -0.0598 -0.5875
26530W        W44054  10.491  18.367   1.415 -0.0525  0.0915  0.3166
26531W        W44055   9.469   2.251   3.935 -0.2016 -0.2510  0.1351
26532W        W44056   9.250   5.476  12.580  0.0081 -0.0080  0.1796
26533W        W44057  13.734  17.327   5.420 -0.0051  0.3433 -0.1565
26534W        W44058   5.014   4.067  13.349 -0.1159  0.1261  0.1364
26535W        W44059   2.186  15.096  12.173  0.1115  0.2333  0.0817
26536W        W44060   0.607   6.927   3.023  0.1454  0.1368  0.1197
26537W        W44061   9.757   7.031   1.925 -0.0170 -0.1088 -0.2163
26538W        W44062   7.755   1.045   1.885  0.3405  0.3178  0.2590
26539W        W44063  16.285   2.695  15.081  0.0249 -0.2886 -0.3725
26540W        W44064  17.272  14.643  15.781  0.1284  0.2022  0.1906
26541W        W44065  10.358  10.203   4.195 -0.0682  0.1457 -0.2865
26542W        W44066   3.177  16.214  14.112 -0.1744 -0.1818 -0.1613
26543W        W44067   9.826  16.134   2.625 -0.3597  0.2227  0.2353
26544W        W44068   4.571  13.145   3.878 -0.3792 -0.0789 -0.0722
26545W        W44069   9.496   9.915   4.227  0.2007 -0.2208 -0.3903
26546W        W44070  11.513  16.712   4.767  0.0782  0.1618 -0.0728
26547W        W44071  16.244  15.414  15.337 -0.0982 -0.4256  0.0153
26548W        W44072  16.851   4.585  14.813 -0.0813  0.0002 -0.0851
26549W        W44073   3.058   3.818   0.140  0.3586 -0.2422  0.0021
26550W        W44074   9.081  12.242   0.320  0.1046  0.0099 -0.2313
26551W        W44075  13.630   5.350   0.373  0.3483 -0.1842  0.1014
26552W        W44076   3.987   8.430  11.189  0.1965  0.1469  0.2012
26553W        W44077  15.353   3.299  13.374 -0.3191  0.0662 -0.1007
26554W        W44078   8.440  15.638   1.143 -0.0295 -0.0842 -0.1496
26555W        W44079   2.822  16.972  12.235 -0.1770  0.1007  0.2680
26556W        W44080  14.178  11.436   1.530  0.2464  0.1563 -0.1461
26557W        W44081   8.515   5.555   4.658  0.0570  0.2083 -0.1121
26558W        W44082  10.665  10.327   3.752  0.1327 -0.2033 -0.3867
26559W        W44083  13.599  12.753   1.338  0.3832 -0.0507 -0.0556
26560W        W44084   2.883  11.976  15.598 -0.1468  0.2863 -0.0369
26561W        W44085  16.872   0.614  12.612 -0.6115  0.1122 -0.3214
26562W        W44086   8.028  11.284  11.662 -0.1863  0.3027 -0.1086
26563W        W44087   7.128   8.068  14.676 -0.2960  0.0969  0.1581
26564W        W44088   7.204  15.644  13.842  0.2093  0.1393  0.0690
26565W        W44089   7.723   3.741  15.172  0.0456  0.1230 -0.0846
26566W        W44090   6.588   2.222   5.534  0.1809  0.1433  0.0361
26567W        W44091  16.306  12.302  14.296  0.0561  0.2573  0.0741
26568W        W44092  12.295   8.717   5.609 -0.2834 -0.1078  0.0597
26569W        W44093   2.300   3.658  14.707  0.1565  0.0917  0.0863
26570W        W44094   6.353   5.852   1.241 -0.0561 -0.0427  0.1318
26571W        W44095   8.767   3.233   1.872  0.3081 -0.0710 -0.1505
26572W        W44096   3.405   4.725   1.016  0.2530 -0.0758 -0.2004
26573W        W44097   5.998  18.154  14.480 -0.2845  0.1807  0.0004
26574W        W44098   1.844   4.250   4.220 -0.1245 -0.2165  0.0226
26575W        W44099   8.812   9.110  13.983  0.0274 -0.0395 -0.1540
26576W        W44100   9.412   0.771  15.527 -0.0892 -0.2948 -0.0712
26577W        W44101  11.706  12.086  12.018  0.0649  0.1072  0.1479
26578W        W44102  10.944  17.962   4.137 -0.2268 -0.0805  0.1755
26579W        W44103   3.256   9.924   2.532 -0.0015 -0.1944 -0.0049
26580W        W44104   3.988  15.012   4.951  0.3400  0.1373 -0.2649
26581W        W44105   6.491  16.092  10.611  0.0004  0.1714  0.3552
26582W        W44106  11.352   5.830  13.988  0.0611 -0.2134 -0.1119
26583W        W44107  17.886  15.597  10.954 -0.0772  0.2016 -0.0659
26584W        W44108  17.493   4.832  14.946  0.0769 -0.0505 -0.1549
26585W        W44109  12.795   6.894   2.736 -0.0203 -0.1404  0.1230
26586W        W44110   4.558   1.580  14.522 -0.0356 -0.1524  0.0023
26587W        W44111   7.706  13.452  13.243  0.0965 -0.4209 -0.2580
26588W        W44112  14.824  12.047  11.568  0.0212  0.1211  0.3506
26589W        W44113   4.101  18.391  14.245 -0.0528 -0.1817 -0.0892
26590W        W44114  16.713   4.777   2.090 -0.1050 -0.1509 -0.1193
26591W        W44115   1.412  15.307  15.064  0.1748 -0.0638  0.1021
26592W        W44116   6.891  14.363  15.638  0.1040 -0.2491 -0.0634
26593W        W44117   7.096   0.398   3.949 -0.2209 -0.0518  0.1354
26594W        W44118   5.016   1.505   0.441  0.2481  0.0086 -0.2578
26595W        W44119   3.529   4.374   2.074  0.0423 -0.1067  0.2003
26596W        W44120   8.900   7.350   2.456  0.4377  0.1976 -0.0209
26597W        W44121   3.157   6.520  15.100 -0.0501 -0.2490  0.0186
26598W        W44122   5.904  14.247  15.576 -0.1848  0.2231  0.0240
26599W        W44123   7.008  16.866   3.199 -0.0675 -0.0499  0.0034
26600W        W44124  11.287   5.609  15.634  0.0896 -0.4394 -0.3658
26601W        W44125   6.065  14.900   5.465 -0.1431  0.2261  0.0179
26602W        W44126  11.071  10.702   4.596  0.0124 -0.3093 -0.1372
26603W        W44127   5.616   3.997  14.117  0.2156 -0.3972 -0.1353
26604W        W44128   7.616   2.959  13.101 -0.1292  0.0957  0.0327
26605W        W44129   7.550  14.896  15.191 -0.0765 -0.1265  0.0219
26606W        W44130  14.175  18.274   3.989  0.1313 -0.2801  0.3005
26607W        W44131   4.895   9.172  14.637 -0.1008 -0.1806 -0.0651
26608W        W44132  13.559  17.453   0.462 -0.1249 -0.2725  0.0903
26609W        W44133   4.427   4.035   1.601 -0.0800 -0.0492  0.3134
26610W        W44134   2.221  17.663   1.006 -0.1019 -0.1558  0.0945
26611W        W44135   7.661   3.137  12.570 -0.0658  0.1164  0.0576
26612W        W44136  16.767   2.910  11.614 -0.2012 -0.0346  0.2460
26613W        W44137  12.570   8.984  15.379 -0.0786 -0.1265 -0.0944
26614W        W44138  13.879  17.202   4.970  0.2507  0.5180 -0.0533
26615W        W44139  14.517  15.612   1.716  0.1009  0.0852 -0.2508
26616W        W44140   4.251   0.614  11.463  0.0656 -0.0868 -0.1593
26617W        W44141   8.242   5.296   0.069  0.2806  0.0728 -0.1583
26618W        W44142   6.957   6.432  14.417  0.3625 -0.0763 -0.1358
26619W        W44143   3.717   6.651   1.603 -0.3286 -0.1213  0.2374
26620W        W44144  12.280  13.222   3.500  0.1534 -0.0288  0.2119
26621W        W44145  17.146   7.476   4.682  0.3892 -0.2074 -0.0035
26622W        W44146   0.050  12.166   1.191 -0.2197 -0.0670  0.0760
26623W        W44147  15.589  13.471   3.623 -0.0057  0.1257 -0.0765
26624W        W44148  10.819   3.871  10.479 -0.0444 -0.1898 -0.2125
26625W        W44149   9.540  11.917  14.382  0.1105 -0.0695 -0.1745
26626W        W44150   3.700   3.889   2.176 -0.0422 -0.2645  0.0438
26627W        W44151   8.211   8.345   3.423 -0.3222 -0.0679 -0.0694
26628W        W44152  14.666  11.361   4.364  0.0727 -0.1036 -0.1246
26629W        W44153   1.869   0.304   0.989  0.1288  0.1192  0.2318
26630W        W44154  14.893  13.794   2.036 -0.0540 -0.0132 -0.0612
26631W        W44155  15.553   1.720   3.157  0.3721  0.2106  0.1752
26632W        W44156   9.641  15.138   4.191 -0.0738 -0.0052 -0.0906
26633W        W44157   1.269   2.227   2.333 -0.0260 -0.0916 -0.2068
26634W        W44158  10.832  12.536   5.128  0.1609  0.0537 -0.1859
26635W        W44159   5.202  13.330   0.323 -0.0225  0.0005  0.1358
26636W        W44160   5.782   9.564   3.030  0.0648  0.3142 -0.1930
26637W        W44161  12.246   3.365   2.490 -0.0572  0.1519  0.1229
26638W        W44162  13.067   1.818  14.267 -0.0052  0.3108 -0.1828
26639W        W44163   8.140  11.655   4.185  0.1276  0.5255 -0.1099
26640W        W44164   7.440  17.149  13.779 -0.0727 -0.2241  0.2413
26641W        W44165  14.998   3.671  14.151  0.1116 -0.3025  0.2639
26642W        W44166   2.986   1.430   3.111 -0.1857 -0.0794 -0.0262
26643W        W44167   2.160   7.832  14.932  0.3572  0.2546 -0.1062
26644W        W44168  11.676  15.158  14.301 -0.0264  0.1029  0.1498
26645W        W44169   1.687   5.700   0.079 -0.3875 -0.1274  0.0781
26646W        W44170  15.064  18.400   2.315 -0.0785 -0.2827  0.1580
26647W        W44171   9.585   2.814   4.067  0.1393  0.3725 -0.2900
26648W        W44172  10.917  12.458   1.147 -0.1101  0.0377  0.0039
26649W        W44173   5.920  10.909   5.198  0.1913 -0.4208  0.0870
26650W        W44174  17.377  10.817   1.971 -0.0449 -0.1505 -0.0533
26651W        W44175   7.516   6.664  13.692 -0.2596 -0.1913  0.1419
26652W        W44176   8.417   5.209   0.573 -0.3175 -0.2759 -0.1447
26653W        W44177   3.709  11.657  15.375  0.0896 -0.2501 -0.2378
26654W        W44178   0.923  14.112   2.233  0.0501 -0.0883 -0.2164
26655W        W44179   0.808   3.387   1.884  0.1347  0.2047 -0.0971
26656W        W44180  15.216  13.894   3.674  0.2697  0.1604  0.1365
26657W        W44181  18.277  17.061   0.784 -0.2145  0.2168 -0.1458
26658W        W44182   2.821   9.477  14.420 -0.0353  0.1660 -0.0274
26659W        W44183  10.597   6.014  10.757  0.0092  0.0026  0.0025
26660W        W44184  10.316   2.632  11.246  0.0258 -0.1433 -0.0809
26661W        W44185  16.771   2.090   1.403  0.0860  0.1925 -0.2845
26662W        W44186  11.386   6.879   1.430 -0.0406  0.2075  0.1368
26663W        W44187  10.720  10.440   2.510  0.2333 -0.1287 -0.1070
26664W        W44188   9.016   2.948  12.070 -0.0921  0.2560 -0.0590
26665W        W44189  14.892   3.895   0.439  0.4129 -0.1141  0.0582
26666W        W44190  14.294  15.735   5.119  0.1066 -0.0635  0.0271
26667W        W44191  10.862   5.067  13.625  0.1424 -0.0027  0.2862
26668W        W44192  13.549   5.968  15.332  0.0366  0.0887  0.1207
26669W        W44193  17.233   2.195   0.480 -0.0969 -0.0113 -0.2262
26670W        W44194   5.255   8.572  14.174 -0.0807 -0.1439  0.0217
26671W        W44195   6.536   5.192  15.740  0.0075 -0.1627  0.0412
26672W        W44196   3.895   1.968  14.814  0.1987 -0.1264 -0.2949
26673W        W44197   2.581  14.041  14.411  0.0679 -0.2480  0.1120
26674W        W44198   2.262   7.616  12.611 -0.1267  0.3809 -0.0164
26675W        W44199   8.639   9.686   1.408  0.2025 -0.1625 -0.3658
26676W        W44200  16.152  10.949   1.358 -0.0046  0.0474 -0.2317
26677W        W44201  13.959   7.044  12.262  0.1465 -0.1940 -0.2568
26678W        W44202  14.408  12.883  13.801  0.1323 -0.0578  0.0529
26679W        W44203  10.558   6.670   2.829  0.0482 -0.1563  0.1283
26680W        W44204   0.730   1.843   4.371  0.2307 -0.1695 -0.1331
26681W        W44205   1.645   7.291  13.978 -0.0220  0.2402  0.0368
26682W        W44206   2.861  16.518  11.299  0.0166  0.1218  0.2282
26683W        W44207   5.220  15.292  15.503  0.0806  0.1406 -0.0442
26684W        W44208   2.705   3.193   0.511  0.1598 -0.0711 -0.0244
26685W        W44209  11.799  10.558   4.649 -0.0795  0.1137 -0.1168
26686W        W44210  13.232   4.551   1.162  0.0830 -0.0703  0.3454
26687W        W44211   0.277   5.474  13.891  0.0519 -0.4773  0.2256
26688W        W44212   3.979   6.288  12.751 -0.2327 -0.3287 -0.2565
26689W        W44213  13.696   3.799  14.833 -0.1464 -0.0401 -0.4058
26690W        W44214   7.236   9.516  15.514  0.1561 -0.0976  0.4097
26691W        W44215   5.571   5.063   1.469 -0.2931 -0.3898 -0.0348
26692W        W44216  10.572   9.009   3.000  0.0941 -0.1528  0.1995
26693W        W44217   2.551  15.316   4.961 -0.1128  0.0311  0.2564
26694W        W44218   0.803   4.881   3.868  0.1701  0.3174  0.0258
26695W        W44219  16.192   8.332   3.205 -0.1824  0.0526 -0.2310
26696W        W44220  13.665   6.635   2.591  0.1624  0.1790 -0.0546
26697W        W44221  11.325  15.192   6.228  0.0029  0.1062 -0.0018
26698W        W44222  12.458   7.772  13.579 -0.0902 -0.2386 -0.0895
26699W        W44223   8.713  17.580   4.960  0.1263 -0.1436 -0.2280
26700W        W44224  16.292  15.962   0.276  0.0658  0.0678  0.1249
26701W        W44225  18.262   3.176  13.820 -0.0712  0.2104 -0.3101
26702W        W44226   8.720   4.317  14.406 -0.1751  0.0746  0.0329
26703W        W44227  12.165   2.154   4.592 -0.2030  0.2359 -0.1018
26704W        W44228   7.096  14.173  13.964 -0.0652  0.5950 -0.0118
26705W        W44229  15.010   2.645  15.273  0.1013  0.1466 -0.1124
26706W        W44230   5.060   3.527  15.641  0.0761  0.0202  0.0704
26707W        W44231   7.264  17.634  15.554  0.1614  0.1815 -0.0215
26708W        W44232  13.940  16.479   2.070 -0.0149 -0.0236  0.1201
26709W        W44233  10.483  17.627  14.771 -0.2968 -0.3492 -0.1661
26710W        W44234  14.843  10.054  13.059 -0.2813  0.2959  0.1914
26711W        W44235  17.058   4.550  12.660 -0.0363  0.0080 -0.2165
26712W        W44236  15.399  11.396   5.047  0.3318  0.0585 -0.0368
26713W        W44237   1.809  14.726  13.332 -0.2205 -0.3535  0.0621
26714W        W44238   5.350   2.398   0.362  0.1959 -0.0375  0.0903
26715W        W44239  11.257   2.229   1.724  0.0576 -0.1159 -0.0840
26716W        W44240  14.324   3.424   4.764  0.1120  0.1886 -0.0654
26717W        W44241  12.649   3.355  12.262 -0.0457 -0.0444 -0.0195
26718W        W44242   5.257  10.945   2.075 -0.0400 -0.2369  0.2403
26719W        W44243  12.944  11.013   4.624 -0.0932  0.0345  0.2127
26720W        W44244   2.486   5.133  11.339  0.1659 -0.0120  0.0408
26721W        W44245  16.909  10.238  13.413  0.0065  0.3707 -0.3307
26722W        W44246   3.815  13.095  12.007  0.2206 -0.2308 -0.2054
26723W        W44247   0.524   9.999  15.447  0.6260  0.2570 -0.4298
26724W        W44248   1.665   0.415  12.624 -0.1658 -0.1558 -0.0426
26725W        W44249  10.549   8.161   2.900 -0.0685 -0.2288 -0.3233
26726W        W44250  12.064   5.260   4.264  0.1734 -0.1321 -0.2820
26727W        W44251  11.472   5.307   1.518  0.0841  0.1036 -0.0966
26728W        W44252   0.003   7.442   5.765 -0.2044  0.1327  0.0108
26729W        W44253   7.669  14.695   1.621 -0.3718 -0.2535 -0.1847
26730W        W44254   3.714   9.891   1.632  0.3921  0.1094 -0.1073
26731W        W44255  10.086   2.954  14.620  0.1146  0.3325 -0.3563
26732W        W44256   7.735   4.687   2.677 -0.3138  0.3135 -0.0143
26733W        W44257   8.671  12.061  10.747  0.2865  0.0242 -0.1842
26734W        W44258  10.910   6.841   0.449 -0.1977 -0.4222  0.3224
26735W        W44259  10.903  14.510  15.813  0.0438 -0.0446 -0.3424
26736W        W44260   7.373   9.950  12.864  0.1365  0.3449  0.2651
26737W        W44261   1.754  15.792  10.870 -0.1203  0.0761 -0.1851
26738W        W44262  14.618  15.531   4.075  0.0126  0.1071  0.1728
26739W        W44263  14.182  14.603  12.313 -0.2402  0.2971 -0.3493
26740W        W44264   4.305   5.048   1.810  0.1448 -0.2766 -0.0255
26741W        W44265  15.377  13.102   1.837 -0.1062  0.0800 -0.1090
26742W        W44266   2.097  12.326  15.360  0.0383  0.2592  0.2571
26743W        W44267   8.225  12.090  11.558 -0.0568  0.3074 -0.0107
26744W        W44268  10.751  11.781   2.997 -0.2921 -0.1766  0.0631
26745W        W44269   6.615   6.242   4.481 -0.0929  0.1280 -0.2296
26746W        W44270   5.275  15.352   4.518  0.0542  0.2212 -0.1181
26747W        W44271  14.771  14.756   3.989 -0.1157 -0.2732 -0.0915
26748W        W44272  17.181   3.003  11.295  0.1158 -0.0223 -0.1021
26749W        W44273  10.398   7.950   3.684 -0.0750 -0.0013 -0.0541
26750W        W44274  12.255   5.668   2.792  0.1425  0.2063 -0.0208
26751W        W44275  14.556   0.683   5.792 -0.1779  0.0828 -0.1015
26752W        W44276   2.877   4.039   0.520 -0.2358 -0.0193  0.2004
26753W        W44277  15.683  14.374   1.448 -0.0265 -0.1020  0.1152
26754W        W44278   6.648   9.613   1.647  0.2127  0.1224 -0.4402
26755W        W44279  12.224   6.862   1.883  0.2001 -0.1529  0.1440
26756W        W44280   2.984  12.882  13.643 -0.1597  0.2297  0.1108
26757W        W44281   2.779   0.863   1.408  0.2732 -0.0519 -0.0836
26758W        W44282  10.698  13.085  13.330  0.0951  0.1766  0.2973
26759W        W44283   0.674  11.959  15.778 -0.1172 -0.2158  0.4995
26760W        W44284  15.283  16.191  11.421  0.2613  0.2574 -0.1615
26761W        W44285   6.750   4.813   4.563  0.0665 -0.5018 -0.0175
26762W        W44286   4.315   8.187   2.515  0.1818  0.3384  0.1770
26763W        W44287   0.888  10.645   4.340 -0.1688 -0.0291  0.2019
26764W        W44288   7.733   2.217   0.499 -0.1251 -0.2443 -0.0510
26765W        W44289  13.829   9.094  11.144  0.0035  0.0275  0.0966
26766W        W44290  17.206   1.452  10.846 -0.2660 -0.0460  0.0298
26767W        W44291  18.213   0.315  14.803 -0.1012 -0.1419  0.1775
26768W        W44292  17.957  14.538   3.905  0.1020  0.4698  0.2210
26769W        W44293  17.777  16.967   4.360  0.2424  0.0823  0.2740
26770W        W44294   4.618   5.284   2.991  0.1950  0.1817 -0.2422
26771W        W44295   3.877   1.145   1.036 -0.1913 -0.3628 -0.0876
26772W        W44296   6.371   5.296  13.229 -0.0865 -0.2679 -0.1234
26773W        W44297  11.916  13.840  14.742  0.0153 -0.3199  0.4281
26774W        W44298   3.039  16.110  12.430 -0.1038  0.5274 -0.1157
26775W        W44299   0.495  10.611   3.821  0.2974  0.0645  0.3773
26776W        W44300  11.634   4.923   3.112 -0.4313  0.0899  0.2093
26777W        W44301   1.399  10.260  13.331 -0.3375 -0.0734  0.3997
26778W        W44302   5.113  12.362  11.138  0.4399 -0.0752  0.2380
26779W        W44303   1.303  14.101   3.539  0.3377  0.0404  0.2295
26780W        W44304  12.085   3.993   0.205 -0.0229 -0.1915  0.3065
26781W        W44305   4.038   9.216  12.301 -0.3656 -0.1272 -0.0827
26782W        W44306   4.761   1.763  13.153 -0.0701 -0.0496 -0.1706
26783W        W44307   5.539  13.183   3.531 -0.0412 -0.1098  0.0672
26784W        W44308  14.816   8.544  15.695 -0.0839  0.1075  0.1082
26785W        W44309  12.016   2.709  14.517 -0.3824 -0.3210  0.2400
26786W        W44310  18.295   0.266   4.568 -0.1171 -0.0952  0.2799
26787W        W44311  11.026   8.635   3.463  0.0506 -0.0999 -0.2381
26788W        W44312   6.263   6.407  13.109 -0.0789  0.0700 -0.2577
26789W        W44313  17.029   3.591   3.573  0.0833 -0.1846 -0.0417
26790W        W44314  12.815   5.358  13.467 -0.0348  0.0899  0.3955
26791W        W44315  16.306  17.957   4.964 -0.3341  0.1742  0.0693
26792W        W44316  10.209   8.961  11.919 -0.0539 -0.1582  0.3993
26793W        W44317  17.544  18.077  14.103 -0.0861 -0.1317 -0.1812
26794W        W44318   8.165   4.644   1.817  0.0159  0.2129 -0.2168
26795W        W44319  12.348   5.769  14.256 -0.2617 -0.0471 -0.3117
26796W        W44320   0.949  17.485   0.631 -0.1479  0.0146  0.0643
26797W        W44321  11.406  13.189  15.300  0.1598  0.0672 -0.0882
26798W        W44322   1.682   1.629   4.492  0.0362  0.1500  0.1120
26799W        W44323   1.850   3.559   1.260 -0.1222 -0.3479  0.0650
26800W        W44324   8.795  13.379  15.631  0.0597  0.0914 -0.0953
26801W        W44325   5.408  14.210   1.278  0.1785  0.0736 -0.1874
26802W        W44326   0.642  10.205  11.292  0.0067  0.1717 -0.0807
26803W        W44327   4.188   4.079   3.745  0.1780 -0.1936  0.1841
26804W        W44328  18.254   4.823   1.196  0.1797 -0.0053  0.0032
26805W        W44329   9.821   5.972   3.670 -0.1672 -0.0944  0.0596
26806W        W44330  17.461  12.126  11.077  0.1767  0.0114  0.4319
26807W        W44331  18.217   5.181  13.934 -0.0101  0.0243  0.3037
26808W        W44332   6.304  12.905   1.353  0.0288  0.2474 -0.2406
26809W        W44333  15.229  10.270  13.442 -0.1174 -0.2532  0.3526
26810W        W44334   8.875  13.431   2.098 -0.0511  0.2600  0.1114
26811W        W44335   3.239  18.193  15.157  0.2034  0.2481  0.1528
26812W        W44336   4.013  14.379   3.220  0.0914 -0.0154  0.1292
26813W        W44337   5.764   0.938  14.296 -0.0003 -0.2666  0.0822
26814W        W44338  12.745   6.356  12.960  0.2715  0.1062 -0.2047
26815W        W44339  11.310  12.734  15.543  0.0199 -0.0475  0.1981
26816W        W44340   1.040   3.650  13.004  0.0964  0.2544  0.0526
26817W        W44341   6.787   7.967   1.166 -0.2636 -0.3355 -0.0753
26818W        W44342   2.897  13.485  13.932 -0.1205 -0.0077  0.0125
26819W        W44343  14.265   4.956  15.719  0.2020  0.0568  0.1264
26820W        W44344   9.931  16.116   3.669 -0.0220  0.2050  0.2579
26821W        W44345   7.882  10.923  11.997 -0.0998 -0.0035  0.2840
26822W        W44346   3.004   6.506   3.989 -0.0217 -0.1876  0.3517
26823W        W44347  11.153  13.373  11.581  0.0358  0.0352 -0.3268
26824W        W44348   9.948  15.397   0.150 -0.1941  0.3962 -0.1309
26825W        W44349   6.507   4.019   4.185  0.2402  0.0605 -0.0596
26826W        W44350   4.864   4.535  15.257  0.1944 -0.0196  0.2381
26827W        W44351  13.119   5.745  11.282  0.2379 -0.0826 -0.0367
26828W        W44352   9.860  11.489  14.498 -0.2096 -0.0935  0.1178
26829W        W44353   1.362   1.066   4.299 -0.1507  0.0361 -0.1811
26830W        W44354   7.243  10.337  15.082  0.2767 -0.2121 -0.2625
26831W        W44355  11.555   7.387  14.673  0.1164  0.0452 -0.2846
26832W        W44356  10.683  16.913   2.179  0.1057 -0.2995  0.2158
26833W        W44357   1.055  15.240   0.333  0.4111 -0.0401 -0.0932
26834W        W44358   9.337  14.278  13.559 -0.2085 -0.0830  0.3759
26835W        W44359   0.755   5.702   0.045 -0.2605 -0.1676  0.1958
26836W        W44360  17.122  12.828   3.319 -0.0228  0.1991  0.2958
26837W        W44361  15.441   2.604  15.527 -0.0753  0.0150  0.4198
26838W        W44362   7.721   6.976   0.991  0.4190  0.2274 -0.2063
26839W        W44363   5.827   0.068  15.582 -0.1993  0.0280 -0.0641
26840W        W44364   3.143   0.962  13.078 -0.1640  0.1106  0.1213
26841W        W44365  13.764  15.838  14.648 -0.0313 -0.0767  0.1660
26842W        W44366   1.001   6.922   3.541  0.1622 -0.0727  0.3172
26843W        W44367   9.145   4.633   3.103 -0.1711  0.0439 -0.0998
26844W        W44368  15.841  14.128   4.192  0.0389  0.3638  0.1758
26845W        W44369   7.445  14.923   2.677 -0.1477  0.6711 -0.3724
26846W        W44370  14.706  10.671  11.898  0.2918  0.3645 -0.2056
26847W        W44371   8.248   1.239   0.663  0.0143 -0.0317  0.3627
26848W        W44372   0.128  15.652  13.295  0.0443  0.1231 -0.1642
26849W        W44373   2.620   4.081   2.791 -0.1630 -0.0864  0.1692
26850W        W44374   2.857   1.948   3.218  0.0738  0.1842 -0.0673
26851W        W44375  11.735   9.609  12.105 -0.1517  0.4176 -0.3683
26852W        W44376  10.567   3.442  13.794 -0.0531  0.1241 -0.0170
26853W        W44377  16.594  18.358   3.135  0.1716 -0.0905 -0.6152
26854W        W44378   1.122   6.070   2.991  0.2825  0.0262  0.0259
26855W        W44379   6.650   0.195  14.394 -0.1968  0.1623 -0.0967
26856W        W44380  16.489   8.844   2.000 -0.2337  0.0062 -0.1481
26857W        W44381  16.587   4.651  13.438  0.1406 -0.1215  0.0094
26858W        W44382   3.385  14.453  14.764  0.2452  0.1211 -0.3691
26859W        W44383   0.934   1.772  13.214  0.1124  0.1708  0.0425
26860W        W44384  17.041   4.999  15.182 -0.0274  0.1099 -0.0174
26861W        W44385   1.418  16.710  10.931 -0.0785 -0.1257 -0.1628
26862W        W44386  10.207   6.933   1.947  0.0277  0.0694 -0.0607
26863W        W44387  11.412   9.584   1.218 -0.1147 -0.0986 -0.0820
26864W        W44388  14.858   7.044  14.593  0.1490 -0.0536 -0.0529
26865W        W44389   5.922   3.981  11.054 -0.0772  0.1120 -0.0185
26866W        W44390   8.691   9.263  15.693 -0.0477  0.0450  0.2991
26867W        W44391  15.419   2.429  14.174  0.0917 -0.0910  0.0288
26868W        W44392   6.776   4.750  11.172  0.2278  0.1536  0.0837
26869W        W44393  13.400  16.335   4.960 -0.1983 -0.0053 -0.2841
26870W        W44394   7.558   3.474   3.408 -0.1074  0.1904  0.0568
26871W        W44395   6.354   5.560   1.663  0.4217  0.0268  0.0298
26872W        W44396   0.485   5.995   2.024  0.1038  0.2212  0.0276
26873W        W44397  10.117   6.846  11.071 -0.4084  0.2706 -0.2637
26874W        W44398  14.564   3.171  11.794 -0.1552 -0.1513  0.2184
26875W        W44399   9.011   3.378  12.295  0.1607  0.1273  0.1400
26876W        W44400  11.438   5.934   0.154 -0.1512  0.1447  0.1632
26877W        W44401  11.187   3.165   3.048 -0.1394 -0.1008  0.0295
26878W        W44402  17.645   2.968  13.893  0.1507 -0.1496 -0.3973
26879W        W44403  16.099   2.736  13.870  0.2805  0.3352 -0.1070
26880W        W44404   1.976   8.449  15.092 -0.1631 -0.0027 -0.0910
26881W        W44405   7.600  13.824  13.804 -0.1341 -0.1872 -0.2237
26882W        W44406  13.503  12.323  13.965 -0.0325  0.1903 -0.1741
26883W        W44407   5.463  11.674   0.626  0.0276 -0.0906  0.1827
26884W        W44408  17.530  14.889   2.041  0.4281 -0.2304 -0.0540
26885W        W44409   2.222  15.758  11.446  0.0619 -0.2015  0.0380
26886W        W44410   8.418  16.418   0.948  0.2659  0.0077 -0.0309
26887W        W44411   2.337   4.590  12.040 -0.0456 -0.0848  0.1110
26888W        W44412  11.739  17.849   1.009  0.0086  0.1936 -0.3294
26889W        W44413  10.097  15.689   0.639  0.1610  0.0092  0.1927
26890W        W44414   6.885   7.138  15.174 -0.2812 -0.1409  0.1002
26891W        W44415   3.444  13.257   1.551  0.0216 -0.3401  0.0198
26892W        W44416  13.468   0.132  12.765 -0.2816  0.2091 -0.1038
26893W        W44417   4.237  12.180   3.699 -0.2185 -0.0522 -0.0934
26894W        W44418  14.370  16.272  11.327 -0.0936  0.0750  0.2222
26895W        W44419   5.898   7.124  15.188 -0.0619 -0.1764 -0.0395
26896W        W44420   4.797  14.781  13.168  0.1114 -0.0871 -0.0922
26897W        W44421  11.894   5.965   3.431 -0.0362  0.0648  0.3788
26898W        W44422  14.386   6.636   1.349  0.3052  0.0336 -0.0514
26899W        W44423  11.125   6.467  14.917  0.0440  0.1191 -0.1276
26900W        W44424   2.855  14.847   1.890 -0.0591 -0.1721 -0.0301
26901W        W44425   2.402  14.621   4.410  0.1334 -0.0098  0.1930
26902W        W44426  14.417  16.160  15.219 -0.1696  0.2993 -0.1254
26903W        W44427   6.992   8.884   2.169  0.1368 -0.1564 -0.1297
26904W        W44428   9.020   9.475  15.052  0.1855  0.1565  0.1352
26905W        W44429  14.780  12.247   4.691  0.0516 -0.0298 -0.0506
26906W        W44430   5.060   1.652  14.459  0.0932 -0.0959  0.1497
26907W        W44431   1.839   7.862   5.571  0.0061  0.0453 -0.0787
26908W        W44432  14.666   6.029  13.696  0.3112  0.2414  0.0239
26909W        W44433   9.958  13.775   1.855  0.1073  0.2000  0.0472
26910W        W44434  13.384   7.986   3.216  0.2278 -0.3764  0.3566
26911W        W44435   9.349   1.414  12.191 -0.0279  0.4699 -0.0707
26912W        W44436   2.349  14.661  15.529 -0.0099  0.0940  0.0963
26913W        W44437   6.109   7.290  11.307  0.2057 -0.2235 -0.2852
26914W        W44438  11.422  14.281  11.765 -0.0436  0.0915  0.5611
26915W        W44439   2.407  12.189   4.151  0.1741  0.0600  0.0673
26916W        W44440   5.065  10.899  15.102  0.1312 -0.0297  0.1437
26917W        W44441  17.213   8.563   3.405 -0.1829  0.2363  0.0657
26918W        W44442  10.502   5.369   9.927  0.1179 -0.1918  0.1486
26919W        W44443  15.977   6.297  14.855 -0.1603 -0.2420 -0.0552
26920W        W44444  18.009   8.932  10.053 -0.2017  0.1944  0.3065
26921W        W44445   9.873   1.667   1.766 -0.0622  0.0371 -0.0398
26922W        W44446   7.547  15.154   4.509 -0.1188 -0.2205 -0.1544
26923W        W44447  17.506   3.445  13.451  0.1062  0.1553 -0.2634
26924W        W44448   7.125   7.811   3.002  0.1510 -0.1406  0.1553
26925W        W44449  16.955   7.420  11.037 -0.1325 -0.0257 -0.3151
26926W        W44450  12.079   0.571   2.299  0.1790  0.3183 -0.2540
26927W        W44451  15.221   4.969  15.772 -0.0333 -0.1759 -0.0071
26928W        W44452   9.595   6.623   9.904  0.2264  0.1061 -0.1267
26929W        W44453   4.440   5.289   2.283  0.0800  0.0111  0.0652
26930W        W44454   7.778   4.693  11.361  0.1101  0.0133  0.1729
26931W        W44455   6.171  17.524   0.397  0.1727  0.1494  0.0951
26932W        W44456  14.168   3.926   5.495 -0.0113 -0.0582  0.1847
26933W        W44457  18.168   6.272   1.011 -0.1756 -0.1555 -0.2545
26934W        W44458   5.183  15.230  12.686 -0.2447  0.2517  0.2188
26935W        W44459   3.500  12.075  15.573 -0.0501 -0.1407 -0.2637
26936W        W44460   5.901   1.345  14.541  0.1847  0.1401 -0.0695
26937W        W44461  18.108  15.425   5.802  0.0648  0.1548  0.1883
26938W        W44462  14.857   9.038   4.789 -0.0283 -0.3129 -0.1011
26939W        W44463  17.764   5.868   1.738 -0.0539 -0.1010 -0.1000
26940W        W44464   1.036   3.352  13.408  0.1681  0.1423  0.2443
26941W        W44465  17.510   1.183  13.395  0.0319  0.0007 -0.2194
26942W        W44466   4.961  15.634   4.279 -0.2150  0.0598  0.1622
26943W        W44467  10.792  12.549  11.137 -0.1449 -0.2510 -0.0582
26944W        W44468  15.416   0.164   4.023  0.2341  0.4861 -0.1526
26945W        W44469   3.589  15.899  11.739  0.0631 -0.1408  0.1166
26946W        W44470  12.233  16.221   4.326  0.2027  0.0018  0.1527
26947W        W44471   7.729  11.073   2.153 -0.1428  0.2891 -0.0747
26948W        W44472   9.558   8.234  11.045  0.0511  0.1144  0.4880
26949W        W44473   8.195   1.179   2.179  0.0762  0.1693 -0.0668
26950W        W44474   1.969   5.996  15.647  0.0763  0.0973  0.3074
26951W        W44475   7.118  11.063  10.516  0.2012  0.1246 -0.1722
26952W        W44476   9.688   4.176   1.075  0.2012  0.1123 -0.0814
26953W        W44477   8.233  13.809  13.131 -0.0415 -0.1132 -0.1855
26954W        W44478  15.740   3.621   0.212 -0.1276  0.3344  0.1781
26955W        W44479   7.185   3.537   3.051  0.0172  0.1625 -0.3053
26956W        W44480   5.735   6.371  14.562 -0.3283  0.0571 -0.0143
26957W        W44481  13.318   7.626   4.385  0.0940 -0.2619 -0.0823
26958W        W44482  14.350   0.341  12.732  0.3873  0.0378 -0.0994
26959W        W44483   2.247   3.381  12.628 -0.0251 -0.0001  0.0179
26960W        W44484   6.711   1.437  11.058 -0.1447  0.0568 -0.3661
26961W        W44485   6.549  17.149   0.559 -0.1420  0.3002 -0.1634
26962W        W44486  15.261   5.418   0.085 -0.1002  0.1610 -0.1485
26963W        W44487  17.439   8.938   4.726 -0.0097 -0.1360  0.0493
26964W        W44488   4.185   9.521  15.813 -0.1854 -0.4457  0.1128
26965W        W44489  17.488  10.641   4.942  0.1700  0.1516  0.0863
26966W        W44490   7.321  13.429   2.981  0.1125 -0.0770 -0.1824
26967W        W44491   7.016  16.749   2.613 -0.0261  0.1078 -0.1810
26968W        W44492  14.666   3.428  12.658 -0.0858 -0.0492 -0.1866
26969W        W44493  16.489   6.420   2.029  0.1917 -0.0616  0.1733
26970W        W44494   4.713   1.091  12.549 -0.2796  0.1006 -0.1673
26971W        W44495  11.770   8.889  14.947 -0.2134  0.1288 -0.1201
26972W        W44496   4.136  17.853  12.616  0.1939  0.3659  0.1219
26973W        W44497   8.913   7.646  13.403 -0.1329 -0.1904 -0.0280
26974W        W44498   7.880   1.795  11.909 -0.0333 -0.0816  0.3177
26975W        W44499   4.097  12.992   5.017 -0.4094 -0.0638 -0.4223
26976W        W44500  11.038  10.032  13.642  0.0917 -0.0919  0.1602
26977W        W44501  16.265   2.310   0.096 -0.2242 -0.1483  0.3369
26978W        W44502  11.660   4.944  12.429  0.3199 -0.0842 -0.3518
26979W        W44503   6.121  17.249   1.233  0.1468 -0.1687  0.3025
26980W        W44504  10.408   6.242  14.249 -0.2196 -0.0929  0.0612
26981W        W44505  17.767  18.191  11.965  0.0636  0.1602 -0.2079
26982W        W44506   4.767  14.474  12.094 -0.1820  0.0847 -0.0083
26983W        W44507  12.340   2.456  11.080  0.1400  0.1084  0.1694
26984W        W44508   9.482   8.558  10.622  0.3286  0.2858  0.0693
26985W        W44509   8.304  11.184   4.227 -0.2759  0.1506 -0.2205
26986W        W44510   8.130   7.457  12.295 -0.0922 -0.1576  0.1594
26987W        W44511  13.842   8.226   3.368  0.0041 -0.2869  0.1447
26988W        W44512   7.105   7.696  12.816 -0.1189 -0.0926 -0.0485
26989W        W44513  14.777   5.335   3.743 -0.0624 -0.1996 -0.0565
26990W        W44514   0.414  16.134  15.137 -0.0532 -0.0336  0.1002
26991W        W44515  11.758   1.892  14.685  0.2122 -0.0457 -0.2834
26992W        W44516  17.969  16.359   3.941 -0.2011  0.1745  0.1300
26993W        W44517  16.853  16.771   3.780 -0.0601 -0.2579  0.0884
26994W        W44518   9.082  17.930   3.609  0.2019  0.0262  0.0033
26995W        W44519  17.308   8.975  15.485  0.3439 -0.0755 -0.1969
26996W        W44520   8.740   4.764   3.611 -0.1692 -0.1147  0.1786
26997W        W44521   5.042   2.022  11.739  0.0029  0.1206 -0.0548
26998W        W44522   2.491  16.269  11.520  0.0573  0.3067 -0.0008
26999W        W44523  11.230   0.366   0.315 -0.0840  0.3607 -0.1990
27000W        W44524  13.558   5.664   4.393  0.0218  0.0218  0.1555
27001W        W44525  11.199   6.674  11.182 -0.3172  0.3153 -0.0411
27002W        W44526   5.408   1.934  10.279 -0.2198 -0.2458 -0.0486
27003W        W44527  13.785   1.667   0.415  0.1043 -0.0254 -0.0455
27004W        W44528  10.297   7.649   4.487 -0.2335  0.2499 -0.0072
27005W        W44529  11.568   7.090  12.117 -0.1046  0.1239 -0.1611
27006W        W44530  12.783   5.244  12.957 -0.1301 -0.1935 -0.2635
27007W        W44531   3.691   6.451  11.481 -0.1319 -0.1858 -0.0527
27008W        W44532  16.378  17.564   4.099  0.0811 -0.0046  0.1267
27009W        W44533  12.789   3.069   3.594 -0.1937  0.2273  0.1607
27010W        W44534  10.844   2.817   1.015  0.3486  0.0890 -0.0354
27011W        W44535   0.020  11.090  12.317 -0.4421 -0.0699  0.1260
27012W        W44536  16.061   1.640   3.170  0.0638  0.1877  0.1275
27013W        W44537   9.148   4.821  12.097  0.1093  0.2473  0.2283
27014W        W44538  12.948   8.420  15.692  0.2224  0.0772  0.0624
27015W        W44539   4.966   8.281   5.360  0.1230 -0.2862 -0.1411
27016W        W44540  18.234   3.909   4.153 -0.0119  0.0281 -0.4462
27017W        W44541   2.692   4.622  14.812 -0.3097 -0.1645 -0.0748
27018W        W44542   3.386   0.464  13.191  0.3841  0.0024  0.0643
27019W        W44543   3.781   5.325  10.943 -0.3057 -0.2346  0.3030
27020W        W44544  14.130   5.543  12.861 -0.0831 -0.2113 -0.1338
27021W        W44545   2.925  17.967  11.438  0.0670  0.5228  0.0440
27022W        W44546   5.595   4.211  15.069  0.0742  0.1373 -0.1075
27023W        W44547   1.448  15.020   3.114 -0.2148  0.2438 -0.1797
27024W        W44548   4.359  12.190   0.468 -0.0471 -0.2002  0.2386
27025W        W44549   6.795  15.659   1.940  0.1436  0.2363  0.3252
27026W        W44550   5.874   1.146   1.438 -0.1440 -0.3531 -0.0585
27027W        W44551   1.808  15.337  14.617  0.0042  0.0019  0.0008
27028W        W44552   3.078   3.483   0.468  0.0221 -0.1723  0.1346
27029W        W44553   4.868   7.040   0.255  0.3529  0.1045  0.0785
27030W        W44554  11.843  18.054  13.619 -0.0739 -0.1932  0.0009
27031W        W44555   3.975   0.359   3.476  0.2264 -0.1338  0.0070
27032W        W44556   6.825   3.871  13.325  0.2862 -0.1615 -0.0359
27033W        W44557   5.248   0.776  15.678 -0.0768 -0.2588  0.1526
27034W        W44558   9.460  10.957  13.000  0.0376 -0.1280  0.2008
27035W        W44559   3.505   3.738  11.793 -0.1893 -0.2583 -0.0378
27036W        W44560   0.251   4.397   0.361 -0.1204  0.1660  0.4330
27037W        W44561   9.418  11.588   2.302 -0.0410 -0.0991 -0.0084
27038W        W44562   2.523   9.106   1.334 -0.0836 -0.0092  0.0242
27039W        W44563   3.732   8.310  11.854  0.2136  0.0211 -0.0867
27040W        W44564   8.416   6.687  11.119 -0.3758 -0.1161 -0.2826
27041W        W44565   1.957   6.764   0.429  0.0433  0.1566  0.3743
27042W        W44566  11.982   5.255  12.191 -0.4906 -0.0298  0.0153
27043W        W44567   1.688   7.087   9.807 -0.0520 -0.2491 -0.0751
27044W        W44568  18.019   0.590   5.023  0.1281 -0.1490  0.2014
27045W        W44569  17.328  13.713  13.827  0.1659  0.0893 -0.3369
27046W        W44570   7.538  12.206  15.319 -0.0621  0.2530  0.0263
27047W        W44571  10.450   9.861  12.965 -0.3106  0.0272 -0.0337
27048W        W44572   5.386  16.591  13.288 -0.1245  0.0105 -0.1887
27049W        W44573  18.245   7.526   3.921  0.0970  0.2929  0.1215
27050W        W44574  13.741  16.623  15.042 -0.4992  0.1628 -0.1147
27051W        W44575  14.193  15.078  13.052 -0.2568  0.2539 -0.4926
27052W        W44576  13.709   6.457  13.013 -0.4148  0.1792  0.0561
27053W        W44577   9.895   9.924   5.509  0.1573  0.3960 -0.0007
27054W        W44578  16.628  17.219  12.213 -0.1354  0.0975 -0.2627
27055W        W44579   7.839   8.313  12.747  0.1363  0.2307 -0.0400
27056W        W44580   4.246   7.792   2.866  0.2436 -0.4361 -0.0363
27057W        W44581  18.285   5.726  12.301  0.1672  0.1594  0.1234
27058W        W44582   7.294  10.658  15.676  0.1383  0.0587 -0.3221
27059W        W44583  17.999   4.828  14.779  0.0736  0.3304  0.0858
27060W        W44584  15.731   1.032  14.301 -0.3220 -0.0971  0.2625
27061W        W44585   4.971  15.338   1.787 -0.2965 -0.0590 -0.0548
27062W        W44586   4.440   6.014  11.342  0.1033 -0.0335 -0.4036
27063W        W44587   0.294  14.771  14.643 -0.0484  0.1395  0.4540
27064W        W44588   0.328  11.845  12.703  0.3703 -0.3526 -0.2521
27065W        W44589   5.577   6.100   1.879  0.0501  0.0800 -0.0342
27066W        W44590   5.235   2.234  14.396  0.1711 -0.0394 -0.1273
27067W        W44591  11.381   1.115  12.052 -0.0544  0.1480 -0.0173
27068W        W44592  17.332  10.964  14.086  0.2840 -0.3308  0.3475
27069W        W44593  15.048  11.869   2.176 -0.0691  0.2164 -0.3925
27070W        W44594  18.221   7.588   3.374  0.2207 -0.1279 -0.0932
27071W        W44595  11.398   4.561   4.435  0.1061 -0.0688  0.0735
27072W        W44596   5.970   1.254  15.087 -0.3369  0.2263  0.0079
27073W        W44597   6.690  11.856   0.754 -0.2721  0.1424 -0.0527
27074W        W44598   4.150  11.213   1.988  0.0236 -0.1443 -0.2124
27075W        W44599   2.596  16.131  12.656 -0.2286  0.1728  0.1109
27076W        W44600   1.653  14.271   1.966 -0.0598  0.0392  0.2263
27077W        W44601   4.985   0.305   0.973  0.1925  0.1267 -0.0750
27078W        W44602   5.803  10.272  14.886 -0.0295 -0.2155  0.1330
27079W        W44603  16.854  13.574   1.690  0.0718  0.0050 -0.0357
27080W        W44604   9.329  16.418  14.033  0.0048 -0.1077  0.0162
27081W        W44605   7.636   4.852   5.914 -0.1120  0.1060  0.2682
27082W        W44606   8.592  17.018  15.840  0.0386  0.0920 -0.0444
27083W        W44607   5.277   9.824   0.324  0.0286 -0.1878 -0.2620
27084W        W44608   4.510   4.335  15.566  0.1082  0.1447 -0.1470
27085W        W44609  14.893  17.767   3.493  0.0269  0.0751 -0.0876
27086W        W44610  17.353   4.893   0.755 -0.1250 -0.1779  0.1677
27087W        W44611  10.110  12.264   2.842  0.1298  0.0597 -0.4188
27088W        W44612  17.213  17.240   0.602  0.1879  0.3305  0.1815
27089W        W44613  18.057   9.586  14.647 -0.2875 -0.2565  0.0913
27090W        W44614  16.343   2.655  14.599  0.2142 -0.0831  0.0240
27091W        W44615  16.703  10.276  11.899  0.1090 -0.2653  0.1033
27092W        W44616  16.941  13.592  12.549  0.3714 -0.1523 -0.3931
27093W        W44617  10.189   9.498  12.673 -0.1805 -0.4312 -0.3274
27094W        W44618  15.070  11.144   4.628 -0.5559  0.0035 -0.1868
27095W        W44619   9.436   3.752  14.238 -0.0392 -0.1346  0.0880
27096W        W44620   4.402  16.236  14.927 -0.3467 -0.2448 -0.0717
27097W        W44621   5.209   1.718   3.009 -0.1409 -0.1042  0.2229
27098W        W44622  12.051  13.840  15.296 -0.1195 -0.1324 -0.0154
27099W        W44623   5.342   9.904   4.610  0.3276  0.0351 -0.1571
27100W        W44624   2.151   0.595   1.851 -0.1408  0.3550 -0.0137
27101W        W44625   7.153  12.573   1.927 -0.0870 -0.3900 -0.2138
27102W        W44626   6.317  14.338   3.438 -0.0672  0.3452 -0.5073
27103W        W44627  16.853   8.914   3.174  0.1122  0.4519  0.1181
27104W        W44628   1.862   0.981  13.040  0.0276  0.0496  0.5425
27105W        W44629   1.434  13.993   2.320 -0.2301  0.0008  0.0235
27106W        W44630  15.976   8.787   0.633 -0.1807 -0.0607 -0.2947
27107W        W44631  17.846   4.919   2.166  0.4920 -0.0389 -0.0011
27108W        W44632  15.836  18.323  11.812 -0.2793  0.1782 -0.0122
27109W        W44633   7.490   7.403   0.571  0.2629  0.2230 -0.4431
27110W        W44634   4.247   0.271   2.398 -0.0062 -0.0052 -0.1889
27111W        W44635  15.444  15.967   3.751  0.1139 -0.3389 -0.0962
27112W        W44636   3.382  16.277   4.771 -0.0386 -0.0649  0.0009
27113W        W44637   9.057  13.472  11.969  0.0119  0.2976  0.0606
27114W        W44638  17.674   2.537  13.591 -0.0852  0.0311  0.1298
27115W        W44639  18.063  11.950  11.056  0.0291 -0.0379 -0.0595
27116W        W44640  11.527   2.435  10.346 -0.0479  0.0041 -0.0458
27117W        W44641  12.436   2.322  15.700  0.0023  0.0342 -0.0361
27118W        W44642   1.807   9.546   1.078  0.1284  0.0056 -0.1067
27119W        W44643  13.156   4.563  11.796 -0.1329  0.1132 -0.0360
27120W        W44644  10.840   2.584   3.320  0.1846  0.0754 -0.0894
27121W        W44645  16.928   4.327  13.528  0.0022  0.0206 -0.2569
27122W        W44646   8.339  13.396  14.455  0.4819  0.1109 -0.2203
27123W        W44647   8.560  15.472  13.828  0.1695  0.1700  0.3330
27124W        W44648  11.285  14.883  14.008 -0.0608  0.0288 -0.0103
27125W        W44649   3.830   5.360  11.523 -0.1027 -0.0285  0.1353
27126W        W44650  14.333  14.268  14.272  0.1559 -0.2257 -0.0602
27127W        W44651  12.396  16.040  15.509 -0.4147  0.0586  0.0020
27128W        W44652  10.632  16.973   0.638 -0.0290  0.0734 -0.1001
27129W        W44653   5.608   6.632   0.173  0.0863 -0.1378  0.2657
27130W        W44654   6.731  12.609   2.390  0.1591 -0.2193  0.2231
27131W        W44655   3.874  11.425   2.332 -0.2963  0.0394 -0.3247
27132W        W44656  16.544  17.787   0.941  0.0027  0.0513  0.2154
27133W        W44657  13.460  15.678  12.777 -0.0167 -0.1924 -0.2055
27134W        W44658   2.496  14.600  14.896  0.0352  0.1248  0.1698
27135W        W44659  15.017  10.190  11.838  0.1501  0.1166 -0.1720
27136W        W44660  17.659   1.806   0.408 -0.2541  0.3552  0.3059
27137W        W44661   8.261   6.380  14.397  0.0020 -0.1149 -0.0504
27138W        W44662   8.321   0.655   4.819  0.0013  0.0996 -0.0026
27139W        W44663   8.695   4.340  13.346  0.0160  0.0250  0.2892
27140W        W44664   1.954   5.206   0.221 -0.1670  0.3755  0.1742
27141W        W44665   5.102  18.413  14.115 -0.0414  0.1299  0.1690
27142W        W44666  11.728   2.590   5.768 -0.0549 -0.0143  0.0870
27143W        W44667  16.186  14.451   5.913  0.0046  0.0216  0.2400
27144W        W44668  10.311   3.785  14.680  0.0157 -0.0447 -0.1400
27145W        W44669   4.344  12.603   1.401 -0.2002 -0.2524 -0.2389
27146W        W44670  13.965   5.230  13.815 -0.1961  0.1319 -0.0478
27147W        W44671  12.999   8.056   0.152 -0.0525  0.0633 -0.2093
27148W        W44672  10.084   6.009   3.191  0.0507 -0.1235  0.1528
27149W        W44673   4.907  11.610  14.323  0.0235  0.1032 -0.0550
27150W        W44674  18.222  14.988  12.678  0.1524 -0.2159 -0.4934
27151W        W44675  10.207  13.405  12.732 -0.0973 -0.1456  0.1596
27152W        W44676  12.929  15.453  13.832  0.0751  0.0004  0.0785
27153W        W44677  15.161  11.220  12.374 -0.2059  0.1327  0.1230
27154W        W44678   3.932   2.105   2.870 -0.1992  0.1268 -0.1137
27155W        W44679  14.123   9.824   2.894 -0.1254 -0.0265  0.0299
27156W        W44680   8.372  16.490   1.866  0.0341  0.3180 -0.2449
27157W        W44681  17.744  10.000   2.055  0.0467 -0.0492  0.3385
27158W        W44682  10.428   7.433   3.625 -0.0249 -0.0622 -0.1743
27159W        W44683   1.831  13.141  10.712 -0.1582  0.0170  0.0970
27160W        W44684   7.612   8.079  13.960  0.0056  0.0157  0.2485
27161W        W44685   2.361   8.725   2.977  0.1705 -0.0087  0.0446
27162W        W44686   9.937  10.720  13.081 -0.1062  0.2171  0.0785
27163W        W44687   9.887   5.450   1.306 -0.0009  0.1906 -0.1260
27164W        W44688   3.899   0.020   0.017  0.0581  0.3440 -0.0156
27165W        W44689   9.431  10.915  15.410  0.1744  0.1721 -0.1169
27166W        W44690  14.769   1.170  12.435  0.2643  0.0444 -0.3460
27167W        W44691   1.037  17.418   2.053  0.0779 -0.0609  0.0586
27168W        W44692  14.215  14.253   0.411  0.0630  0.2195 -0.1262
27169W        W44693   8.593   9.908   2.781 -0.1558 -0.0171 -0.0264
27170W        W44694   3.285   4.803  14.533 -0.1233 -0.2357  0.0510
27171W        W44695   1.997   3.065   4.419 -0.3056 -0.2131 -0.0963
27172W        W44696   2.540   4.317   1.006  0.0777  0.0173  0.2444
27173W        W44697  10.611  13.348  11.577 -0.4187 -0.1019  0.0330
27174W        W44698  12.654  15.052   5.136  0.1256 -0.0526  0.3176
27175W        W44699   7.558   0.182   0.252 -0.2523  0.0591  0.3727
27176W        W44700   9.804   5.072   3.677  0.0642 -0.2403 -0.1882
27177W        W44701   8.415   6.473  13.027  0.2085 -0.0376 -0.0016
27178W        W44702   5.280  12.566  13.452  0.0322 -0.1927 -0.0576
27179W        W44703  14.168  12.754   1.863 -0.1112 -0.0049  0.1350
27180W        W44704   5.642  16.024  15.750 -0.2198 -0.2566 -0.0606
27181W        W44705   8.757  12.941  14.038 -0.0649 -0.2348  0.0323
27182W        W44706  14.027   2.355   0.156 -0.0294 -0.0798  0.0228
27183W        W44707   0.144   0.973  14.136  0.3394 -0.0492  0.2720
27184W        W44708   9.876  13.250   1.039 -0.0116  0.0035 -0.1688
27185W        W44709   9.762   0.495  12.531  0.1685 -0.2068  0.0815
27186W        W44710   5.068   1.999  14.843 -0.1267  0.0315 -0.1106
27187W        W44711   0.853   8.752   3.641 -0.4465 -0.1053  0.0190
27188W        W44712   8.329   0.532  15.315 -0.3936 -0.1764  0.0006
27189W        W44713  14.424   4.629  11.271  0.0209  0.2313  0.1464
27190W        W44714  17.819  13.030  12.163 -0.1623  0.1325  0.0773
27191W        W44715  17.619   7.540   1.034  0.0203 -0.3294  0.3257
27192W        W44716  11.570  12.366   2.558 -0.0776  0.0241  0.1079
27193W        W44717   6.397  12.734  11.472  0.3026 -0.0514 -0.0572
27194W        W44718  17.363   7.726  12.284  0.2244  0.0249 -0.1024
27195W        W44719   5.314  11.221   5.271  0.0792 -0.0836 -0.0285
27196W        W44720  14.810   6.759   0.274  0.0135  0.4449 -0.0219
27197W        W44721   9.297  11.206   0.365  0.1276 -0.0215 -0.0593
27198W        W44722   7.826   2.300   1.590  0.1967 -0.0945  0.0935
27199W        W44723   0.451   6.788   1.410 -0.0388  0.0664 -0.2066
27200W        W44724  16.267  12.245  15.857 -0.1882 -0.0815 -0.0130
27201W        W44725   5.831  15.717  12.157 -0.0917 -0.4052 -0.0510
27202W        W44726  17.083   2.595  12.859  0.2818 -0.1732 -0.2786
27203W        W44727  11.576   7.184  13.199  0.2527  0.1157  0.2529
27204W        W44728  10.675  18.124   3.722 -0.0690 -0.3308 -0.0319
27205W        W44729  10.751   7.930  14.515 -0.4240 -0.1392  0.1765
27206W        W44730   0.654   4.402   2.968  0.0103 -0.0546  0.1526
27207W        W44731  12.237   8.312  13.841 -0.1299  0.2025 -0.2863
27208W        W44732  11.695   3.859   5.443  0.0177  0.0065  0.0702
27209W        W44733   3.503   5.693  11.531  0.1531 -0.2229 -0.2608
27210W        W44734   7.738   9.954   3.063 -0.4342  0.1990 -0.2540
27211W        W44735  13.339  16.142   1.269 -0.0386 -0.1082  0.0640
27212W        W44736  12.868  16.116   3.764 -0.2910 -0.0445  0.0235
27213W        W44737   0.420   0.411  13.412 -0.0528  0.2457  0.3202
27214W        W44738  15.670  12.580   4.202 -0.0299  0.0982  0.3959
27215W        W44739   8.658   8.902   0.825 -0.1685  0.2649  0.0911
27216W        W44740   1.849   0.618   0.591  0.3444 -0.0478 -0.1595
27217W        W44741   4.970   7.253   4.015 -0.1657 -0.1973  0.0705
27218W        W44742  12.875  11.970   0.532  0.2830 -0.2493  0.1613
27219W        W44743   9.671   0.522  15.136  0.1806  0.1610 -0.3942
27220W        W44744  13.350  12.588   0.814  0.1922  0.1614  0.0759
27221W        W44745   3.637  15.691   1.925 -0.1923 -0.2651  0.2695
27222W        W44746   0.897  14.806   3.351  0.0691  0.0647  0.0440
27223W        W44747   1.344  14.786  14.997  0.1281 -0.2002  0.0507
27224W        W44748  13.384   3.299   5.821  0.3023  0.0705 -0.3261
27225W        W44749  14.912  10.791   2.506 -0.1383  0.3091 -0.1397
27226W        W44750  13.962   8.553  12.220  0.0381  0.1000 -0.1322
27227W        W44751  14.869   8.535  14.551  0.0976  0.1539 -0.1991
27228W        W44752  14.989   9.102   2.864  0.2545  0.0550  0.1972
27229W        W44753  11.550  11.172   3.890  0.0680 -0.1147  0.0442
27230W        W44754  11.329   1.572  13.390  0.0161  0.2673  0.1579
27231W        W44755  12.123  17.714  13.326 -0.2221 -0.0674  0.0724
27232W        W44756  10.285   2.417   0.332  0.1704 -0.4230  0.1828
27233W        W44757  10.951  17.623   0.296 -0.2451  0.4391  0.1310
27234W        W44758  18.119  15.934  14.696  0.2675 -0.2828 -0.0969
27235W        W44759   4.860  13.615   3.980 -0.1148  0.1111  0.0448
27236W        W44760  14.417  15.402   3.077  0.3785 -0.0691 -0.1007
27237W        W44761   4.758   0.631  15.853 -0.0935 -0.2857 -0.1213
27238W        W44762  15.149   7.906  12.691 -0.0738  0.0768 -0.1206
27239W        W44763  15.218  17.324  15.261 -0.1997  0.3081  0.1825
27240W        W44764   4.842  16.958  14.998  0.1459  0.0033  0.1020
27241W        W44765   8.297  10.276   1.337 -0.1805 -0.0341 -0.0804
27242W        W44766   9.750   9.130  12.307 -0.0820  0.1023  0.0003
27243W        W44767   0.583  13.685  14.291 -0.1410 -0.0992  0.0422
27244W        W44768   2.555   8.209   3.670  0.6024  0.0642 -0.0698
27245W        W44769  10.403  13.742   0.615  0.0973  0.0699 -0.2143
27246W        W44770  12.721  17.588   2.211  0.3544  0.0878 -0.3228
27247W        W44771   8.936   8.366  14.093 -0.0550  0.1613  0.4742
27248W        W44772   6.286  15.623   2.139  0.0015  0.1344 -0.1068
27249W        W44773   0.024  10.002  12.491  0.0808 -0.2023 -0.0401
27250W        W44774   3.877  10.112  12.020 -0.0933 -0.0159 -0.1595
27251W        W44775  11.371   7.911   0.078  0.1750  0.2121 -0.0774
27252W        W44776  16.618  14.733  13.249 -0.0403 -0.0174  0.0408
27253W        W44777  16.416  14.882   2.990  0.4591 -0.2814  0.0105
27254W        W44778   8.710  13.823   0.049 -0.0234  0.2031  0.1227
27255W        W44779  15.975  16.113   4.608  0.3576  0.2476  0.0296
27256W        W44780  11.915   1.690  15.115  0.2322  0.2471 -0.0609
27257W        W44781  16.054   7.823   0.974  0.1628  0.3161  0.0290
27258W        W44782   1.024   5.773   3.371  0.0088  0.4694 -0.0470
27259W        W44783   4.406   2.985  15.653 -0.0970 -0.0783 -0.3187
27260W        W44784   6.103   8.920  10.999  0.0312  0.1071  0.3477
27261W        W44785  10.094   6.110   2.298  0.2312  0.2342 -0.1432
27262W        W44786   2.079   7.001  11.456  0.1740  0.0889 -0.0472
27263W        W44787  16.554  15.896  14.635  0.2657  0.0731  0.1384
27264W        W44788  13.455   9.237  13.739  0.3444  0.0144 -0.1604
27265W        W44789  11.311   9.594  12.960  0.0159 -0.1366 -0.0342
27266W        W44790   3.191   6.761   0.134  0.0504 -0.2972  0.2114
27267W        W44791   0.975   1.074   2.743 -0.2463 -0.0563  0.1195
27268W        W44792   7.748   5.698   2.266 -0.0052  0.1667 -0.1153
27269W        W44793   3.572   0.367   1.729  0.0450 -0.1780 -0.0574
27270W        W44794  14.660  13.093  11.866 -0.2293 -0.3262 -0.0031
27271W        W44795   2.701   6.886  14.834 -0.3218 -0.0944 -0.0759
27272W        W44796   4.361   8.719  14.296  0.2240 -0.2229 -0.1909
27273W        W44797   4.658   2.723  13.945 -0.0428  0.1165 -0.2090
27274W        W44798   6.693  15.202   6.129 -0.1811 -0.3756  0.3511
27275W        W44799   6.147   4.759  12.586  0.1255 -0.0470  0.0946
27276W        W44800   0.216  10.117  10.925 -0.1098  0.0418  0.0120
27277W        W44801  10.456   3.522   1.177  0.1622 -0.2215 -0.0236
27278W        W44802   7.843  17.068   3.357 -0.0556  0.0444  0.0732
27279W        W44803   7.135  14.870  12.666  0.0890  0.0635 -0.2183
27280W        W44804  11.858   8.521  12.295  0.2076 -0.1230  0.2752
27281W        W44805   0.647   8.434   0.545  0.0912  0.2029 -0.0175
27282W        W44806   3.770  11.223  14.458  0.0623  0.0214 -0.1944
27283W        W44807  10.965  17.829  12.102  0.1392 -0.1118 -0.0948
27284W        W44808  13.615   2.403   3.467  0.1172 -0.2363 -0.0003
27285W        W44809   6.627   4.455  12.622  0.3622 -0.2081  0.1130
27286W        W44810  13.393  17.427   4.183  0.0860 -0.1067 -0.0693
27287W        W44811   8.416  14.120   2.897 -0.1401  0.0134 -0.2223
27288W        W44812  10.418   4.650  13.480 -0.1657  0.0571 -0.0408
27289W        W44813  18.231   0.651   2.211 -0.1604 -0.1279 -0.4085
27290W        W44814   4.129  13.291  11.640  0.0294 -0.3591 -0.0658
27291W        W44815  10.151  15.124   2.688 -0.1731  0.0394 -0.1305
27292W        W44816  11.387   0.868  14.006 -0.2389  0.0298  0.1629
27293W        W44817  13.553   5.582  13.887 -0.1159  0.2135 -0.1275
27294W        W44818  16.386  17.828  11.595 -0.0897 -0.1795 -0.3202
27295W        W44819   9.313   7.432   1.581 -0.1737 -0.3633  0.1248
27296W        W44820   3.992   6.447   3.913 -0.2056  0.0563 -0.0350
27297W        W44821   7.687   2.131   1.076  0.0181  0.2804  0.1132
27298W        W44822   3.248   0.429  14.733 -0.1255  0.2761  0.2673
27299W        W44823   9.726   0.997  12.813 -0.4425  0.3320  0.2560
27300W        W44824   5.042   6.215   3.314 -0.4102 -0.2245 -0.2112
27301W        W44825   0.773   7.166   0.037  0.0536 -0.0133  0.4693
27302W        W44826   2.634  15.875  15.335 -0.1734  0.0804 -0.0095
27303W        W44827  15.070   2.722   4.739  0.1706  0.3374  0.2293
27304W        W44828   6.649   8.352   1.481  0.1226  0.0805 -0.0770
27305W        W44829   9.847   6.499  11.310  0.3018  0.1290  0.4310
27306W        W44830  11.771   5.189   2.227  0.1333  0.3533 -0.2533
27307W        W44831   0.803  14.469  13.640  0.1665 -0.0795 -0.2391
27308W        W44832   1.844  17.207  14.649  0.0602  0.1705 -0.1834
27309W        W44833   0.975  10.587  14.943  0.0854 -0.2450 -0.0869
27310W        W44834   7.001  12.153   1.625  0.2144  0.0394 -0.1388
27311W        W44835  17.506   9.474  14.652  0.0353  0.0959 -0.1612
27312W        W44836   1.672   8.512   1.231 -0.0463 -0.1368  0.3595
27313W        W44837   9.642   6.288   1.826  0.1015  0.0977  0.2030
27314W        W44838   3.010   9.975  14.259 -0.1072 -0.0259  0.1604
27315W        W44839   5.281  10.423   9.915  0.0184 -0.0580 -0.2898
27316W        W44840  15.831  15.386  15.028  0.3835 -0.0856  0.4865
27317W        W44841   6.754   5.229   1.965 -0.2771 -0.1857  0.0952
27318W        W44842  14.156  15.459   0.416 -0.1105 -0.0894 -0.1356
27319W        W44843   1.328  10.940  15.848  0.0323  0.2403 -0.0746
27320W        W44844  11.491   9.208   0.905  0.0458  0.1305 -0.3622
27321W        W44845  10.082   0.190  14.086 -0.3307 -0.1384 -0.1656
27322W        W44846  16.619  17.994  13.956  0.0190  0.0596  0.0775
27323W        W44847  18.044   8.331   2.794 -0.0133  0.0580 -0.3693
27324W        W44848   0.606  13.034   0.801 -0.0083  0.1423 -0.0466
27325W        W44849   0.599   5.969   3.042  0.1339  0.0463  0.0588
27326W        W44850  11.714   6.979   0.097  0.1146 -0.0034 -0.1250
27327W        W44851   9.413  11.701   0.463  0.2516 -0.3206 -0.0885
27328W        W44852  11.497  13.924  15.830 -0.2561  0.0821  0.0378
27329W        W44853   4.107   8.941   0.502 -0.0319 -0.0941 -0.2826
27330W        W44854   3.233   8.248  11.693  0.1997  0.0489 -0.1362
27331W        W44855   1.083   5.569  14.247  0.0836  0.0107  0.2374
27332W        W44856   9.912  18.347  14.551  0.0548 -0.0317 -0.2753
27333W        W44857  15.324  15.838   5.095 -0.1043  0.0674 -0.2328
27334W        W44858  17.214   2.071  14.686  0.3638  0.2141  0.0872
27335W        W44859   8.489   0.100   3.718  0.3524  0.2610  0.0882
27336W        W44860   6.461   9.377  10.874 -0.1287  0.4038  0.1171
27337W        W44861  15.378  10.644   4.343 -0.1408  0.0053 -0.0181
27338W        W44862   9.200   5.586   2.815  0.3202  0.0389 -0.1173
27339W        W44863   0.700   8.220  11.180 -0.0827  0.2288 -0.2092
27340W        W44864   2.891  16.460   4.849 -0.3911  0.0308 -0.1661
27341W        W44865   5.017   5.224   1.221 -0.2543  0.3541 -0.2584
27342W        W44866  11.802   4.583   3.479  0.1644  0.3456 -0.0654
27343W        W44867  12.012   8.330   0.708  0.0166  0.0275 -0.2698
27344W        W44868  11.475   9.233  15.003 -0.0923 -0.4291 -0.0957
27345W        W44869  17.316   4.276  13.839 -0.0621 -0.2930  0.2998
27346W        W44870   2.664  15.195   0.411  0.0139  0.1623  0.4601
27347W        W44871  14.588  13.446  11.477 -0.3108  0.1672 -0.1135
27348W        W44872  18.300  17.457   2.425 -0.1115 -0.2687 -0.1316
27349W        W44873  13.272  15.279  15.626 -0.1310  0.1816 -0.3229
27350W        W44874  14.137  12.290   1.453  0.0430 -0.0337  0.2938
27351W        W44875   8.071  11.121  13.457  0.0633 -0.1374  0.0320
27352W        W44876  17.165   3.909   1.282  0.0947  0.1056 -0.2656
27353W        W44877   9.966   4.380  11.730 -0.2408  0.0295  0.2090
27354W        W44878  10.983  16.822  12.014  0.4665 -0.0749 -0.1532
27355W        W44879   1.796   2.864  13.034 -0.0861 -0.0962  0.0121
27356W        W44880  18.069   3.017   3.653 -0.1113  0.0003  0.2083
27357W        W44881  13.242   0.305   2.963 -0.0407 -0.2301 -0.2853
27358W        W44882   8.920   8.433  14.705 -0.1765  0.1861 -0.0582
27359W        W44883  11.727   5.364  10.084 -0.0367 -0.0124  0.0870
27360W        W44884   0.248  13.280   1.067  0.2489 -0.0647 -0.2544
27361W        W44885   2.701   5.958   5.048 -0.0686 -0.0267 -0.1691
27362W        W44886  17.626   6.805  14.524 -0.2661  0.1647  0.0347
27363W        W44887  15.408   7.092   3.199 -0.1374  0.2826 -0.1197
27364W        W44888   0.798  12.314   5.196  0.2112  0.1308  0.1039
27365W        W44889   6.039  17.928  15.460  0.0778 -0.0334  0.1282
27366W        W44890  15.952   1.639  12.109 -0.3283  0.2687  0.1066
27367W        W44891  17.806  13.486   1.637  0.1204  0.2548 -0.0660
27368W        W44892   4.161  16.414  11.786  0.2349  0.0813  0.0934
27369W        W44893  10.163   0.838  11.829  0.1165  0.1655  0.2828
27370W        W44894   0.396   5.549   2.735  0.0620  0.1768 -0.0676
27371W        W44895  11.399  12.509  11.144  0.1615 -0.1566 -0.0471
27372W        W44896  11.494  16.362  14.883  0.1845 -0.2973  0.1007
27373W        W44897   7.973  17.474  11.374 -0.1029  0.0074  0.2932
27374W        W44898   7.111   5.527  11.858 -0.2110  0.2401  0.2103
27375W        W44899   0.943   9.809  12.263  0.0468  0.3055  0.1989
27376W        W44900  12.232  18.136   0.218  0.1778 -0.0439 -0.0515
27377W        W44901  12.525  13.058  13.351  0.1482  0.3310  0.2037
27378W        W44902   6.814   0.280   2.938  0.3205 -0.1070 -0.0869
27379W        W44903  12.948   4.025   5.251 -0.0885  0.1431 -0.1313
27380W        W44904   9.450   8.230  14.203  0.0228 -0.3994 -0.1628
27381W        W44905   1.007  13.210   0.275 -0.0370  0.2301  0.0009
27382W        W44906  17.009   4.059  15.542 -0.1055  0.0543 -0.0179
27383W        W44907   4.416   8.801  13.781  0.1033 -0.4220  0.1336
27384W        W44908   6.629   6.634  10.759 -0.2899 -0.0976  0.1115
27385W        W44909   7.736   1.268  13.453 -0.0049  0.0790 -0.2549
27386W        W44910   7.500   5.620  12.350 -0.1878 -0.3694 -0.1989
27387W        W44911  14.012   2.877   3.505 -0.3087  0.2337 -0.0581
27388W        W44912  16.827   8.870  13.175  0.0125  0.0514  0.2941
27389W        W44913  10.714  13.436   1.361 -0.0241  0.0426  0.0093
27390W        W44914   2.843  14.507   0.322 -0.0526 -0.4260  0.1638
27391W        W44915  16.290   5.211   1.032  0.1222  0.0536  0.2649
27392W        W44916  13.581   4.134  11.025 -0.0965 -0.2060 -0.0287
27393W        W44917   5.041   0.360  11.011  0.1600  0.0555 -0.0578
27394W        W44918   7.016  14.016   2.058 -0.3638  0.0030  0.2375
27395W        W44919   9.096   4.592   1.551  0.2593 -0.1258  0.1583
27396W        W44920   3.006  10.403   1.362  0.0329  0.3609 -0.1788
27397W        W44921   8.133  15.609   0.782  0.0887  0.0755  0.1048
27398W        W44922   6.525  13.019   3.359 -0.3169 -0.1163 -0.2085
27399W        W44923  10.827   8.347   3.875  0.1812 -0.0966  0.1563
27400W        W44924   9.819  14.590  15.416  0.0590  0.3151 -0.2501
27401W        W44925   2.939  11.575  12.368 -0.0710 -0.1641 -0.3336
27402W        W44926   7.663  16.818  15.228 -0.2399  0.0108 -0.1623
27403W        W44927   7.137  17.440  14.799  0.2341 -0.4776 -0.0636
27404W        W44928   9.225  17.993   2.671  0.0173 -0.0854  0.0389
27405W        W44929  15.471   5.603   0.502  0.0709 -0.3694 -0.3311
27406W        W44930  15.572  14.802  15.537  0.1792 -0.0776 -0.0176
27407W        W44931   7.269   3.521  11.127  0.3085  0.0954 -0.4357
27408W        W44932   2.332   5.946   0.738 -0.1465  0.3524  0.1906
27409W        W44933  16.085   2.138   3.018  0.0818  0.0180 -0.2202
27410W        W44934   8.678   2.063  13.237  0.0769  0.3351 -0.0490
27411W        W44935  13.223   7.943   5.407 -0.1068 -0.1386 -0.3687
27412W        W44936   0.739   4.867  14.401  0.0020  0.1331 -0.0764
27413W        W44937  10.256  14.694  14.043 -0.2900  0.5196  0.1311
27414W        W44938  16.247   4.088   1.800 -0.1446 -0.1445  0.0425
27415W        W44939  14.603   1.387  14.303 -0.1308 -0.0091 -0.1708
27416W        W44940  14.290   9.484   4.535 -0.2529  0.0885  0.0161
27417W        W44941   2.703   0.118  14.389  0.3751  0.3508  0.0161
27418W        W44942   5.942   5.057  14.190 -0.1784 -0.1101  0.1695
27419W        W44943   4.394   2.939  14.312  0.0241 -0.0872 -0.1129
27420W        W44944   4.057   4.186  11.730 -0.1299 -0.2289  0.0254
27421W        W44945  17.109   3.451   4.168 -0.0767  0.0641 -0.2898
27422W        W44946  11.966   5.484  11.599  0.0192  0.1717  0.0290
27423W        W44947   5.175   7.368  11.485 -0.0334  0.1288 -0.2215
27424W        W44948   0.108  10.616  13.995  0.2967 -0.0322  0.2182
27425W        W44949  12.688  17.138  11.468  0.2204  0.2280 -0.0769
27426W        W44950  13.391   2.534  15.284  0.0363 -0.0697 -0.2307
27427W        W44951  10.650  14.981   0.295 -0.0522 -0.0142  0.0877
27428W        W44952   0.600   9.144   5.432  0.1176  0.0915  0.0996
27429W        W44953   0.713   2.223  11.223 -0.1664 -0.0566 -0.0292
27430W        W44954  11.494   0.594   3.986 -0.2497 -0.1946  0.1798
27431W        W44955   5.466  10.103   3.766  0.1325  0.2313  0.4181
27432W        W44956  17.412   8.785  12.386 -0.0314 -0.0116 -0.3864
27433W        W44957   8.996   6.983   1.759 -0.0789 -0.2057  0.2317
27434W        W44958  16.757  12.009  15.135  0.2810 -0.0018 -0.2865
27435W        W44959  10.877   2.146  12.636 -0.0731  0.3243 -0.2377
27436W        W44960   6.009   6.632   1.126  0.1377  0.0142 -0.1350
27437W        W44961  15.121   6.111  12.875  0.0207  0.0984  0.1912
27438W        W44962   1.452  11.655   5.006 -0.1499 -0.1799  0.0949
27439W        W44963   5.888  15.460  11.698 -0.2089  0.1792 -0.1580
27440W        W44964   8.746   8.850   1.759  0.0964 -0.0772  0.1448
27441W        W44965   9.865  16.101  13.609  0.0649 -0.1746  0.0853
27442W        W44966  17.179   3.666   1.725  0.0322 -0.0597 -0.1864
27443W        W44967   4.489  17.675  15.495 -0.1003 -0.1860 -0.2630
27444W        W44968   7.484   6.830  10.727  0.2815  0.0187 -0.0698
27445W        W44969   3.907   9.008   2.827  0.0498 -0.0364  0.0025
27446W        W44970  17.063   6.290   2.155  0.1883 -0.1035  0.2796
27447W        W44971   9.575  13.148   4.953  0.4155 -0.1895 -0.5395
27448W        W44972  14.925  12.319   5.169 -0.1387 -0.2287 -0.1040
27449W        W44973   1.772  12.985  14.476  0.2324  0.1662 -0.1954
27450W        W44974  17.049  13.030  11.793  0.1266  0.1812  0.2876
27451W        W44975   1.762   5.834   2.724 -0.2340  0.1397  0.2848
27452W        W44976  18.261   3.558   3.670  0.3048 -0.0878 -0.3028
27453W        W44977  17.266   0.358   1.081  0.1154  0.1157 -0.2516
27454W        W44978   3.994   6.908   0.389 -0.0621  0.2957 -0.1372
27455W        W44979  13.643   9.294   0.212  0.1250  0.1068  0.1859
27456W        W44980   0.940  13.219   3.711 -0.0343 -0.0226 -0.5307
27457W        W44981   7.538   6.330  12.873  0.0668 -0.0261 -0.1756
27458W        W44982  17.393   2.723   1.779  0.1514  0.1383  0.0182
27459W        W44983   7.119   7.051   2.148  0.0302  0.0439 -0.1189
27460W        W44984   9.456   4.150   1.883 -0.2770 -0.0491 -0.3349
27461W        W44985   3.241   1.005   2.391  0.0647 -0.0517  0.1807
27462W        W44986   7.259   2.141   1.618  0.2883 -0.0425  0.0717
27463W        W44987   8.253  11.607   1.156 -0.1839 -0.0683  0.1804
27464W        W44988   8.448   8.776   0.344 -0.1340  0.1060  0.0469
27465W        W44989   6.469  16.894   1.373  0.0339  0.0705  0.1142
27466W        W44990  11.378  12.324  12.755  0.0098  0.2034  0.1358
27467W        W44991  12.458  11.453   2.203 -0.1895  0.1098  0.0342
27468W        W44992   6.522  14.637   0.744 -0.2531 -0.0013 -0.0900
27469W        W44993  15.913   7.118  12.782  0.4452  0.1166  0.1018
27470W        W44994   4.180   9.700   1.398  0.0022  0.0602  0.2737
27471W        W44995  10.466   0.321   3.883 -0.1548  0.2147  0.0185
27472W        W44996   6.352  14.658  11.151 -0.2391  0.2539  0.3489
27473W        W44997  17.237   1.605  14.894 -0.1875 -0.3262 -0.0712
27474W        W44998   7.296   2.104  12.568  0.0928  0.2034 -0.2097
27475W        W44999  17.214  16.214  11.486  0.2837 -0.2983  0.2583
27476W        W45000   3.636  14.340   3.572 -0.4078  0.0332  0.1559
27477W        W45001   8.253  11.767  14.000  0.2139  0.1213 -0.0995
27478W        W45002   0.444   1.761  11.322 -0.2306  0.0218 -0.0047
27479W        W45003   5.083   5.099   2.246  0.0942  0.2098  0.3815
27480W        W45004  15.869  11.003   3.457  0.1543  0.0975  0.0029
27481W        W45005   2.373  12.735   3.455 -0.0067  0.0925 -0.1301
27482W        W45006   7.059  14.864   3.059  0.0994  0.1704  0.0518
27483W        W45007  17.117  16.606  12.843 -0.2946 -0.0770  0.1583
27484W        W45008   2.449  16.660   4.724 -0.1325  0.0526  0.0645
27485W        W45009  16.203   4.950   2.914  0.3442  0.5250 -0.1699
27486W        W45010  15.972   5.577  14.985  0.2519 -0.5060  0.1625
27487W        W45011  14.654   7.262   4.060  0.1005 -0.1800 -0.0558
27488W        W45012  18.270  12.552   3.983 -0.3805  0.1184  0.1497
27489W        W45013  12.314  15.832  13.381  0.0152  0.0516  0.3877
27490W        W45014   8.772  14.361   3.129  0.0022  0.0456 -0.0613
27491W        W45015   1.730  14.629  11.683  0.1031 -0.0723 -0.0738
27492W        W45016   5.620  16.465  11.040  0.0532  0.1464  0.0214
27493W        W45017   3.725  15.912  15.481  0.3350  0.2468 -0.2474
27494W        W45018  14.087   7.244   4.143  0.0793  0.1645 -0.0785
27495W        W45019  17.383  10.571  13.214 -0.1298  0.2407  0.1136
27496W        W45020  13.505  13.054  12.319  0.0654 -0.1361  0.2306
27497W        W45021   9.640  17.035  11.826  0.2738  0.0957 -0.0140
27498W        W45022   2.564   9.010  14.068  0.0866  0.5967  0.2471
27499W        W45023  13.161  10.291  11.610  0.2917 -0.0309  0.0797
27500W        W45024  14.572   2.526  11.379  0.0100  0.0152  0.1688
27501W        W45025  14.427   5.325   1.713  0.3118  0.0410  0.1520
27502W        W45026  11.799   7.593   2.459  0.0051 -0.1257  0.3712
27503W        W45027  10.811  15.885  13.236 -0.2896 -0.0373 -0.1832
27504W        W45028  13.499   9.340  10.378  0.3523  0.3411 -0.1936
27505W        W45029   1.185   6.872  11.427  0.0091 -0.0805 -0.0738
27506W        W45030   3.409  14.430   0.789  0.0376  0.1067 -0.0033
27507W        W45031   7.148   6.040   2.699  0.2349 -0.0270  0.0591
27508W        W45032   8.011   2.918  15.651 -0.1598  0.0126 -0.3844
27509W        W45033  16.499  10.033  11.441 -0.2464  0.1124  0.2765
27510W        W45034  15.497  15.760   0.468  0.0374 -0.0813 -0.2860
27511W        W45035  14.079   6.070  14.774 -0.0760 -0.0930 -0.0169
27512W        W45036   5.401  18.210  13.715  0.0005  0.0754  0.0191
27513W        W45037  14.972   4.758  12.453 -0.0700 -0.0979 -0.0118
27514W        W45038  11.806   2.711   4.587  0.1336  0.1034  0.0007
27515W        W45039   0.402   1.162  12.231 -0.3423 -0.1046 -0.3376
27516W        W45040   6.892  13.300  13.424 -0.0077 -0.1747 -0.3326
27517W        W45041  10.138  13.425   4.964  0.3029  0.1044 -0.1796
27518W        W45042  10.899  18.352   4.553 -0.1632 -0.0715 -0.2121
27519W        W45043  18.353   0.659  13.379 -0.1036  0.1425 -0.0564
27520W        W45044   6.373  15.766  10.263 -0.1306 -0.3276 -0.0166
27521W        W45045  13.743  15.183  15.597 -0.0383 -0.2177 -0.0264
27522W        W45046   6.967  11.780  12.584 -0.2699  0.0791  0.3089
27523W        W45047  17.656   9.782  12.255 -0.0201  0.0586  0.0360
27524W        W45048   5.526   0.040  12.796  0.0797 -0.1325  0.4737
27525W        W45049  12.162  13.400  12.096 -0.1710  0.1210  0.0021
27526W        W45050  11.500  14.419   5.523  0.0890  0.1430  0.0081
27527W        W45051  15.119   5.740  11.553 -0.0225 -0.0776  0.0417
27528W        W45052  14.954   2.037  12.900  0.0303  0.0776  0.1311
27529W        W45053  18.216   6.691  11.895  0.0201  0.0452  0.1777
27530W        W45054  15.312  10.414   6.087  0.3612  0.3012  0.0727
27531W        W45055   2.389   9.457  15.178  0.2034  0.1270 -0.1638
27532W        W45056  13.427   7.430   4.842 -0.2216 -0.0769 -0.0101
27533W        W45057   9.448   2.446   2.511  0.3347  0.0410  0.0423
27534W        W45058  17.067   3.794   0.724 -0.0251  0.4895  0.0945
27535W        W45059   6.723   5.035   9.822  0.0453 -0.3246 -0.4141
27536W        W45060   6.389   6.105   1.703 -0.1653  0.0423 -0.3349
27537W        W45061  12.769  18.157  11.667 -0.1401 -0.2384  0.0560
27538W        W45062   1.039  17.482  12.256 -0.0993  0.0021  0.0243
27539W        W45063  16.647   4.359   3.841  0.0227 -0.0781 -0.2851
27540W        W45064  10.021  14.358   4.806  0.0150  0.3548 -0.0984
27541W        W45065  11.339  14.325  15.655  0.2893 -0.4471  0.1149
27542W        W45066   2.060  14.259   4.505 -0.1046 -0.2851  0.2076
27543W        W45067  15.144   1.527   1.681  0.1866  0.1579 -0.0882
27544W        W45068  14.370  18.301  10.945  0.1851 -0.3473 -0.0777
27545W        W45069  11.433  10.161  11.349 -0.3138  0.3133  0.1620
27546W        W45070  10.499   1.654   2.283 -0.3396 -0.2357  0.0414
27547W        W45071   4.714   2.991   1.877 -0.0508  0.2082  0.5099
27548W        W45072  17.273   7.936   4.798  0.1416 -0.0295 -0.1628
27549W        W45073   8.455   6.994  11.536 -0.3709 -0.3672  0.0004
27550W        W45074  17.227  11.832  13.688 -0.3684  0.3190 -0.5348
27551W        W45075  11.354  13.426   0.702 -0.4045 -0.3185 -0.1096
27552W        W45076   5.236   0.906  14.132  0.0801 -0.0036  0.3357
27553W        W45077  15.991   7.364   3.775 -0.3574 -0.0618  0.0658
27554W        W45078   8.447   9.678  14.825  0.0789 -0.0292 -0.1675
27555W        W45079   8.761  10.545  15.047 -0.0063  0.1100  0.5099
27556W        W45080  15.162   8.188  13.105 -0.2121 -0.1383  0.0695
27557W        W45081   8.200  16.502  12.700 -0.1971 -0.4765  0.1486
27558W        W45082   8.912  17.303  14.947  0.5986  0.5060 -0.0680
27559W        W45083  16.310   2.970   3.976 -0.2544  0.2322 -0.0659
27560W        W45084   8.028   3.812   1.180 -0.0778  0.0236 -0.0713
27561W        W45085  10.662   4.836  12.186 -0.1334 -0.2012 -0.0053
27562W        W45086  15.220  15.845   1.015  0.0457  0.0993  0.0159
27563W        W45087   6.888  13.136  13.875  0.4213 -0.0391 -0.0127
27564W        W45088  11.956  11.450  11.899 -0.0243 -0.1605 -0.2607
27565W        W45089  12.772   0.170   5.577  0.1344  0.1141 -0.3532
27566W        W45090   9.591  13.233  15.034 -0.2112 -0.0432 -0.2029
27567W        W45091  15.021   9.492  15.430  0.0627  0.2509 -0.0729
27568W        W45092  15.677  17.094   4.430 -0.4591  0.1622  0.2849
27569W        W45093  13.192   9.605  14.997  0.3367 -0.0028 -0.0330
27570W        W45094   2.933   9.562  13.736 -0.5574 -0.0479 -0.3736
27571W        W45095   9.342  13.359  11.029 -0.0780 -0.0739 -0.2122
27572W        W45096   9.920  12.026  13.283 -0.1722 -0.0492 -0.1647
27573W        W45097  18.232  11.668  13.915 -0.1206  0.1630  0.0834
27574W        W45098  14.813  10.735   0.970 -0.1276 -0.1968 -0.1011
27575W        W45099   0.767  17.967   9.871  0.4329  0.0330  0.0138
27576W        W45100  16.389  14.100   1.981  0.0833 -0.4001  0.2378
27577W        W45101  14.510   7.052   1.029  0.1879 -0.1375  0.2480
27578W        W45102  11.777   9.790   4.149  0.2579  0.0490  0.3325
27579W        W45103  12.208  15.289  13.265 -0.1304 -0.1940  0.5659
27580W        W45104   8.933  18.018  12.920  0.0722 -0.0789  0.0116
27581W        W45105   2.637  16.757  11.694 -0.0128 -0.1029  0.0136
27582W        W45106  14.262   8.439   1.147  0.0042 -0.0646 -0.2125
27583W        W45107   2.930   5.527   2.139  0.1091 -0.0171  0.0782
27584W        W45108   2.828   3.240  12.661 -0.3183  0.3231 -0.0715
27585W        W45109  13.260   6.593  12.968 -0.1293 -0.0288  0.0158
27586W        W45110   2.681   7.434  12.235  0.0939 -0.1439 -0.0376
27587W        W45111   1.178   8.036  14.998  0.1254 -0.0093  0.1179
27588W        W45112   8.207  16.472   5.159 -0.0093  0.2486  0.1878
27589W        W45113  16.016  11.877   2.945  0.0078  0.3153 -0.3690
27590W        W45114   9.796   4.859  10.896  0.1109 -0.0899  0.0797
27591W        W45115   4.932  15.751  14.181 -0.0841 -0.2138 -0.2102
27592W        W45116  11.735  17.060  11.578  0.1292 -0.1040  0.0225
27593W        W45117   7.304   4.609   3.464 -0.3217  0.2816 -0.0283
27594W        W45118  11.439  12.638  15.028 -0.1581  0.2943  0.0907
27595W        W45119   8.808   7.901  11.191  0.3351  0.1114  0.1405
27596W        W45120   7.978   5.381  12.492 -0.0734 -0.3663 -0.1614
27597W        W45121  14.100  13.839  14.096 -0.2546 -0.0378 -0.1572
27598W        W45122  16.628   0.407   4.605  0.0662  0.1161  0.1980
27599W        W45123   7.043   1.581   0.133  0.3676 -0.2276  0.1034
27600W        W45124  18.050   2.151  10.917  0.0673 -0.0545  0.1374
27601W        W45125  15.746  16.510  10.489 -0.1596 -0.2173 -0.0173
27602W        W45126  13.762   2.726  11.965 -0.1510  0.0671  0.0260
27603W        W45127  10.460   7.171   0.766 -0.2305 -0.0224 -0.3774
27604W        W45128  12.042   9.954   2.276  0.1233 -0.0968  0.1070
27605W        W45129  18.398  13.839  15.708 -0.2745  0.2135  0.0554
27606W        W45130   3.332   9.292   4.737 -0.0984  0.3240  0.0699
27607W        W45131   0.543  13.190   2.040  0.0592  0.1478 -0.0849
27608W        W45132  14.464  16.260   0.572 -0.1854 -0.1743 -0.0134
27609W        W45133   3.976  12.649   3.582 -0.1077 -0.0934 -0.1954
27610W        W45134  13.533  14.836   0.933 -0.2724 -0.2408  0.2902
27611W        W45135  15.875   0.827   0.187 -0.1111  0.0664 -0.4084
27612W        W45136   4.521  13.262   1.891 -0.0520  0.0416  0.0215
27613W        W45137  12.048   0.297  15.580  0.1125  0.1413 -0.0064
27614W        W45138   4.161  10.849   3.680  0.4078  0.1274  0.2215
27615W        W45139  14.840   9.188  14.262  0.3079 -0.1532  0.1390
27616W        W45140  15.114  17.794   0.671  0.1189  0.2375 -0.0706
27617W        W45141   0.345  11.508  14.544 -0.1714  0.1174  0.1791
27618W        W45142   8.962   5.461   3.785 -0.0796  0.0024 -0.2663
27619W        W45143  14.938   1.886  14.832 -0.0556 -0.0771 -0.2393
27620W        W45144  10.611   4.985  11.697  0.2316  0.0908  0.0761
27621W        W45145  10.186  16.156   5.320  0.2752  0.2506 -0.1049
27622W        W45146  12.616   2.049   4.312 -0.2640  0.1905 -0.1039
27623W        W45147  11.818   4.992  11.468 -0.1923  0.0079  0.1554
27624W        W45148  14.296  17.950   0.825  0.0011 -0.2264 -0.1460
27625W        W45149   9.415  14.100  15.805 -0.1428 -0.1480 -0.0263
27626W        W45150   1.950   2.092   2.834  0.2236  0.0885 -0.1371
27627W        W45151  17.907   3.671   0.448 -0.1030  0.1814  0.2126
27628W        W45152   8.003  17.971   5.437  0.1046  0.2190  0.0343
27629W        W45153   5.232   4.060   3.127 -0.0545 -0.0326  0.1367
27630W        W45154  14.218  15.262  13.935 -0.1715 -0.1786 -0.3192
27631W        W45155  17.994   9.425  12.433 -0.0918 -0.1313  0.1610
27632W        W45156   3.682   7.736  12.552  0.2741 -0.1957  0.0523
27633W        W45157  17.522  14.030   3.736 -0.1190 -0.0689 -0.1166
27634W        W45158  14.943  11.459   0.492 -0.0340 -0.1727 -0.5135
27635W        W45159   3.440  18.277  11.567 -0.2603 -0.0720  0.0869
27636W        W45160   8.909   3.786   0.353 -0.0880 -0.2008 -0.1088
27637W        W45161  18.258  10.634   4.080  0.1550  0.1345 -0.1890
27638W        W45162  18.218   5.475  11.338 -0.1741 -0.0413 -0.0092
27639W        W45163   3.956  17.706   5.474  0.0486 -0.1443 -0.0758
27640W        W45164   2.910  16.770   9.543  0.1140 -0.0719 -0.0039
27641W        W45165  16.603  12.612  12.793  0.3733 -0.4112  0.2136
27642W        W45166   1.835  13.017   3.400 -0.0520  0.1026  0.3179
27643W        W45167   9.082  13.822   2.404  0.1854 -0.0275 -0.3690
27644W        W45168  10.099  16.440   0.128  0.0762 -0.1009  0.0870
27645W        W45169   1.319   3.946  11.215  0.0223 -0.0258 -0.2671
27646W        W45170   3.043   0.456  14.164  0.1355 -0.2686 -0.0211
27647W        W45171   1.264   9.921   3.937 -0.4567 -0.1975  0.3750
27648W        W45172   2.165  17.280   9.710  0.2171 -0.0167 -0.2667
27649W        W45173  10.963   8.372  13.133  0.2152  0.0360 -0.1540
27650W        W45174   7.935   2.566   5.350  0.1968 -0.1193 -0.0573
27651W        W45175   9.525  10.920   3.183  0.1167 -0.0294 -0.0088
27652W        W45176   8.501   8.417   0.927  0.2351 -0.1393 -0.0303
27653W        W45177   8.619   2.115   4.257  0.2357  0.2107 -0.1778
27654W        W45178  14.223  12.331  14.761  0.2130 -0.0625 -0.3175
27655W        W45179  17.435  13.003   0.846 -0.0509 -0.1454 -0.2916
27656W        W45180   6.497  16.511   4.315  0.0247  0.0957  0.2417
27657W        W45181   5.852   9.879   4.489  0.1968 -0.0968  0.1086
27658W        W45182  11.157   8.952   2.279  0.0049  0.0522 -0.4410
27659W        W45183  12.666  14.518   0.011  0.0062  0.4518 -0.2851
27660W        W45184   5.253   3.752  11.737  0.4233  0.0468  0.2320
27661W        W45185   3.992  12.301   4.156  0.1497  0.3046  0.1256
27662W        W45186   2.227   9.117  13.706  0.2262 -0.1896  0.0595
27663W        W45187  14.414  12.564  14.244 -0.0144 -0.0229 -0.0760
27664W        W45188   9.183  16.190  14.467  0.2866 -0.0216 -0.0927
27665W        W45189   3.718  14.700  13.365  0.0407 -0.0584 -0.0600
27666W        W45190  14.518   3.291  15.147  0.0927 -0.0755  0.2714
27667W        W45191   6.645   5.294  11.809  0.0924  0.3775 -0.2381
27668W        W45192   3.249   0.463  11.182 -0.2589  0.1551  0.3669
27669W        W45193   9.969   4.551  12.755  0.2856 -0.2317  0.1541
27670W        W45194   2.642   9.435   2.163 -0.0502 -0.0263 -0.3348
27671W        W45195  11.305   5.629   0.498 -0.0889  0.1784 -0.1029
27672W        W45196   7.786  10.445  14.204 -0.4243  0.2738  0.0348
27673W        W45197   3.567   8.278   4.689  0.2512 -0.3706 -0.1013
27674W        W45198  12.330  10.442   1.459 -0.0683 -0.1481  0.1356
27675W        W45199   0.592   9.600  15.720  0.1512 -0.1065 -0.1667
27676W        W45200  14.074  14.634  14.661  0.2864 -0.0208  0.2145
27677W        W45201  14.492   3.493  12.221  0.1214  0.0296  0.1765
27678W        W45202   1.415  11.219   1.229 -0.3641  0.1171 -0.0919
27679W        W45203   5.828  15.739   2.135 -0.0671  0.0577 -0.1041
27680W        W45204  14.154   2.594   4.788  0.0367  0.1434  0.0285
27681W        W45205   4.635  10.960  10.744  0.0394  0.3230 -0.1524
27682W        W45206   3.085  13.857   3.410 -0.0767  0.0625 -0.0560
27683W        W45207  13.608  15.356   3.455  0.2356  0.1214 -0.0193
27684W        W45208   5.961  17.337   4.844  0.1654  0.0044 -0.1267
27685W        W45209  16.946  17.692   4.739  0.2289  0.2404  0.0659
27686W        W45210   1.978   6.382  15.336 -0.0370 -0.1967  0.0922
27687W        W45211  17.045  12.843  14.037  0.0165 -0.1040 -0.2730
27688W        W45212   3.180   2.235   0.176 -0.0733  0.0358  0.0626
27689W        W45213   2.962  11.817   2.586  0.1611 -0.0400  0.2427
27690W        W45214   3.011  16.535  12.727 -0.1770 -0.3425 -0.1835
27691W        W45215   3.014   9.210   0.588 -0.0172  0.1311 -0.0433
27692W        W45216   8.780  11.032  12.207  0.0895  0.1029  0.0532
27693W        W45217  15.115  13.929   3.061 -0.1632  0.1978  0.0157
27694W        W45218  15.274   1.801  12.541 -0.3218 -0.1358  0.1769
27695W        W45219   2.882   8.789  11.959  0.2680 -0.0927 -0.1535
27696W        W45220   1.569  16.166  14.333  0.0269 -0.2141  0.2507
27697W        W45221  16.112   3.115   3.487  0.2711  0.2452 -0.3358
27698W        W45222  16.972  12.683  13.572  0.0337 -0.3562 -0.0920
27699W        W45223   7.746   4.379   3.530 -0.3588  0.0038 -0.2994
27700W        W45224   0.471   6.125  15.738  0.0299 -0.1201  0.0970
27701W        W45225   9.261  16.631   1.142 -0.6103  0.1224 -0.0834
27702W        W45226   1.863   2.267  11.094 -0.0995 -0.0000  0.0034
27703W        W45227   8.949   3.414   3.121 -0.0629 -0.0547  0.0669
27704W        W45228  12.418   9.170   4.602  0.1161  0.0236 -0.2006
27705W        W45229   3.715   3.775  10.885 -0.2390  0.0185  0.3446
27706W        W45230  11.242   5.700   1.050 -0.2798 -0.2450  0.0051
27707W        W45231  13.406  12.261   3.037  0.0984  0.1525 -0.2762
27708W        W45232   6.653   0.475  10.970  0.0278  0.1230  0.0725
27709W        W45233   8.218  10.240  15.710  0.0587  0.2382 -0.3571
27710W        W45234  10.862  17.139   3.722 -0.1098  0.3377  0.1559
27711W        W45235  17.676   7.393  12.518 -0.0928 -0.0181 -0.2762
27712W        W45236  16.361   6.969   2.787 -0.0786 -0.0281 -0.1506
27713W        W45237   1.297   4.467  12.111 -0.1307  0.2086 -0.2118
27714W        W45238  17.612   5.974   4.728 -0.0576  0.1310 -0.1519
27715W        W45239   7.923   8.902   3.691  0.0080 -0.2333 -0.0708
27716W        W45240  14.583   6.718   3.102 -0.0081 -0.1156  0.2679
27717W        W45241  16.559  16.573  14.775 -0.1284  0.0550 -0.0252
27718W        W45242   8.828  17.093  12.988 -0.0672  0.0697 -0.3076
27719W        W45243   1.818   5.595  12.769  0.2216  0.2081 -0.0972
27720W        W45244   6.271  11.716   2.679 -0.3511  0.0580  0.0825
27721W        W45245   0.508  17.222  14.049 -0.0379  0.0580 -0.1393
27722W        W45246   0.799  16.648  13.496  0.0529 -0.1392  0.3320
27723W        W45247  13.311   6.301   0.540  0.0538  0.1840 -0.1240
27724W        W45248  12.244  11.978   5.448 -0.1564 -0.0192 -0.0239
27725W        W45249   5.132  14.628  15.821 -0.1606  0.1028  0.0383
27726W        W45250   9.148   1.804  14.238 -0.2259 -0.6072 -0.0570
27727W        W45251  14.715  12.284   2.931 -0.1854 -0.0814 -0.1732
27728W        W45252  12.944  10.995  12.948 -0.2727 -0.3141 -0.0746
27729W        W45253   3.940  11.731  12.131  0.2192 -0.1621 -0.1447
27730W        W45254   3.438  10.206  15.485 -0.0971 -0.0530 -0.1297
27731W        W45255  17.490   0.966   0.513 -0.1054 -0.0949  0.2302
27732W        W45256   9.364  15.624  10.757 -0.0681 -0.2292 -0.1449
27733W        W45257   5.754  17.330   0.185  0.1463 -0.0206  0.1084
27734W        W45258  12.974   0.073   2.610  0.3770 -0.0824 -0.1151
27735W        W45259  11.619   1.757   0.694 -0.1072  0.0004  0.2499
27736W        W45260   1.664  15.608   2.255  0.0011 -0.1236  0.1890
27737W        W45261   5.812   4.743   2.688 -0.1023 -0.1057 -0.1751
27738W        W45262   6.115   0.886   0.933  0.2049  0.1569  0.0603
27739W        W45263   1.188   6.573   2.779 -0.4186 -0.0763  0.0466
27740W        W45264  11.277   7.405   0.227  0.1136  0.1034 -0.1884
27741W        W45265  10.079  12.961  13.553 -0.1040 -0.0794 -0.1679
27742W        W45266  10.594   7.716  13.138 -0.0387  0.1785  0.1476
27743W        W45267  16.795   0.381   1.895  0.0808  0.2272 -0.1751
27744W        W45268  13.095  10.728  15.135 -0.3050  0.3954 -0.0074
27745W        W45269  10.906  16.398   0.668 -0.1706  0.1540 -0.0106
27746W        W45270  10.416   9.797  13.892  0.2224  0.0805  0.2787
27747W        W45271  10.427   7.627   2.122 -0.2711 -0.2235  0.3771
27748W        W45272   9.575  17.293  15.764 -0.0775  0.0900  0.1552
27749W        W45273   9.553   2.391  10.193  0.0174 -0.2237 -0.0005
27750W        W45274  13.356  12.305  11.926 -0.3745  0.0520 -0.2370
27751W        W45275  15.864   2.071  11.279  0.0074 -0.0402  0.1539
27752W        W45276  18.109  11.922   3.651  0.0925  0.0487 -0.0237
27753W        W45277   2.942   8.223  15.295  0.1461  0.2091  0.1488
27754W        W45278   1.388   8.959   2.130  0.1955  0.2130  0.1461
27755W        W45279   7.356  16.389   2.335  0.2561 -0.0273  0.1175
27756W        W45280   1.090   5.219   1.847 -0.2368  0.1743 -0.1023
27757W        W45281  11.451  13.854  14.114 -0.0641 -0.2628  0.2123
27758W        W45282   5.551   1.984   0.817  0.3030  0.0725  0.1603
27759W        W45283  10.842  18.007  12.581  0.1284 -0.5029 -0.1837
27760W        W45284   7.235   1.060  14.363 -0.1653  0.1799 -0.3249
27761W        W45285   9.282   6.515   3.940 -0.1657  0.0320 -0.1097
27762W        W45286  16.767  17.671  12.619 -0.0897  0.1569 -0.2135
27763W        W45287   6.451   7.788   4.719 -0.0046  0.0648  0.1336
27764W        W45288   0.314   7.427  14.460  0.2764  0.1770 -0.0461
27765W        W45289  13.864   8.025   0.851  0.1685  0.4086 -0.0228
27766W        W45290   2.052   0.082  12.842  0.2134  0.1210  0.1545
27767W        W45291  14.920   1.769   2.176 -0.1974  0.1154  0.3577
27768W        W45292   6.523   9.790  13.465 -0.0463  0.0265 -0.0289
27769W        W45293   6.292   9.964  13.842  0.0090 -0.2907 -0.1291
27770W        W45294   7.288  15.013   0.117 -0.2018  0.1124  0.1361
27771W        W45295  17.146   0.824  13.283  0.0780 -0.2711  0.2115
27772W        W45296  13.668  17.677  13.333  0.0526 -0.1244  0.0893
27773W        W45297   8.145   9.616   0.453  0.0231  0.2271  0.3775
27774W        W45298   9.559   6.748   3.625 -0.1031 -0.0437  0.0671
27775W        W45299   5.841  12.745   0.812 -0.0581 -0.1499  0.0272
27776W        W45300  12.499  14.768   4.219  0.2479 -0.2683 -0.2577
27777W        W45301  15.158   1.872  11.538 -0.0071 -0.3519 -0.1748
27778W        W45302  12.843  14.255   0.965 -0.0787 -0.0065  0.0899
27779W        W45303  16.064  10.434   2.687  0.1207  0.0788  0.0856
27780W        W45304   0.950   5.465   3.001  0.3236  0.3972  0.0814
27781W        W45305   5.114   7.704  12.912 -0.2541  0.3175 -0.2288
27782W        W45306  11.242  16.046  13.116  0.0249 -0.0540 -0.2052
27783W        W45307   2.833   1.802  13.032  0.2845  0.1094 -0.1914
27784W        W45308  12.377   7.216   4.281  0.0173 -0.3281  0.0092
27785W        W45309   0.983  10.561   0.139  0.1985  0.1647  0.1110
27786W        W45310  13.686   2.327  13.761  0.1074 -0.0067 -0.1127
27787W        W45311  12.088  17.928   1.357  0.1653  0.0934 -0.0973
27788W        W45312   3.016  13.710  14.362  0.0794  0.0655 -0.2758
27789W        W45313  14.486  11.413  13.681  0.1587  0.0869  0.1113
27790W        W45314   5.745   8.525   3.831  0.0604 -0.1928  0.0745
27791W        W45315   3.211   8.694   0.677 -0.1390  0.1276 -0.2528
27792W        W45316   7.562  16.940   2.514  0.1327 -0.2097  0.1610
27793W        W45317  15.402  11.629   4.509  0.0279  0.0280  0.1052
27794W        W45318   9.063   9.645   4.077 -0.0305  0.0937 -0.5628
27795W        W45319  10.360   7.288   1.268  0.0149 -0.0190 -0.0194
27796W        W45320   1.677   8.585   3.786 -0.1979 -0.1557  0.0951
27797W        W45321  11.545   1.311   5.709  0.2035 -0.0368 -0.0025
27798W        W45322  15.815   6.749  15.688 -0.2281  0.1467 -0.2483
27799W        W45323   6.544  13.684  15.120  0.1316 -0.1538  0.3443
27800W        W45324  10.455  12.306   0.511 -0.0650 -0.1597 -0.0473
27801W        W45325  12.258  12.387   4.731 -0.1803  0.1388 -0.0234
27802W        W45326  10.059  14.351  14.455 -0.0961  0.0397 -0.2879
27803W        W45327   2.002   7.606  13.846 -0.0233  0.2048  0.3817
27804W        W45328  14.640  12.459  12.551  0.2819 -0.0173 -0.1909
27805W        W45329  18.388  14.374  13.779  0.2022  0.5275  0.2719
27806W        W45330  16.039  13.549   3.940  0.1638 -0.0148  0.3533
27807W        W45331   4.102  12.021  13.542 -0.0208 -0.0363 -0.2593
27808W        W45332   8.642  18.409  13.986 -0.1679 -0.1310 -0.1239
27809W        W45333   9.664   1.603   2.379 -0.6092 -0.1015 -0.0597
27810W        W45334  11.546  17.565   0.186  0.0212  0.0433  0.5548
27811W        W45335   1.048   5.117  14.111  0.0854 -0.4858 -0.0698
27812W        W45336   2.356   1.900  11.848 -0.0337 -0.0681  0.1737
27813W        W45337  16.511   4.145  15.127  0.1606 -0.1810 -0.1838
27814W        W45338   8.262   4.740  13.934  0.0186 -0.1650 -0.1181
27815W        W45339   8.107   2.260  12.108  0.0943 -0.0725 -0.2421
27816W        W45340   9.649   2.376  13.274  0.2796 -0.0009  0.0282
27817W        W45341  11.960   9.126   1.933  0.0113  0.1688  0.0300
27818W        W45342   4.126  11.367  15.645 -0.3675  0.1816 -0.1913
27819W        W45343  17.320  17.827  15.214 -0.0855 -0.1294  0.1083
27820W        W45344   7.855  12.322   0.509 -0.1938  0.0989 -0.0633
27821W        W45345   3.990   8.981   0.011  0.1465  0.1585  0.1944
27822W        W45346   3.312  15.206   1.744  0.0711 -0.0790 -0.0299
27823W        W45347  17.985  14.195   1.426  0.0553  0.5338  0.0367
27824W        W45348  10.261  11.918  12.270  0.0995 -0.0752 -0.1048
27825W        W45349   5.933  12.017   1.560 -0.2580  0.2445  0.1121
27826W        W45350  13.660  14.376   4.233  0.0684  0.3304 -0.1206
27827W        W45351   8.544   6.570  11.915 -0.0520 -0.2449 -0.0407
27828W        W45352  14.440   9.906   3.815 -0.1167  0.0449 -0.0560
27829W        W45353  14.068   2.758  11.147 -0.2336  0.0414 -0.0360
27830W        W45354   1.362  14.986   2.443  0.1206  0.1985  0.1228
27831W        W45355  14.087   4.045  12.273 -0.0908 -0.0133 -0.3436
27832W        W45356   3.071   5.760  12.750  0.0714  0.1891 -0.0180
27833W        W45357  14.442  13.489   2.198  0.0527 -0.1400  0.1280
27834W        W45358   5.568  17.149   2.487 -0.0413 -0.1901  0.2730
27835W        W45359   2.756   3.129   1.780  0.0197 -0.1509  0.2566
27836W        W45360   2.163  16.761   0.356 -0.0731  0.2475 -0.0112
27837W        W45361  18.041  16.438   1.543  0.1859 -0.0027  0.0585
27838W        W45362  13.046  12.735  13.211 -0.2997  0.3743  0.1731
27839W        W45363   0.155   1.350  11.266 -0.1927 -0.1305  0.1247
27840W        W45364   8.868   0.739  13.571 -0.0133  0.2396 -0.2492
27841W        W45365   7.246  13.173  14.930 -0.0802  0.0731  0.1438
27842W        W45366  10.508   3.991  14.283 -0.0113 -0.1615  0.0658
27843W        W45367   7.743  15.378  15.160  0.0236 -0.2051  0.0747
27844W        W45368   8.255   3.151   1.762 -0.0207 -0.0674  0.1177
27845W        W45369  10.550   4.603  14.864  0.1015  0.1459 -0.3855
27846W        W45370   8.968  16.695   2.763 -0.0462 -0.2817  0.0561
27847W        W45371  13.414   2.049   1.030  0.0478 -0.0454 -0.1105
27848W        W45372  11.131   7.197  14.384  0.1105 -0.1089 -0.4327
27849W        W45373  16.221  11.250  14.534  0.2890  0.0133  0.0664
27850W        W45374  15.989   9.452  14.084 -0.2090  0.4138 -0.1215
27851W        W45375   0.730   0.039  12.187 -0.0212  0.2702 -0.0709
27852W        W45376   0.105  16.793  14.861 -0.1407 -0.0169 -0.2166
27853W        W45377  18.383  12.334  11.337 -0.2657 -0.0459 -0.2822
27854W        W45378  14.353   8.118  11.257 -0.0334  0.0048  0.0314
27855W        W45379   7.744  11.664  14.219 -0.1432  0.0293 -0.0675
27856W        W45380  11.664   5.985  15.562 -0.2211 -0.1498 -0.1328
27857W        W45381  12.259  12.948  11.920  0.3964 -0.0570  0.1372
27858W        W45382  16.959  15.429   2.515  0.0681 -0.0509  0.1827
27859W        W45383  12.957   8.084  11.461  0.0069 -0.1629  0.3315
27860W        W45384  14.912   8.513  11.938  0.0773 -0.2149  0.1547
27861W        W45385   6.153  17.852  13.133 -0.3722 -0.2154  0.0387
27862W        W45386   2.716  13.943  13.940  0.2399 -0.0122 -0.0927
27863W        W45387   6.938   8.102   2.675  0.0239  0.0157  0.2641
27864W        W45388  12.964   3.548  13.977 -0.1466  0.4421  0.0955
27865W        W45389  17.884   7.683  13.573 -0.1448  0.2253  0.2562
27866W        W45390   8.812   7.650  13.943 -0.1771 -0.2780  0.0814
27867W        W45391  13.961   6.478  11.519 -0.3198 -0.3574  0.0148
27868W        W45392   4.042  10.414   2.394 -0.2512 -0.0705  0.1699
27869W        W45393  12.998   1.621  12.449 -0.0400 -0.0056 -0.0401
27870W        W45394  11.428   4.118   0.283  0.0073  0.0527 -0.0199
27871W        W45395   4.600   7.768  11.335 -0.0067  0.0053  0.0915
27872W        W45396  17.920  10.836  12.606 -0.2602 -0.1004 -0.3109
27873W        W45397   7.602  18.192   0.615  0.0647 -0.2176  0.1022
27874W        W45398  15.088   7.167  11.288 -0.0574 -0.2659  0.0655
27875W        W45399  15.230  12.243   1.657 -0.3577 -0.1952  0.1342
27876W        W45400  17.681   1.548   1.215 -0.4192  0.1516 -0.0180
27877W        W45401   9.616   6.477  11.950 -0.1941  0.2856  0.1901
27878W        W45402  14.523   9.668  15.796  0.1896 -0.2383 -0.0669
27879W        W45403   1.876  10.193  15.829  0.0871 -0.0710 -0.2587
27880W        W45404   0.386  17.225  14.557 -0.0795  0.1824 -0.1111
27881W        W45405  18.063   1.743  13.569  0.0672 -0.1808 -0.1853
27882W        W45406   9.998  13.588   3.101 -0.0208  0.1722 -0.3527
27883W        W45407   7.686  12.509  12.963 -0.4627 -0.0010  0.3113
27884W        W45408  15.096   9.345  11.495 -0.0712 -0.0738 -0.0301
27885W        W45409   2.511  17.194   0.978  0.1198 -0.0908 -0.0098
27886W        W45410  17.921   5.884  11.042  0.1349  0.3587 -0.1419
27887W        W45411   9.121   2.063   2.166  0.0045  0.1898  0.0269
27888W        W45412  10.085   1.155   2.656  0.1371 -0.0706 -0.2275
27889W        W45413   4.223  13.334   4.121  0.2820 -0.0019 -0.0052
27890W        W45414   0.073   9.474  12.413 -0.1378  0.1790  0.2374
27891W        W45415   5.335   6.314   0.420 -0.0606 -0.1154 -0.0466
27892W        W45416  13.535   7.358  12.522 -0.3979 -0.3801  0.0562
27893W        W45417  14.048  17.000   2.652 -0.0167 -0.0580  0.1165
27894W        W45418   6.634  17.145   5.610  0.2316  0.0114  0.1730
27895W        W45419  12.367   9.347   4.120  0.0594  0.2477 -0.0222
27896W        W45420  14.948   3.198   1.085 -0.2538 -0.0404 -0.0311
27897W        W45421   4.255   1.838   2.567  0.3367 -0.1547 -0.0432
27898W        W45422   2.250  12.484  13.995  0.1629  0.0813  0.1570
27899W        W45423  16.325  11.137   5.156 -0.0326  0.3138 -0.2697
27900W        W45424  13.767  17.634   3.842 -0.1782  0.0459 -0.2195
27901W        W45425   7.282  11.131  12.997 -0.1407  0.2339 -0.0778
27902W        W45426   0.444   7.593   1.886  0.2353 -0.2738  0.2822
27903W        W45427  14.945   1.674   4.972  0.0493  0.0869  0.3981
27904W        W45428  13.371   4.510  13.760  0.4335 -0.0756  0.0837
27905W        W45429  16.219   3.913  11.887 -0.0090  0.0688  0.0041
27906W        W45430  10.472   4.961   1.698  0.0700  0.1133 -0.0473
27907W        W45431   1.248  15.562   0.841  0.1422 -0.4483 -0.2146
27908W        W45432  16.564   2.629   1.445 -0.2285 -0.1318  0.1000
27909W        W45433   6.423   6.988  14.916 -0.2896 -0.0165 -0.2112
27910W        W45434   0.555   3.303  14.206  0.2547 -0.1244 -0.2243
27911W        W45435  16.297   7.674  14.037  0.0566  0.0746 -0.0981
27912W        W45436   4.498   4.712  11.850  0.0985 -0.2027 -0.0867
27913W        W45437  10.653   2.278  11.973  0.1735  0.0426 -0.1225
27914W        W45438   5.293  12.137   3.487 -0.2699 -0.0626  0.0197
27915W        W45439   7.167  14.156  11.624 -0.0825 -0.1133  0.0698
27916W        W45440   6.276   5.864   4.395  0.0524  0.1203  0.0334
27917W        W45441  12.946   0.252  11.437  0.0030  0.0203 -0.1665
27918W        W45442  10.981   1.957  12.155  0.1577  0.2024  0.1525
27919W        W45443  14.532   2.778  15.207  0.2093  0.0460  0.2752
27920W        W45444   6.488  13.124  12.421  0.0030  0.0452  0.2889
27921W        W45445  13.163   1.777   2.187 -0.2452 -0.1168  0.0750
27922W        W45446  13.133   5.853  15.564 -0.1320  0.0997 -0.1845
27923W        W45447   2.214   1.524   3.945 -0.0825 -0.1343 -0.1468
27924W        W45448   6.706  18.381   3.308  0.0522 -0.0619  0.0274
27925W        W45449   0.264   8.300  14.083  0.2893  0.2059  0.2855
27926W        W45450  15.705  16.799  14.258  0.3652 -0.2772  0.0435
27927W        W45451   3.896  13.042   0.949 -0.2639 -0.0152 -0.1558
27928W        W45452  16.463  10.419   1.371 -0.1148  0.1630  0.1356
27929W        W45453   1.652  15.220  10.762  0.1541  0.0595 -0.0224
27930W        W45454  13.809   6.865  14.288 -0.1254  0.4117 -0.0664
27931W        W45455   9.600   6.853  11.023 -0.1565 -0.1094  0.1260
27932W        W45456  11.712   5.804   2.947  0.3494  0.1368 -0.1001
27933W        W45457  13.780   8.064   4.474 -0.1717  0.0727 -0.0514
27934W        W45458   6.232  15.197   1.236  0.3854  0.0472  0.0231
27935W        W45459  10.838  14.982  10.852 -0.3371  0.1680  0.2580
27936W        W45460   8.642   9.807  13.576 -0.0650 -0.0915 -0.2697
27937W        W45461  13.872   7.734  13.894  0.0766 -0.0453  0.0043
27938W        W45462   6.341   7.831  14.685  0.0356 -0.0869  0.0983
27939W        W45463   5.701   2.620   4.069 -0.0463  0.0507  0.1083
27940W        W45464  17.121   2.073   3.565  0.2234  0.1627 -0.2979
27941W        W45465   3.041   7.817  10.408 -0.5105  0.0222  0.1180
27942W        W45466  12.729   1.795  15.664 -0.0976 -0.2134 -0.0796
27943W        W45467  11.567   5.048  11.937  0.1026  0.1537  0.1315
27944W        W45468   7.872  13.587  14.176 -0.1126 -0.1215  0.0456
27945W        W45469  10.358  12.627   5.313 -0.3261  0.2450  0.1229
27946W        W45470  17.696   6.310   4.406  0.1603 -0.2209 -0.3004
27947W        W45471  17.809  17.099  15.611 -0.2839  0.1364 -0.0712
27948W        W45472   7.247   4.562  14.211  0.0308  0.3074  0.2084
27949W        W45473   7.701   3.406  10.873 -0.4329 -0.3034  0.3645
27950W        W45474  17.042  15.768  14.750  0.1133  0.0620  0.2458
27951W        W45475   0.710  16.206  11.541 -0.1681 -0.0575  0.0601
27952W        W45476  17.734   5.041  13.924 -0.0536 -0.0665 -0.0723
27953W        W45477   3.317  14.190   2.771  0.3071  0.0947 -0.0549
27954W        W45478  14.134  15.213   1.399 -0.0034 -0.3782 -0.2146
27955W        W45479  12.829   2.547  15.405 -0.3251 -0.0023  0.0208
27956W        W45480  14.539   5.225  14.724  0.2817  0.0322  0.0860
27957W        W45481   4.270  10.827   5.087  0.0294 -0.2000  0.1740
27958W        W45482   1.307   2.512  15.675 -0.2092  0.0158  0.0564
27959W        W45483  13.568   8.254   1.749 -0.2210  0.0222 -0.3448
27960W        W45484   3.540  16.234  12.804  0.3491 -0.2202 -0.0286
27961W        W45485  12.356   8.768   3.335 -0.0618 -0.0121  0.2512
27962W        W45486  10.002  12.968  15.398  0.0497 -0.3416 -0.2582
27963W        W45487  15.484   7.019  12.539 -0.0568  0.0648 -0.0902
27964W        W45488   7.775  14.887  11.701  0.0437 -0.1064 -0.1715
27965W        W45489  18.376   6.509  14.454  0.0385 -0.0756  0.0463
27966W        W45490  14.185   9.214   2.442 -0.2226  0.0431 -0.2196
27967W        W45491  14.463   5.834  14.994 -0.2238  0.1509  0.2837
27968W        W45492  13.125  11.179   0.663  0.1260 -0.2127  0.0234
27969W        W45493   4.674  10.560  14.808  0.0882  0.1653 -0.0957
27970W        W45494  10.790  12.629  14.666 -0.1460 -0.0035 -0.0765
27971W        W45495  10.705   4.021  11.743  0.0643  0.0052  0.1272
27972W        W45496   5.961  17.880   5.250 -0.1773 -0.2536  0.3560
27973W        W45497   1.797   1.076   3.129  0.3231  0.0905  0.0480
27974W        W45498  10.139  16.565   3.416  0.1444  0.0416  0.2628
27975W        W45499  11.638   0.376   2.730  0.2641  0.0056  0.1870
27976W        W45500  15.833   7.712   2.148  0.4086  0.0917 -0.1685
27977W        W45501  16.837  13.225   2.189  0.2431  0.1406  0.3135
27978W        W45502  17.588  17.825   5.402  0.3055  0.2679 -0.4106
27979W        W45503  16.072   4.454  11.908 -0.0487  0.0909  0.2586
27980W        W45504   6.454  14.179  15.170 -0.1350  0.0911  0.2013
27981W        W45505   5.370   5.789   3.424 -0.0616  0.0584 -0.0856
27982W        W45506   0.202   5.445  12.083 -0.2495  0.0173 -0.2740
27983W        W45507  10.168   9.203   0.480  0.1297 -0.1698  0.2091
27984W        W45508  15.411   7.588   1.675  0.0782 -0.2411 -0.5168
27985W        W45509  12.938   2.515   1.865  0.1224 -0.0398  0.1508
27986W        W45510   2.936  13.752  11.269 -0.1056 -0.1940 -0.0995
27987W        W45511   1.686   9.980  12.941 -0.1535  0.0344 -0.0761
27988W        W45512   4.589   6.639   1.212 -0.2444  0.2320  0.1082
27989W        W45513  10.182  18.266   3.645 -0.2998 -0.0059 -0.3182
27990W        W45514   5.575   5.334   3.458 -0.3326 -0.0722 -0.2699
27991W        W45515   6.274  12.972  14.551  0.1020  0.5645 -0.0522
27992W        W45516   6.142   8.837   0.640 -0.2411 -0.1782 -0.3750
27993W        W45517   1.519   0.241   3.750  0.1413 -0.0820 -0.1458
27994W        W45518  17.503   9.792   1.227 -0.0035  0.0779 -0.1829
27995W        W45519  16.305  14.082   2.556  0.3248  0.0868 -0.0597
27996W        W45520   6.624   1.268   2.652 -0.0252 -0.0386 -0.2983
27997W        W45521   7.120   8.389  12.672  0.1017  0.2234 -0.0520
27998W        W45522   9.144   5.781  15.040 -0.3524  0.0161  0.1214
27999W        W45523   1.750   3.950   0.893 -0.1585  0.0590 -0.2241
28000W        W45524   0.214  17.983  14.265  0.0186 -0.2196  0.0393
28001W        W45525  15.950   7.676   5.872 -0.0445 -0.0090 -0.1528
28002W        W45526   2.625  15.371  13.608  0.3528 -0.1709  0.4807
28003W        W45527   0.279  11.754   4.238 -0.3077  0.0469  0.1893
28004W        W45528  10.767  16.972   4.692  0.1945 -0.2206  0.0649
28005W        W45529   8.699   1.108   2.030 -0.0017 -0.1002  0.1327
28006W        W45530   6.042  13.367   2.684  0.1186  0.0701 -0.1278
28007W        W45531  16.405   9.312  12.209  0.2071  0.3772 -0.0704
28008W        W45532   8.649  10.610  12.447 -0.2474 -0.1146  0.0764
28009W        W45533  14.138   3.729   0.701  0.3846  0.1718  0.0777
28010W        W45534   8.733   2.073  13.812 -0.0694  0.1236  0.1292
28011W        W45535   1.631  15.163  12.667  0.1027  0.1905  0.0612
28012W        W45536   1.255   4.246  13.146 -0.2318  0.0522  0.0528
28013W        W45537  14.490   7.043   2.278  0.0156  0.0882 -0.0960
28014W        W45538   1.663  14.762   2.097  0.1822  0.0783  0.0380
28015W        W45539  15.188  13.105  13.770  0.1962 -0.2039 -0.2317
28016W        W45540   0.110   2.659  15.554  0.0573 -0.1195  0.2160
28017W        W45541   3.366  11.193   4.958 -0.0913 -0.0550  0.1237
28018W        W45542  11.571   7.442  11.424  0.0679  0.0122 -0.2236
28019W        W45543   2.525  15.034   3.965 -0.0893 -0.1626  0.0067
28020W        W45544  14.006  17.469  12.300  0.2100  0.3040 -0.2892
28021W        W45545  14.366   3.568  14.291  0.3041 -0.1029  0.4546
28022W        W45546  14.832  15.482  10.957 -0.3195  0.0558  0.2883
28023W        W45547   1.447   6.431  14.599 -0.1749 -0.1176 -0.1041
28024W        W45548  11.009  16.428   5.383 -0.2288  0.0600 -0.0310
28025W        W45549   0.248   0.406   4.839  0.1941 -0.0667  0.1982
28026W        W45550   8.097   8.994  13.931 -0.1651  0.1592 -0.0303
28027W        W45551   1.052  17.049   0.991 -0.2980 -0.2021 -0.0380
28028W        W45552  10.148  16.703   1.409  0.2526  0.0562 -0.1175
28029W        W45553   4.336  17.492  14.859 -0.0915  0.0163  0.0349
28030W        W45554   5.146   2.646  13.929  0.0292 -0.0667 -0.1022
28031W        W45555  12.414  13.498   2.602  0.0030 -0.0049 -0.0911
28032W        W45556  18.048  17.154   1.231  0.0242 -0.0276 -0.1388
28033W        W45557   1.570   8.526  14.761  0.0160  0.1964 -0.1752
28034W        W45558   0.660  12.235  12.820 -0.0129 -0.0450 -0.4062
28035W        W45559  10.981   5.653   3.140 -0.1317 -0.1342 -0.3261
28036W        W45560  17.257  11.870  15.273  0.0486  0.0935 -0.3147
28037W        W45561   9.372   1.933   2.605 -0.4829  0.0346 -0.1036
28038W        W45562   2.975  15.362   2.895 -0.3587 -0.1532  0.2050
28039W        W45563  11.748   2.336  11.650  0.1036  0.1763  0.0417
28040W        W45564  13.582  16.282  14.663 -0.2155 -0.2549 -0.2022
28041W        W45565  16.404   0.562   0.448 -0.1386  0.0549 -0.1281
28042W        W45566  13.314  15.862  14.460 -0.2874  0.0014  0.0239
28043W        W45567  13.790   3.545   5.534  0.1244 -0.0568  0.0688
28044W        W45568   2.654   0.952  13.158  0.0173  0.1142 -0.0279
28045W        W45569   9.840   6.581  13.253 -0.1873 -0.4109  0.0996
28046W        W45570   1.037   8.723   9.809 -0.0894 -0.2221  0.1790
28047W        W45571   1.324   6.407  13.670 -0.1006  0.0065 -0.1638
28048W        W45572  10.903   3.175  14.872  0.0942  0.3191  0.0950
28049W        W45573  13.991   1.574   5.452  0.0927 -0.2119  0.0422
28050W        W45574   1.765   1.748   4.008  0.0447 -0.3261  0.0745
28051W        W45575   8.278   0.061  15.520  0.3993  0.0237  0.3960
28052W        W45576  11.699  12.675   1.614 -0.0166  0.4201 -0.3850
28053W        W45577   1.211   1.438  13.780 -0.1438  0.1793 -0.2190
28054W        W45578   9.809   8.084  14.570 -0.1466 -0.1924  0.0454
28055W        W45579   4.867   5.738  14.645 -0.1968  0.0501  0.0601
28056W        W45580  11.040  16.440  14.720 -0.1704 -0.0686 -0.1161
28057W        W45581  11.360  11.249   3.384  0.1683 -0.1955 -0.0539
28058W        W45582   7.970  18.210   2.117  0.1122 -0.2140  0.1839
28059W        W45583  17.757   7.517   4.050 -0.2294 -0.0623 -0.0288
28060W        W45584   0.667  10.399  11.982  0.1974 -0.2011  0.1496
28061W        W45585  16.583  10.405  12.395  0.1915 -0.1985 -0.0938
28062W        W45586  16.280   6.095   0.052 -0.0825 -0.0697  0.0081
28063W        W45587   1.601   1.759  14.988 -0.2989 -0.1031  0.0335
28064W        W45588   1.957   1.462  15.697 -0.0953 -0.0419  0.0505
28065W        W45589   9.864   7.716   2.885 -0.2681 -0.0142  0.0363
28066W        W45590   0.426  10.530  13.237  0.0810  0.2640 -0.1114
28067W        W45591   5.433  13.359  15.382 -0.2686 -0.1708  0.2380
28068W        W45592  15.743   3.308  14.263  0.4037  0.0527 -0.1181
28069W        W45593  14.611   3.011  12.975  0.0233  0.2654 -0.0558
28070W        W45594   0.684   6.862   3.994  0.1407  0.2088 -0.1604
28071W        W45595   0.279   1.416   3.739 -0.0580  0.0395  0.1973
28072W        W45596   8.902   1.637   3.943 -0.0004 -0.0571  0.1548
28073W        W45597  12.747   6.999  15.115 -0.1467 -0.0193 -0.1205
28074W        W45598   9.046  15.045  13.110 -0.1898 -0.0287 -0.0056
28075W        W45599  13.292   4.584   0.670 -0.2566  0.2413 -0.0955
28076W        W45600  12.546   6.424   3.971 -0.2668 -0.1000  0.1091
28077W        W45601  12.122   5.772   4.124  0.2496 -0.0458 -0.4804
28078W        W45602   4.692   9.836   1.085 -0.3033  0.0829 -0.2131
28079W        W45603   0.286  15.101  12.365 -0.1274 -0.2728 -0.0846
28080W        W45604   1.921  18.154   2.787  0.1864 -0.0128 -0.0207
28081W        W45605   4.818   0.878   4.633 -0.0958  0.2291  0.1457
28082W        W45606  14.593  18.138   3.629  0.2152 -0.0530  0.2108
28083W        W45607  16.145  17.916  13.279 -0.1974  0.0249  0.1854
28084W        W45608   9.795  17.549  15.331 -0.2016  0.5401  0.2866
28085W        W45609   9.213  16.291  15.435 -0.1682 -0.0066  0.1607
28086W        W45610   6.893  13.301  15.332  0.0928 -0.2135  0.1165
28087W        W45611   4.299   0.968  12.199 -0.2126 -0.1422 -0.1464
28088W        W45612   8.485   3.390  13.717  0.1288 -0.2061 -0.0723
28089W        W45613  15.201   8.718   1.683  0.1213 -0.0936 -0.0659
28090W        W45614   8.632   5.092  15.685 -0.4039 -0.0872  0.0169
28091W        W45615  10.250   4.963   2.139  0.1929  0.3247 -0.2380
28092W        W45616   0.223   7.390   3.157 -0.1127 -0.1729 -0.0767
28093W        W45617   0.063  11.211   0.100  0.1788 -0.0096 -0.1151
28094W        W45618  11.149  13.515  14.432 -0.1835  0.3546  0.1305
28095W        W45619  10.086  15.455  15.140  0.1355 -0.0787  0.1686
28096W        W45620  17.748  12.837   1.141 -0.2651 -0.1973 -0.1605
28097W        W45621   0.373  11.945  11.860  0.0573  0.0678 -0.3223
28098W        W45622  15.098  13.738  14.659 -0.1014 -0.1276  0.0545
28099W        W45623   3.111   5.789   0.160 -0.3911  0.2464  0.1999
28100W        W45624   5.003   4.289   0.970  0.0561  0.0486  0.4606
28101W        W45625   9.056  10.503  14.623  0.1888  0.1059  0.2115
28102W        W45626   3.833   3.913  11.403  0.1726 -0.0919  0.1926
28103W        W45627   9.335   0.086  15.418  0.0528 -0.1336  0.4541
28104W        W45628   5.462  13.857   2.938  0.0443 -0.0456  0.2094
28105W        W45629   2.606  12.979  11.670 -0.1092 -0.2149  0.3549
28106W        W45630   8.533  17.479  13.197  0.0319  0.0189  0.1345
28107W        W45631  15.662   7.404  11.656 -0.0204 -0.0424 -0.1008
28108W        W45632   5.074  15.022  14.665 -0.1175 -0.2893 -0.0375
28109W        W45633   8.708  12.786   0.351 -0.0628 -0.1705 -0.3357
28110W        W45634   2.776  10.246   3.230  0.2328 -0.0477  0.0565
28111W        W45635  13.966   0.095   4.428 -0.1154  0.0996  0.0440
28112W        W45636  13.962   4.500  12.817 -0.4996  0.6110 -0.2209
28113W        W45637   9.508  17.451   3.652 -0.0147  0.2188 -0.0669
28114W        W45638   6.976  13.374   4.892 -0.2022  0.1023  0.0610
28115W        W45639   6.899  10.959  11.914  0.1926 -0.4053 -0.1164
28116W        W45640   5.034   8.786   0.926 -0.1939 -0.1251  0.1704
28117W        W45641   7.692  11.766   3.790  0.1081  0.2015  0.0968
28118W        W45642   2.871  13.197   1.296 -0.0009 -0.2768 -0.1112
28119W        W45643  14.392  11.313   2.544 -0.1409 -0.0270  0.0631
28120W        W45644   3.772   4.699  10.894 -0.0588  0.0197  0.2327
28121W        W45645  17.579   8.607  11.926  0.1162 -0.1007 -0.2197
28122W        W45646   3.655  11.207   3.698 -0.1917  0.0048 -0.0505
28123W        W45647   2.360   0.150   1.182  0.0098 -0.2715 -0.0710
28124W        W45648  15.950  10.385   2.204  0.2929  0.1017 -0.0072
28125W        W45649   9.126   9.867   0.657  0.1248 -0.0539 -0.0145
28126W        W45650  10.145   8.414   3.594  0.1410  0.0805 -0.1792
28127W        W45651   2.931   6.367   0.260 -0.1722 -0.0330 -0.0239
28128W        W45652   5.433  17.165  13.380  0.0349  0.2746  0.2485
28129W        W45653  12.593  12.526  12.090 -0.1888  0.0459 -0.2217
28130W        W45654   5.350   0.510   2.110 -0.2021  0.1694 -0.3921
28131W        W45655   7.060   0.846  13.456  0.2701  0.1254 -0.3550
28132W        W45656   1.358  10.530   3.119 -0.1106  0.0806 -0.0655
28133W        W45657   3.298   3.940   1.285  0.1794  0.1621 -0.1324
28134W        W45658  13.006  16.236  14.282 -0.2531 -0.0987 -0.2654
28135W        W45659  16.050  18.309   2.934  0.1162 -0.2988  0.0705
28136W        W45660   0.759   7.913   2.693 -0.4206  0.0137  0.0136
28137W        W45661   8.309   2.363  13.968 -0.3580 -0.0625 -0.2039
28138W        W45662   5.059   0.718  13.466  0.2458  0.0020  0.0507
28139W        W45663   9.091   0.538   4.999  0.1258 -0.1912  0.1010
28140W        W45664   2.494   7.194   3.554 -0.0584  0.0946  0.0327
28141W        W45665   7.714  17.619  13.675 -0.0741 -0.0452 -0.1758
28142W        W45666  13.000   3.336  11.450  0.0910  0.0302  0.1910
28143W        W45667  12.858   5.413   1.634 -0.1236  0.1337 -0.1250
28144W        W45668   2.733  11.312  11.347 -0.1862 -0.2802 -0.1111
28145W        W45669   0.922   8.499  14.842  0.0250  0.2796  0.2128
28146W        W45670   0.817   9.364  13.566 -0.1189  0.4473 -0.0225
28147W        W45671   7.156   1.668  11.786 -0.0211  0.0323  0.0851
28148W        W45672  11.683   6.469   1.087 -0.0998  0.1325 -0.2594
28149W        W45673  14.760   6.980  12.729 -0.1622 -0.1046 -0.2224
28150W        W45674  17.341   6.429  14.695  0.0920  0.0385  0.0506
28151W        W45675  13.422   5.059   1.820 -0.0213  0.0929 -0.1924
28152W        W45676   6.453  17.491  12.713 -0.1184  0.2782  0.1771
28153W        W45677   5.254  12.523  14.238 -0.1181 -0.1601 -0.1701
28154W        W45678   2.943   0.713   0.538  0.2007 -0.0665  0.1065
28155W        W45679   6.029  13.213   1.006 -0.0666  0.0571 -0.3532
28156W        W45680   7.737  10.302  15.065 -0.1761 -0.2359  0.0576
28157W        W45681  18.249   8.151   1.569 -0.2801  0.0220  0.1137
28158W        W45682   9.729   3.596  15.475  0.0256 -0.0864  0.0688
28159W        W45683  16.846  12.615   5.592 -0.0387  0.0654 -0.0063
28160W        W45684  15.546  12.041   3.606 -0.1345 -0.0853  0.1822
28161W        W45685  12.677  16.077   2.790 -0.0547  0.1408  0.1141
28162W        W45686  13.229   9.006  11.752  0.1015 -0.1548 -0.2094
28163W        W45687  17.524   8.494   3.053  0.2932  0.3500  0.0433
28164W        W45688   6.376   4.490   3.794 -0.2772  0.2702  0.0081
28165W        W45689  18.328   9.613   4.973  0.0035 -0.1107 -0.1054
28166W        W45690  11.553   0.922   1.385  0.0281  0.2889 -0.3111
28167W        W45691   4.173  12.048   1.477 -0.0815 -0.2120  0.0193
28168W        W45692  10.746   7.651  11.060  0.2128 -0.1364 -0.0901
28169W        W45693   4.245   5.550   4.453 -0.0647  0.0849 -0.0235
28170W        W45694  17.579  14.718  13.825 -0.2153 -0.0161 -0.1241
28171W        W45695  15.157   6.068   5.180  0.4790 -0.0741  0.0899
28172W        W45696   9.660  17.540   1.484  0.0307 -0.0266  0.1678
28173W        W45697   1.181   5.579   4.496  0.2418  0.1673  0.0499
28174W        W45698   4.078   7.724   2.364 -0.2330  0.1487 -0.2257
28175W        W45699  11.344   6.172   4.557 -0.0430  0.5217 -0.1152
28176W        W45700   1.094   0.862  11.042 -0.0269  0.1951 -0.0035
28177W        W45701   2.714  14.255  12.466  0.2364 -0.0453  0.1829
28178W        W45702   7.924  15.788   3.990  0.0549  0.0539 -0.0527
28179W        W45703  11.079   3.479  12.538 -0.3009 -0.1217 -0.3386
28180W        W45704   7.197  10.948  11.198  0.0928  0.1661  0.4363
28181W        W45705  12.732   4.069   4.352 -0.2981 -0.0972 -0.0548
28182W        W45706  16.071   1.674   2.359  0.2431  0.0736 -0.1244
28183W        W45707   0.700   5.020   3.362  0.2134  0.1073 -0.2253
28184W        W45708  16.117  16.397   0.087 -0.2430  0.0521  0.0418
28185W        W45709   8.053  11.534   4.613  0.3484 -0.1161 -0.0908
28186W        W45710   4.726  13.519   0.056 -0.1971  0.1076  0.0906
28187W        W45711  17.682   5.382   4.694  0.0962  0.0030  0.2006
28188W        W45712   9.111   5.084   1.379 -0.1505 -0.1333  0.4395
28189W        W45713   9.588  17.093   5.931 -0.1146  0.0002  0.1987
28190W        W45714   3.147   0.107   4.813 -0.0106  0.1031 -0.0688
28191W        W45715  10.369  13.363  14.601  0.0129  0.1783  0.0687
28192W        W45716   1.049  16.917   0.013 -0.1215  0.0748 -0.2119
28193W        W45717   4.536  11.159   3.635  0.1122  0.0617  0.0781
28194W        W45718   3.903   5.760   1.791 -0.2210  0.1685 -0.2527
28195W        W45719   6.922   0.476   4.457  0.1771  0.0164  0.1931
28196W        W45720   8.197   6.877   1.215  0.2339  0.1876  0.2128
28197W        W45721   4.496  12.503   2.307  0.0655  0.0749 -0.0177
28198W        W45722   1.089   6.008   1.192 -0.1200  0.1918  0.3025
28199W        W45723   4.709   3.151  13.088  0.0870 -0.0259 -0.2898
28200W        W45724  16.772  11.755   4.724 -0.0689 -0.1876 -0.0964
28201W        W45725   0.215   9.601  12.995 -0.1002 -0.2571  0.1333
28202W        W45726  11.320   5.813   1.627  0.1389 -0.1811  0.1023
28203W        W45727  14.302  15.094  14.826  0.2306 -0.0550  0.2244
28204W        W45728   8.176   0.162  13.586 -0.0736  0.0248 -0.2110
28205W        W45729  17.003  10.711   4.613 -0.1958 -0.1839  0.0711
28206W        W45730   3.305  17.672  13.082  0.0234 -0.2077  0.1083
28207W        W45731   1.353  10.213   3.509 -0.3182  0.2073 -0.2462
28208W        W45732  18.094   4.849   1.644 -0.0321  0.1583 -0.2287
28209W        W45733  11.649  13.169   1.500  0.2058 -0.1877 -0.1118
28210W        W45734   3.127  14.724   1.083  0.2813 -0.0989 -0.2341
28211W        W45735  12.985   7.828   4.971  0.0687  0.1196 -0.0666
28212W        W45736   7.147   8.995   0.318  0.0760 -0.0692  0.0334
28213W        W45737   7.040   2.430   4.252 -0.3030  0.2235  0.0806
28214W        W45738  14.028   4.265   3.311  0.3530  0.0783 -0.0799
28215W        W45739   4.848   0.415  13.113 -0.2365  0.1742 -0.1922
28216W        W45740  18.118   5.633   2.096 -0.2947 -0.0237 -0.3609
28217W        W45741   4.704  14.109  11.460 -0.1048  0.1395 -0.1487
28218W        W45742  12.976   5.733   3.557 -0.0782  0.0723 -0.0568
28219W        W45743   1.285   2.136  13.362  0.1090 -0.1632 -0.1595
28220W        W45744   7.613   2.062   2.904  0.2643  0.0449  0.1104
28221W        W45745   9.259  17.740   1.275  0.1476 -0.0117 -0.0826
28222W        W45746   2.103   6.509   3.131  0.2306 -0.0384 -0.0967
28223W        W45747  12.054   3.142  11.572  0.3145  0.2064  0.0675
28224W        W45748  14.693   6.560  15.713 -0.2539  0.0822  0.2758
28225W        W45749  17.794   5.639  15.725 -0.1596 -0.4997 -0.4472
28226W        W45750   7.418   2.486   1.314  0.0009  0.0933 -0.0550
28227W        W45751  13.955  13.497   1.489 -0.0009  0.2518 -0.2459
28228W        W45752   3.353   2.434   4.059 -0.2109  0.1268 -0.1418
28229W        W45753   3.112   8.473  12.681 -0.0338 -0.0784 -0.1645
28230W        W45754  14.752  11.213  12.030 -0.2954 -0.0011  0.4644
28231W        W45755  17.742   9.172   5.403 -0.1854  0.2724  0.3506
28232W        W45756   5.434   7.540  12.558  0.0029  0.1164 -0.0365
28233W        W45757  15.064  13.015  13.288  0.2028  0.0215 -0.2331
28234W        W45758   0.435  11.457   3.829  0.1252  0.0160  0.0108
28235W        W45759  13.124  13.581   0.330 -0.2227  0.5425 -0.2218
28236W        W45760   6.792   9.655   4.179  0.1421  0.0698  0.0590
28237W        W45761   6.228  14.984   4.568  0.3832  0.3036  0.0906
28238W        W45762   0.500   1.267   0.042 -0.2114 -0.1268 -0.0061
28239W        W45763   5.366  16.351  11.806  0.0954  0.4931  0.1245
28240W        W45764  16.809   3.373  14.487  0.1787  0.3632  0.0471
28241W        W45765   5.146  16.368   0.661  0.0159 -0.2573  0.2425
28242W        W45766  17.423   0.820   3.556 -0.0486 -0.1351  0.2630
28243W        W45767  16.055   4.493  14.281  0.4670  0.1437  0.1275
28244W        W45768   2.986  13.966   0.863  0.0314 -0.0787  0.0879
28245W        W45769   4.268   5.521  11.332 -0.0635 -0.0510  0.3224
28246W        W45770  13.961   6.582  13.868  0.1003 -0.0104 -0.0173
28247W        W45771  10.442  17.875   3.310  0.1531  0.0915 -0.2394
28248W        W45772  15.353   3.902   0.080  0.2736  0.0990 -0.0237
28249W        W45773   8.702  16.752   4.048 -0.2787 -0.2957  0.2082
28250W        W45774  12.692  15.218   1.660  0.1002  0.2833  0.1852
28251W        W45775  15.500   9.914  14.560  0.2371 -0.1506 -0.0526
28252W        W45776  10.407   7.226   2.851 -0.0607  0.1770 -0.0604
28253W        W45777  10.059  15.968  11.828 -0.0811 -0.0274  0.0811
28254W        W45778  16.346  17.154  13.298  0.1797 -0.2242 -0.2284
28255W        W45779  18.004  10.243   0.416 -0.0241  0.0833 -0.2327
28256W        W45780   9.082   7.500   3.375 -0.2744 -0.1915 -0.2591
28257W        W45781   2.678   1.589   3.556  0.3073 -0.1035 -0.2564
28258W        W45782   6.962   7.559  15.478  0.2951 -0.0987 -0.0740
28259W        W45783   0.402  15.481  13.941  0.2244 -0.0744 -0.0470
28260W        W45784   3.686   3.272   3.638 -0.1337  0.0842 -0.0373
28261W        W45785  11.742   9.687   2.596 -0.2124  0.4065 -0.0127
28262W        W45786   6.324  18.241   1.008 -0.1972 -0.1088  0.1821
28263W        W45787   5.030   1.022   5.054 -0.2240 -0.1215  0.4203
28264W        W45788  15.101  17.794  11.337 -0.1168  0.2092 -0.1624
28265W        W45789  12.550  14.725  12.122  0.0487 -0.2751  0.0537
28266W        W45790   6.170   0.340   0.124 -0.1487 -0.1860  0.0755
28267W        W45791   2.910  16.577   0.909  0.0323  0.0120  0.5404
28268W        W45792   1.381  17.150   3.846  0.0982 -0.0065  0.0089
28269W        W45793   0.405   3.936  15.303  0.1154 -0.0941  0.1282
28270W        W45794   1.551  14.400  15.304 -0.1015  0.2106  0.2792
28271W        W45795   2.034   9.357   4.014  0.0975  0.0649  0.0675
28272W        W45796  16.797   8.872  11.211 -0.2204  0.0320  0.0678
28273W        W45797  10.607   9.349   0.304  0.2677 -0.0845 -0.0446
28274W        W45798  11.304  14.755   0.126 -0.0382  0.0923  0.1028
28275W        W45799   6.847  15.156   3.548 -0.1813 -0.3425  0.0492
28276W        W45800   3.800  10.647   4.002 -0.1152  0.4029  0.2854
28277W        W45801  12.391  12.048  11.342 -0.1920  0.1384 -0.2767
28278W        W45802  14.177   8.753  15.076  0.0752 -0.0810  0.3303
28279W        W45803   4.916   0.519  12.517  0.0374  0.2704 -0.1871
28280W        W45804   0.491   3.038  11.038 -0.1519 -0.3495  0.0191
28281W        W45805   1.469   5.961   2.044 -0.4861  0.1062  0.0999
28282W        W45806   2.672   8.057   4.133  0.1052 -0.0512 -0.1420
28283W        W45807  13.394   4.495  15.012  0.2595  0.6145 -0.2635
28284W        W45808  11.900  17.271  15.080 -0.1222 -0.1783  0.1040
28285W        W45809   5.536  15.325  13.045 -0.1756 -0.0618 -0.1760
28286W        W45810  10.292   9.882   1.688  0.0951  0.1208 -0.1426
28287W        W45811   6.577  11.502   1.076 -0.1032 -0.1486 -0.1958
28288W        W45812   7.107   7.380  11.244  0.3681  0.2137 -0.2862
28289W        W45813  16.081  12.303   0.587  0.1694  0.3965  0.1426
28290W        W45814   5.496  11.721   3.276 -0.2515  0.1516 -0.1760
28291W        W45815   9.080  13.410  13.340  0.0467  0.1211  0.1593
28292W        W45816  11.083  10.261  14.109 -0.0161  0.1611  0.2312
28293W        W45817   8.108   9.285  11.707  0.1998  0.4394 -0.4651
28294W        W45818   8.895   7.754   3.006 -0.1856 -0.4631  0.1502
28295W        W45819   6.049   0.891   5.838  0.2186  0.0140  0.0248
28296W        W45820  14.973  11.633   3.323 -0.0706 -0.0443 -0.1242
28297W        W45821  15.276   8.155   3.864  0.0314  0.2768 -0.2278
28298W        W45822   2.543  13.456  11.974 -0.2958  0.0190 -0.3727
28299W        W45823   5.157  11.811  12.803  0.0074  0.2325 -0.0042
28300W        W45824   1.905  15.799   4.575 -0.3436 -0.0208  0.1244
28301W        W45825   7.073   8.588   3.512 -0.0348  0.1551 -0.2964
28302W        W45826   2.290   5.331   1.599 -0.1735 -0.4454  0.0960
28303W        W45827   9.366   6.714   2.059  0.0507  0.2690  0.4972
28304W        W45828  14.865  16.750  13.997 -0.0753 -0.1103  0.0004
28305W        W45829  14.615  13.797   5.531 -0.0551  0.0769 -0.1534
28306W        W45830  13.727   2.523  11.500 -0.0106 -0.0795  0.1506
28307W        W45831   5.642   4.887  12.773  0.0970 -0.1311 -0.1612
28308W        W45832   8.298  11.623   0.276  0.4504 -0.0094 -0.2122
28309W        W45833   0.808   9.805  14.979 -0.0934 -0.2807  0.0029
28310W        W45834  10.901  12.453  14.123  0.0152  0.0050  0.1048
28311W        W45835   8.604   8.457  11.062  0.0197  0.3147 -0.0515
28312W        W45836  10.520  14.204  15.672  0.1453 -0.1029 -0.1429
28313W        W45837   4.197  11.821  15.516  0.1484 -0.1636 -0.0671
28314W        W45838  15.970   0.047   3.915 -0.0702 -0.1751 -0.2864
28315W        W45839   2.279   7.125   0.223  0.0915  0.1977  0.1285
28316W        W45840  11.031   9.490  15.845  0.0058  0.0419 -0.0323
28317W        W45841   7.620   4.839   3.750  0.0059 -0.1705  0.0238
28318W        W45842  16.011  17.534   2.836  0.3034  0.0271 -0.1102
28319W        W45843   9.716   1.959   1.450 -0.0751 -0.1162 -0.3107
28320W        W45844   2.392   5.457   0.562  0.1230 -0.3158  0.1644
28321W        W45845  11.923  12.331  13.129 -0.1602  0.0960  0.0441
28322W        W45846  12.561   9.360  14.136 -0.0871 -0.0085 -0.1790
28323W        W45847   6.680  10.979   1.916 -0.0195 -0.3260  0.2256
28324W        W45848   6.311   9.801  14.298 -0.0758  0.3902  0.0858
28325W        W45849   8.464   5.663  15.500 -0.0693 -0.2452 -0.0198
28326W        W45850  14.578  12.415  13.729  0.1149  0.2143 -0.1309
28327W        W45851   0.849  10.379   3.107 -0.0274 -0.2007 -0.0852
28328W        W45852   3.911   8.024   0.978  0.3821 -0.0039 -0.0186
28329W        W45853   2.944   2.057   2.682  0.0990  0.0928  0.2789
28330W        W45854   2.745  10.235  14.767  0.0219 -0.2262  0.1809
28331W        W45855   7.689   8.359   2.946 -0.1150  0.3024 -0.1486
28332W        W45856  10.256   7.120   4.197 -0.0918 -0.1312 -0.0777
28333W        W45857  11.090   7.844   0.555  0.3640 -0.2825 -0.1075
28334W        W45858  17.298   1.984   1.300  0.2006  0.1035  0.1746
28335W        W45859   4.434   2.356   5.004 -0.0098  0.3788 -0.0425
28336W        W45860  16.026   5.839   1.277  0.2598 -0.2796 -0.2880
28337W        W45861  10.062  12.371  12.984 -0.2642  0.1931 -0.0654
28338W        W45862   4.526  15.280   2.414 -0.2429 -0.1051  0.0168
28339W        W45863  15.510   8.262  12.706 -0.1297  0.1612 -0.3711
28340W        W45864  14.723   8.736  10.802 -0.2957  0.0774  0.0368
28341W        W45865   7.967   6.861  10.839 -0.0536 -0.1020 -0.0631
28342W        W45866  14.151   8.806   0.144  0.2381 -0.2011  0.1463
28343W        W45867   3.934  11.357  11.818 -0.1963 -0.1930 -0.1096
28344W        W45868  16.849  17.612   2.398  0.0738 -0.0807  0.0832
28345W        W45869  10.427  16.005   4.861  0.3016  0.2373  0.1344
28346W        W45870   6.053  15.739   1.359 -0.0032  0.1290 -0.0620
28347W        W45871  12.447   9.703  12.826 -0.2314  0.2359  0.4334
28348W        W45872   6.783   1.853  13.649 -0.1391 -0.0809  0.0483
28349W        W45873  15.038   7.283   1.904  0.0350 -0.0392  0.2528
28350W        W45874  12.764   5.634  14.958  0.0490 -0.1235 -0.0734
28351W        W45875  13.360   0.702  14.351 -0.1894  0.2743 -0.2013
28352W        W45876  14.850  10.835   2.053  0.0038  0.1036  0.2593
28353W        W45877   4.448   3.688   4.532 -0.3608 -0.3017 -0.2489
28354W        W45878  11.956   3.154  14.143  0.0661 -0.0772 -0.0577
28355W        W45879   1.718   8.084   3.763 -0.1448 -0.1273  0.1025
28356W        W45880   1.621  12.242   1.859 -0.0924  0.0546  0.0528
28357W        W45881   4.448   7.252  10.743  0.1551 -0.1201  0.1816
28358W        W45882  13.939   2.213  12.034 -0.0624 -0.1226  0.2021
28359W        W45883   5.439  14.016   0.060 -0.0272 -0.1980  0.0810
28360W        W45884  17.526   6.883  14.027  0.2863 -0.1946 -0.1714
28361W        W45885   8.771   1.467   0.056  0.3922 -0.0015  0.0862
28362W        W45886   8.535  11.355   5.321  0.1820 -0.0735 -0.0068
28363W        W45887  17.208   7.243   2.867  0.2402  0.0170 -0.0018
28364W        W45888  16.791   9.723  15.057 -0.1626 -0.1383  0.0919
28365W        W45889  15.409   2.385   3.644 -0.0517 -0.1363 -0.3003
28366W        W45890   1.157  16.493  15.593 -0.1188 -0.4656 -0.3190
28367W        W45891  10.802  16.069  15.750 -0.0980 -0.3304 -0.1753
28368W        W45892  10.678  17.358  14.349  0.1658  0.2790  0.0619
28369W        W45893  18.252  14.965   3.899 -0.2025  0.0289  0.2975
28370W        W45894   8.331   2.017   4.994 -0.1260 -0.2066 -0.0278
28371W        W45895   7.492  17.769  14.589  0.0653 -0.0468  0.0200
28372W        W45896  15.174   7.055   0.412 -0.2063  0.2634 -0.1423
28373W        W45897  16.192  16.681  12.984  0.1756  0.2395 -0.0933
28374W        W45898  16.166   4.478  13.222  0.0178  0.0272 -0.2569
28375W        W45899  13.401  14.691  15.346  0.0530  0.1003  0.1406
28376W        W45900  14.246   7.731   2.244  0.2769  0.1609  0.1492
28377W        W45901  15.992   5.696  12.652 -0.0754 -0.0559 -0.1129
28378W        W45902   5.657  14.160  11.511  0.0244 -0.0654 -0.0056
28379W        W45903   6.820  10.218  14.615 -0.1498 -0.2790  0.2247
28380W        W45904  14.635  15.279   0.418  0.3333 -0.1691  0.2400
28381W        W45905  16.778   8.441   1.804 -0.1798  0.1674  0.2445
28382W        W45906  17.538  17.414  14.574  0.1252  0.0319 -0.2076
28383W        W45907  13.716   7.415  14.273 -0.0525  0.0668 -0.0601
28384W        W45908   6.534   6.688   0.048  0.2623  0.0321  0.0069
28385W        W45909  10.718  14.751  13.190  0.0634 -0.1955  0.0782
28386W        W45910  10.906  10.882  13.726 -0.1287  0.0264 -0.2256
28387W        W45911   6.771  18.376  15.565  0.6449 -0.0166  0.0760
28388W        W45912   3.859  14.512  13.858  0.3411  0.1806 -0.0172
28389W        W45913   5.327  15.523  11.467  0.1317 -0.3071  0.1647
28390W        W45914  14.109  17.351   3.548  0.1158  0.0020  0.2367
28391W        W45915   7.922  16.058  14.492  0.0260 -0.1672  0.0117
28392W        W45916  14.764  15.364  12.922 -0.0165  0.1767 -0.1239
28393W        W45917   1.064   2.753   4.301  0.3628  0.1289  0.2770
28394W        W45918  12.848   8.854   0.536 -0.0170 -0.1961  0.0898
28395W        W45919   8.426  18.261   0.668 -0.2119 -0.2157 -0.0821
28396W        W45920   0.260   7.754   4.101 -0.0738  0.0148 -0.0480
28397W        W45921  16.577   6.102   0.504  0.0887 -0.0671 -0.1010
28398W        W45922  10.998   4.367   0.612  0.1901  0.0477 -0.0808
28399W        W45923  12.899   7.646   3.945  0.1001 -0.0411  0.0977
28400W        W45924  12.467  10.348   4.041 -0.0359  0.1742  0.4709
28401W        W45925  10.539  17.975   1.029  0.1367 -0.4277 -0.4314
28402W        W45926   4.673  14.232   0.649 -0.1606 -0.1625  0.1605
28403W        W45927   5.782   8.231   1.787  0.1350  0.0043 -0.0417
28404W        W45928   6.662   8.291  14.833  0.3241  0.0973 -0.1591
28405W        W45929  17.412   7.554   2.433 -0.2779 -0.0506 -0.3069
28406W        W45930   7.615  14.884  12.859 -0.1758  0.1479 -0.1082
28407W        W45931  14.150  15.908  13.499  0.0471  0.0819 -0.0550
28408W        W45932   2.943   7.922  13.734  0.1673 -0.2577 -0.1697
28409W        W45933   4.176  10.628   1.946  0.2886 -0.0421  0.0429
28410W        W45934   9.096  14.245   4.540  0.1690  0.2985  0.1971
28411W        W45935   8.879   4.390  11.999  0.1046  0.0805 -0.1905
28412W        W45936  16.345   0.146   0.690  0.0909 -0.1130  0.0959
28413W        W45937   4.229   7.359  10.119  0.1823  0.3639 -0.0222
28414W        W45938  11.610  12.529   2.053  0.0717  0.2468  0.2453
28415W        W45939  17.675  10.508   0.749 -0.0478  0.0212 -0.0619
28416W        W45940  10.880   3.688   1.543 -0.2686 -0.0984 -0.3103
28417W        W45941   7.686   5.690  11.036  0.5079 -0.0375 -0.0717
28418W        W45942   1.854   0.157  14.604  0.0043 -0.3416 -0.0916
28419W        W45943   8.811  11.779   0.352  0.1012  0.0008  0.0687
28420W        W45944   2.351   4.743  10.575  0.0596  0.4073  0.3663
28421W        W45945   3.905  15.004   3.951  0.2152  0.1847 -0.2244
28422W        W45946   8.549  15.181   0.906  0.0613 -0.2412 -0.2087
28423W        W45947   3.016   7.554  14.593  0.1171  0.2330 -0.2106
28424W        W45948  18.399  13.519  12.866 -0.0296 -0.0938 -0.1572
28425W        W45949   0.806   2.603   1.062  0.0650  0.1119  0.0815
28426W        W45950   6.752   1.759  14.834  0.2597  0.2424  0.2267
28427W        W45951  13.923   2.562   3.900 -0.0901  0.1911 -0.3004
28428W        W45952   7.595  11.923  13.211 -0.1294 -0.1529 -0.2376
28429W        W45953  16.093  14.353  13.243 -0.5050  0.0465  0.0629
28430W        W45954   8.057   7.207  14.362  0.0075  0.2096 -0.1699
28431W        W45955   6.841   6.260   5.014 -0.2904 -0.0680  0.0763
28432W        W45956   1.212  12.734  11.718  0.0178  0.1193 -0.0781
28433W        W45957  14.556  12.384  15.566  0.1944 -0.0771 -0.0475
28434W        W45958   7.452   4.136  15.313 -0.0822  0.1876  0.0961
28435W        W45959   7.087   9.698  12.458 -0.2354 -0.4159  0.1137
28436W        W45960  16.301  10.319  14.883 -0.0146  0.5092  0.1401
28437W        W45961   4.901   8.124   2.745  0.2524 -0.0844 -0.2578
28438W        W45962   0.483   5.176   1.262 -0.1982  0.1577 -0.0252
28439W        W45963   1.052  13.113  13.610  0.3538  0.0350  0.0171
28440W        W45964   1.102   7.391  15.549  0.1436 -0.3154 -0.0377
28441W        W45965   1.700   2.929  10.488  0.3991  0.2287 -0.0222
28442W        W45966  15.782  17.675  14.436  0.0622  0.0553 -0.3858
28443W        W45967  11.338   5.046  15.601 -0.1055 -0.0856  0.1333
28444W        W45968  10.788   5.427   0.368 -0.1261 -0.2076  0.1432
28445W        W45969  17.824   8.889   3.981  0.1087 -0.1343  0.2243
28446W        W45970   9.583   2.172  14.073 -0.2077  0.0874  0.1059
28447W        W45971  11.287  14.448   4.953  0.0184 -0.1800 -0.0522
28448W        W45972   6.211   0.946   2.538  0.1173  0.2333 -0.3198
28449W        W45973   2.058  11.844  13.504  0.2127 -0.1484 -0.0359
28450W        W45974   8.224  12.450  15.609 -0.1952 -0.1797 -0.1927
28451W        W45975   9.169   6.992   3.565 -0.0209  0.0259 -0.3240
28452W        W45976   4.736   3.280  12.008 -0.0164 -0.1138 -0.0842
28453W        W45977   9.695   6.865   0.980  0.6841  0.0431 -0.2370
28454W        W45978  12.832  11.503   0.395 -0.0910 -0.1644  0.0566
28455W        W45979  14.961  14.284  14.768 -0.2587  0.1375 -0.0682
28456W        W45980  12.854   3.046   1.855 -0.1225 -0.0412 -0.0126
28457W        W45981   1.103   2.941  14.070  0.4073  0.2427  0.0344
28458W        W45982  15.637  12.059  12.306  0.2791  0.2124  0.1429
28459W        W45983   1.709   2.419   2.036 -0.1292  0.0150  0.1726
28460W        W45984  15.830  14.256  15.826 -0.1379 -0.1810  0.0080
28461W        W45985  14.363  14.721   2.047 -0.1213  0.0069 -0.2684
28462W        W45986   9.505   7.586   2.532 -0.1864 -0.3396  0.1660
28463W        W45987   7.396   3.593  11.794 -0.2386 -0.2062 -0.1294
28464W        W45988  18.047   3.073   3.156 -0.0177  0.1164 -0.3084
28465W        W45989  16.760  13.296  14.830 -0.1098 -0.0562  0.3410
28466W        W45990  15.120  17.802  12.988  0.0205 -0.0556  0.1318
28467W        W45991   6.397   8.847  13.695 -0.1607  0.1565  0.2117
28468W        W45992   4.003  13.975   3.495  0.0641 -0.1930 -0.0262
28469W        W45993  13.980  16.732  13.600 -0.2046 -0.1114  0.0045
28470W        W45994   5.389  12.614  15.810 -0.0106  0.4095 -0.1725
28471W        W45995  17.620  17.835  11.065 -0.1653  0.1414  0.0536
28472W        W45996   9.472  12.116  14.870 -0.1792  0.0590  0.1252
28473W        W45997   3.123   1.822  15.753  0.4390  0.2699  0.0045
28474W        W45998  14.139   7.417   2.629  0.3585 -0.1635  0.1624
28475W        W45999   3.011   0.157   1.721 -0.2886  0.2675  0.0820
28476W        W46000  13.824   9.973  12.694  0.2308 -0.1246 -0.0923
28477W        W46001   8.592   4.231  12.360 -0.1421  0.0079  0.4267
28478W        W46002   0.583  15.710  14.479  0.0836  0.0147  0.0683
28479W        W46003   9.232   4.369   1.052 -0.0255  0.0150 -0.4150
28480W        W46004  18.164   5.600   3.356 -0.0058 -0.0939 -0.0977
28481W        W46005   8.319   0.861  14.045  0.7280 -0.3517 -0.3176
28482W        W46006   2.785  18.180  15.398 -0.2349  0.0881 -0.2466
28483W        W46007  18.045   7.200   1.748 -0.2122  0.0885 -0.0678
28484W        W46008  14.560   1.696   4.618  0.2419 -0.0148  0.1178
28485W        W46009   0.066  12.997   0.053 -0.1206 -0.0189 -0.0094
28486W        W46010   8.544  16.810  14.512 -0.3448 -0.0063 -0.0590
28487W        W46011   5.961  15.075  13.326 -0.2470 -0.0526  0.0824
28488W        W46012  10.140   6.654   9.804  0.3683  0.1394  0.0978
28489W        W46013   5.081   7.261  13.099 -0.1259 -0.0008 -0.0480
28490W        W46014   3.180  12.306  11.268  0.0118 -0.0033  0.0233
28491W        W46015  12.865  13.830   3.913 -0.1542 -0.0964 -0.2930
28492W        W46016  14.122  18.121   0.360 -0.0465 -0.0617 -0.0620
28493W        W46017  16.978   9.597   1.398 -0.1009 -0.0007 -0.0148
28494W        W46018  15.635   2.483  12.089  0.2177  0.2608 -0.3034
28495W        W46019  12.986  12.573   0.397 -0.3927  0.1912  0.2467
28496W        W46020   4.189  11.396  14.601 -0.1034  0.0300 -0.1814
28497W        W46021   4.189  14.778  13.440 -0.2332  0.4025  0.3364
28498W        W46022   9.617  14.867  15.827 -0.2362 -0.0395 -0.1069
28499W        W46023   3.542  15.818   0.608  0.4385 -0.0172 -0.1706
28500W        W46024   5.421   1.527   1.107 -0.0787  0.1071  0.4564
28501W        W46025  13.156  15.413   2.153  0.0944 -0.2610  0.0143
28502W        W46026   3.696   4.457  14.628 -0.2137  0.2102 -0.0178
28503W        W46027  12.898  15.426  12.365 -0.0699 -0.4171 -0.3634
28504W        W46028   0.982  12.185  14.588 -0.0585 -0.0247 -0.2505
28505W        W46029  13.980   2.005   3.898 -0.2338 -0.1959 -0.1135
28506W        W46030  16.834   3.892  13.810  0.1015 -0.1883 -0.1717
28507W        W46031  15.965   6.961  13.281  0.0493 -0.1596 -0.2815
28508W        W46032  14.602   3.870  10.527  0.1851  0.1175  0.1036
28509W        W46033   7.253  11.499  14.565 -0.1363  0.4464 -0.5954
28510W        W46034  11.354   6.668   4.491 -0.1101 -0.3063  0.0272
28511W        W46035   5.941   8.289  12.607  0.1895  0.1969  0.2583
28512W        W46036   0.172  13.734  12.233 -0.0544 -0.2246  0.0264
28513W        W46037   4.155  10.005  14.130 -0.0652 -0.0662 -0.0609
28514W        W46038   9.125  12.672   0.632 -0.0986 -0.4895  0.3979
28515W        W46039  10.532   6.218   4.836  0.0644 -0.1395  0.1251
28516W        W46040   9.754  13.222  15.767 -0.2917  0.2623 -0.0653
28517W        W46041   6.151   5.469  15.561  0.0347  0.0997  0.2628
28518W        W46042   4.744  12.461  13.022  0.0272 -0.0433  0.1332
28519W        W46043   1.807   6.814  12.825  0.0179 -0.2416 -0.0662
28520W        W46044  17.989   1.705  14.151 -0.1223 -0.2524  0.1841
28521W        W46045   9.450   7.742   0.605 -0.0720  0.1665  0.2512
28522W        W46046   5.008  15.747  10.276  0.1355  0.4944  0.0063
28523W        W46047   8.376  12.147   1.352 -0.2414  0.2898 -0.1596
28524W        W46048   1.265  14.967  13.878  0.3429 -0.3297  0.0250
28525W        W46049   8.010  16.815   4.314  0.0988 -0.3299  0.3784
28526W        W46050   9.188   7.653  15.842  0.1970  0.0012 -0.1012
28527W        W46051   9.184   3.362   1.555 -0.1223  0.0066  0.0797
28528W        W46052  11.955  11.829  15.357 -0.1275 -0.4044  0.2226
28529W        W46053   3.221   1.352  14.829 -0.1942  0.3623  0.2260
28530W        W46054  17.748   9.059  12.109  0.0790  0.0135 -0.0201
28531W        W46055   9.761   5.082   0.259  0.0273  0.0690 -0.1458
28532W        W46056  14.910   1.177   4.560  0.1661 -0.2870 -0.1595
28533W        W46057  10.103   8.232  13.592 -0.3229  0.0701 -0.0957
28534W        W46058   5.403   7.193  15.238  0.0106 -0.0052 -0.2299
28535W        W46059   6.752  13.605   1.837  0.2322 -0.0424 -0.3763
28536W        W46060  17.893   5.798   2.562  0.0676  0.5089  0.1357
28537W        W46061  17.677  12.706   3.545  0.0006  0.0889 -0.0544
28538W        W46062  11.438  15.510   2.365 -0.1700  0.0861  0.0987
28539W        W46063  13.414   0.772   0.836 -0.0041 -0.0114  0.2276
28540W        W46064  15.802   5.374   3.037  0.2788 -0.0013  0.0891
28541W        W46065  17.203  12.261  13.347  0.1635  0.1504  0.4570
28542W        W46066  12.882   1.997   0.694 -0.1543  0.1862  0.0836
28543W        W46067  13.845  12.135   3.537 -0.1237 -0.2333  0.1653
28544W        W46068   3.874   3.446  11.618 -0.1133  0.0445 -0.0558
28545W        W46069   8.529   5.224   2.912 -0.2119 -0.1083  0.2158
28546W        W46070  17.010   9.906  11.201  0.0541 -0.1263  0.1130
28547W        W46071   8.097   5.201  13.676 -0.0659  0.1963 -0.0891
28548W        W46072   6.440  17.099   3.080 -0.3305 -0.2485 -0.1970
28549W        W46073  14.930   8.290   4.957  0.0961  0.1353 -0.1824
28550W        W46074  12.937  17.249  12.943  0.2179  0.1048 -0.1704
28551W        W46075   5.450   2.982   3.707 -0.0694 -0.2817  0.0570
28552W        W46076   9.437   5.970   1.040  0.1904 -0.1783  0.1427
28553W        W46077  10.361  11.126  13.226 -0.3503 -0.0742 -0.2273
28554W        W46078  16.759  12.609  12.021 -0.0684 -0.0225 -0.3516
28555W        W46079  17.196  13.413  10.576 -0.2526 -0.2209 -0.1051
28556W        W46080   3.771   3.252   3.186  0.2963 -0.0574 -0.0614
28557W        W46081  17.994   6.372   1.664 -0.3286  0.0914  0.1550
28558W        W46082  13.957  14.117   3.889 -0.1993 -0.1171  0.0423
28559W        W46083   8.103   5.967   4.791 -0.2183 -0.0226 -0.1630
28560W        W46084  16.916  16.581   4.343 -0.0717  0.1068  0.0083
28561W        W46085   5.435   7.999  12.390  0.1293  0.2220 -0.1675
28562W        W46086  14.642   5.776   1.792 -0.0389 -0.2172  0.4070
28563W        W46087  16.763  17.408   4.339  0.0657  0.1772 -0.0817
28564W        W46088  12.328  17.354  12.948  0.0810  0.1047 -0.0205
28565W        W46089  14.615   9.184  12.378  0.0205 -0.0735  0.0398
28566W        W46090   0.106   5.797   3.582  0.2468  0.1044 -0.2205
28567W        W46091  18.413   6.712   0.373  0.0552 -0.3519 -0.2413
28568W        W46092   0.502  15.243  11.810  0.3263 -0.0936  0.1397
28569W        W46093  17.375  12.764  12.026  0.0079  0.0240  0.3815
28570W        W46094  16.157   8.188  13.703  0.0457  0.1112 -0.0935
28571W        W46095   8.037  12.293  10.422  0.0066 -0.2355  0.3668
28572W        W46096  10.892   2.502   4.068 -0.1891 -0.1025  0.0703
28573W        W46097   2.364   0.139   4.091  0.3667  0.0046 -0.3730
28574W        W46098  15.306  16.343  14.156 -0.2232 -0.4270  0.1149
28575W        W46099   6.477  16.183   2.467 -0.0150 -0.0941 -0.1434
28576W        W46100   2.591   9.414   0.390 -0.1290  0.1211  0.1627
28577W        W46101   9.078   5.896   3.870  0.2060 -0.4857 -0.2029
28578W        W46102   7.989   5.207   3.113 -0.1091  0.3037  0.0099
28579W        W46103  10.153   6.994  10.604  0.0182  0.3312  0.1372
28580W        W46104   4.344   2.456   5.519  0.0471  0.0363  0.1049
28581W        W46105  11.655   5.870  11.703 -0.1438  0.3478  0.0988
28582W        W46106  11.113   7.488  13.196  0.1562 -0.1628  0.0360
28583W        W46107  13.435  12.638  11.629  0.0022 -0.1421  0.1533
28584W        W46108   3.617  15.094  12.552 -0.3121 -0.0594  0.1172
28585W        W46109   1.735   4.125  14.544 -0.0629  0.4944 -0.0289
28586W        W46110  17.674   3.206  11.608 -0.2672 -0.0918  0.0689
28587W        W46111  11.392   5.040  11.199  0.1495 -0.1228 -0.1949
28588W        W46112  15.243  15.151  10.785  0.0463 -0.0763 -0.0363
28589W        W46113   3.202   0.084   2.714 -0.2475  0.1317  0.0439
28590W        W46114  12.312   5.385  14.833  0.1358  0.1680  0.0983
28591W        W46115  15.720  15.988   4.188  0.1884 -0.0330  0.3395
28592W        W46116  17.750  17.197   0.239 -0.1042 -0.4669  0.0399
28593W        W46117  14.251   1.780  15.050 -0.2095  0.1690  0.0972
28594W        W46118   7.562  14.137  11.020  0.1242  0.1616  0.0504
28595W        W46119  12.528  13.358  15.358 -0.0040  0.1538 -0.1798
28596W        W46120   5.731   0.189  12.209 -0.0621  0.1152 -0.0990
28597W        W46121   0.096   7.959  13.647  0.0751 -0.0916 -0.2744
28598W        W46122   5.191   3.944   1.780 -0.3164  0.1622  0.2369
28599W        W46123   0.993   1.974   2.748 -0.4186  0.0572 -0.2335
28600W        W46124   3.112   0.704   0.986  0.1961 -0.1546  0.1912
28601W        W46125   1.443   5.158  10.905 -0.1749  0.0176  0.0371
28602W        W46126   7.295  12.914   2.245 -0.3698  0.2534 -0.0810
28603W        W46127   2.348  17.082  14.737 -0.1137 -0.2104  0.0152
28604W        W46128   8.524  10.572   1.752  0.1290 -0.0398 -0.3070
28605W        W46129   2.996   3.196  13.550  0.1869  0.4151  0.0590
28606W        W46130  14.577   6.687   1.887 -0.0388  0.0970 -0.0954
28607W        W46131   5.682   5.220  10.551 -0.0798 -0.0931  0.0233
28608W        W46132  15.537   6.922   4.028 -0.1509  0.1426  0.0052
28609W        W46133  11.525   0.570   1.827 -0.1953  0.1126 -0.2875
28610W        W46134  16.999   0.723   0.561  0.2047  0.0808  0.5542
28611W        W46135   5.307   3.658   4.995  0.1890  0.3509 -0.1142
28612W        W46136   8.131   5.842  15.859  0.1544 -0.2572  0.2316
28613W        W46137   6.178  16.553  11.973 -0.2443  0.0463  0.0150
28614W        W46138  18.089  15.819  13.223 -0.1599 -0.1518 -0.0396
28615W        W46139   4.876  16.593   1.509 -0.2028  0.1477 -0.2022
28616W        W46140   2.975   0.243   3.899  0.2777 -0.0651  0.1545
28617W        W46141   3.156   2.456  14.549  0.2329  0.0425 -0.1350
28618W        W46142  14.220  11.734   3.480 -0.1325  0.0355  0.2978
28619W        W46143   4.116  13.814  11.616 -0.1613 -0.4927  0.0496
28620W        W46144  10.391   7.345  14.783  0.2632 -0.1953 -0.0591
28621W        W46145  15.142   2.927   0.530  0.0139 -0.1705 -0.2313
28622W        W46146   3.250  11.195  14.593 -0.1462  0.1131 -0.1729
28623W        W46147  11.583   9.231  12.758  0.0324 -0.1575 -0.0080
28624W        W46148  14.026  13.928  15.061 -0.2728  0.2318 -0.0533
28625W        W46149  15.953  14.524   0.390 -0.2905  0.0447 -0.1693
28626W        W46150  12.371   6.720  13.304  0.1503  0.1834 -0.1217
28627W        W46151  11.039   6.679  12.064 -0.0451 -0.1472  0.1307
28628W        W46152  16.025   3.432  10.572  0.1467 -0.0755  0.0413
28629W        W46153   1.059   2.052  14.094 -0.3261  0.0343  0.2208
28630W        W46154   7.439   0.777   4.735 -0.0305  0.2797 -0.0823
28631W        W46155  17.559  14.536   3.650  0.1834 -0.2797 -0.2051
28632W        W46156   1.735   1.470   3.580  0.3336 -0.2063  0.1086
28633W        W46157  13.862   7.778   0.049 -0.0356  0.3028  0.2262
28634W        W46158   3.509  17.700   2.303  0.1299 -0.1776  0.0155
28635W        W46159   8.486  18.080   2.188  0.2934  0.0513  0.0511
28636W        W46160  10.457  15.429   3.599  0.2434 -0.0966  0.0045
28637W        W46161   1.917   9.291  14.760 -0.2542  0.1427  0.0940
28638W        W46162  17.370  17.997  15.825  0.0154  0.1373  0.1554
28639W        W46163  17.198  14.988   0.671 -0.2363 -0.3446  0.0178
28640W        W46164   2.402  13.152  14.008  0.2129 -0.2233 -0.2050
28641W        W46165  12.079   1.504  14.675  0.2588  0.1256  0.0248
28642W        W46166   1.664   8.471   2.082 -0.4814  0.2950 -0.5872
28643W        W46167  17.631  13.539  15.117 -0.1802 -0.1537  0.2751
28644W        W46168   5.770   3.146   4.145 -0.1487 -0.1832 -0.1711
28645W        W46169  16.725   3.139  12.096  0.0561  0.0987  0.1285
28646W        W46170   0.567  16.686  11.948 -0.1742  0.1842 -0.2137
28647W        W46171   5.945   7.542   0.849  0.1136  0.2868 -0.3154
28648W        W46172   7.718  16.348   1.392 -0.0186 -0.4291 -0.0755
28649W        W46173   8.260  13.329  11.876 -0.1892 -0.0590 -0.0003
28650W        W46174  18.116   4.703  12.219  0.0349  0.2358 -0.2894
28651W        W46175  13.206   1.667  15.541 -0.1214  0.0473 -0.0449
28652W        W46176   3.301   3.636  13.524 -0.1759  0.2964 -0.0025
28653W        W46177  14.308  10.982  15.073  0.0434  0.0627  0.1772
28654W        W46178   0.045  16.386   1.901  0.1404 -0.1759 -0.1307
28655W        W46179   3.470   7.037   2.013  0.1252 -0.1942 -0.3529
28656W        W46180  13.853   4.275  15.667 -0.1217  0.1229 -0.2376
28657W        W46181   7.617   0.689   3.232 -0.0522  0.0448 -0.0111
28658W        W46182  11.805  13.122  14.884  0.1822 -0.2633  0.0794
28659W        W46183  16.552  11.874  12.356  0.1093 -0.1140 -0.0895
28660W        W46184  18.135   6.832  13.072 -0.0547 -0.3401 -0.1132
28661W        W46185   2.123   2.540   2.649 -0.0516  0.3325 -0.0088
28662W        W46186   4.743   6.762  10.872  0.0450  0.3347 -0.3590
28663W        W46187  17.465  14.645  12.318  0.2604  0.2464  0.3078
28664W        W46188   1.957   8.227   1.687 -0.2814  0.0324 -0.1521
28665W        W46189   7.291   8.112   3.360 -0.0649 -0.1867  0.0629
28666W        W46190   5.982   4.255  13.837 -0.0996 -0.2587 -0.0960
28667W        W46191  14.877  14.207   3.563 -0.2190 -0.0769 -0.3764
28668W        W46192  17.788   3.324   0.092 -0.0050  0.0947 -0.0250
28669W        W46193   9.642   8.683  15.718 -0.0880 -0.3118 -0.1922
28670W        W46194  10.462   9.942   2.218 -0.2017  0.0161  0.2491
28671W        W46195  16.014  18.201   1.629  0.1076  0.0103  0.0503
28672W        W46196   9.839  10.922   0.414  0.4871 -0.1904 -0.1994
28673W        W46197  11.629   5.526  13.100  0.0633  0.2309 -0.2593
28674W        W46198  13.762   0.808  15.141  0.2026 -0.1124  0.2307
28675W        W46199  17.194  13.491   2.442  0.2654 -0.0089 -0.0490
28676W        W46200  15.899   6.948   1.166 -0.1422  0.1789  0.6533
28677W        W46201  15.969   6.267   1.695  0.0710 -0.1309  0.1363
28678W        W46202   6.816  14.913  14.124 -0.0540  0.1401 -0.0990
28679W        W46203   8.283  12.711   1.964  0.1172  0.0538 -0.3541
28680W        W46204   7.938  16.931  10.723  0.1221 -0.0679 -0.1085
28681W        W46205   8.842   5.603  14.641 -0.1451  0.0876 -0.1858
28682W        W46206   0.999  12.654  13.444  0.2902  0.0079 -0.2357
28683W        W46207   6.632  18.236   1.955  0.0636 -0.1525 -0.4246
28684W        W46208   4.695  17.826   0.392 -0.4554  0.1333 -0.3929
28685W        W46209  17.940   3.771  12.251 -0.0425  0.1154 -0.2186
28686W        W46210   3.463  18.393  12.839  0.1553 -0.1224  0.2534
28687W        W46211  13.462   1.386  11.181  0.1276  0.0114  0.0579
28688W        W46212   1.439   0.601   0.913 -0.0952  0.1225  0.3651
28689W        W46213  15.240   9.839   2.278  0.1386 -0.1028 -0.1165
28690W        W46214  14.126  13.110  13.244  0.0926 -0.1595  0.0397
28691W        W46215   9.472   4.679  13.463  0.1550  0.2442 -0.0621
28692W        W46216   2.890   8.858   1.033 -0.0600  0.3694  0.1228
28693W        W46217  12.347   2.925   0.559 -0.0272  0.0465  0.3381
28694W        W46218   4.309  10.580  12.525  0.1383 -0.0968  0.2078
28695W        W46219   7.793   4.984  15.453  0.2035  0.0057 -0.2140
28696W        W46220   1.611  15.126   1.427 -0.2005  0.1153  0.3316
28697W        W46221  13.714   3.906   2.587  0.3499  0.0024  0.2153
28698W        W46222  10.493   1.542  10.578 -0.2348 -0.1839  0.0261
28699W        W46223  12.861  11.483  13.657  0.0709  0.0243 -0.1471
28700W        W46224   2.400   7.519   1.409 -0.1295  0.2200  0.1939
28701W        W46225   7.461  12.255   3.925 -0.2223 -0.1781  0.2239
28702W        W46226  10.220  11.755   4.397 -0.0955  0.0404  0.1128
28703W        W46227   0.968  14.269  13.230 -0.0072 -0.1969  0.3951
28704W        W46228   9.463   2.832  15.708  0.2236 -0.1330  0.1340
28705W        W46229   3.005   4.954  12.266  0.1415  0.2623 -0.0578
28706W        W46230   5.120  13.805   1.283 -0.0246 -0.1962 -0.0089
28707W        W46231   0.389  17.681   5.651  0.0717  0.0881 -0.0852
28708W        W46232  12.887   9.884   1.078  0.0718 -0.0962 -0.0446
28709W        W46233  11.770  15.955   4.512  0.2217  0.1650 -0.5282
28710W        W46234  10.592   8.623  15.662  0.0036  0.1487 -0.1727
28711W        W46235  11.666  15.338   0.852  0.1386  0.4031 -0.0272
28712W        W46236   9.060  13.859  13.138  0.2353 -0.1963 -0.0198
28713W        W46237  14.911   6.584   1.223  0.0622  0.0217  0.1626
28714W        W46238   8.264  10.469  14.332 -0.1274 -0.1315  0.0899
28715W        W46239  12.075  15.259  14.616  0.3681 -0.5428  0.0559
28716W        W46240  16.261  12.086  15.285  0.0179 -0.1335  0.1338
28717W        W46241   1.054  18.410  15.044  0.1481  0.0224  0.1907
28718W        W46242   6.427  12.952  11.930  0.3265  0.1200  0.0441
28719W        W46243   3.160  13.244   2.164 -0.1177  0.1337 -0.0003
28720W        W46244   7.064   1.148  12.482  0.0659  0.2974 -0.1260
28721W        W46245  13.940   8.111   3.812  0.0876  0.2812  0.1185
28722W        W46246  15.804   8.245   3.672  0.0570 -0.0510 -0.3423
28723W        W46247   9.143   5.105  11.531 -0.1559  0.0362  0.0464
28724W        W46248  15.711  14.073  11.397 -0.0361  0.0487 -0.3190
28725W        W46249  17.522   5.195  15.365  0.0041 -0.2304  0.1147
28726W        W46250  14.097  11.395   0.929  0.2975 -0.2242  0.0699
28727W        W46251  17.737   7.215  15.753  0.4201 -0.3624 -0.0139
28728W        W46252  13.968   6.477   4.732 -0.0089  0.1902  0.0943
28729W        W46253  11.709  12.043   2.058  0.0363  0.0899 -0.1257
28730W        W46254   4.502  15.446  11.540  0.0238  0.1334  0.1149
28731W        W46255   3.346  16.905  15.234 -0.3619 -0.0310  0.2615
28732W        W46256   1.746  16.607   4.022  0.0405 -0.2648  0.0107
28733W        W46257   1.561  16.264  12.539  0.1442 -0.2867  0.3662
28734W        W46258  17.889  17.748  15.038 -0.1432 -0.0246 -0.1014
28735W        W46259   1.935  13.542   2.697 -0.3394  0.2222 -0.1397
28736W        W46260  14.576   7.845  10.506 -0.0283  0.1775  0.2380
28737W        W46261  16.611   0.096  13.277 -0.0204  0.0023 -0.1207
28738W        W46262   1.018  13.903  12.557  0.0274  0.2751  0.0468
28739W        W46263   9.349  12.832  11.147 -0.1387 -0.2538  0.0913
28740W        W46264   9.418  15.846  14.111 -0.2455 -0.0466  0.3507
28741W        W46265   5.052  15.991   0.881 -0.3303 -0.0715 -0.0904
28742W        W46266   3.633   6.491   2.938  0.1863 -0.0897  0.2205
28743W        W46267  15.605   8.594  11.308 -0.0542  0.1278  0.0278
28744W        W46268   2.872  15.659  13.067 -0.1819 -0.0758 -0.2655
28745W        W46269   8.363  17.572  11.811 -0.1199 -0.1648  0.0626
28746W        W46270  15.295   3.962  15.329 -0.0474  0.2083 -0.0900
28747W        W46271   3.752   0.311   0.666  0.0219  0.1570  0.2399
28748W        W46272  14.578   5.989   0.026  0.0467 -0.5053  0.0107
28749W        W46273   0.387  16.934   2.906  0.0637 -0.0513 -0.0222
28750W        W46274  14.807  10.247   3.800  0.1202 -0.2074  0.1706
28751W        W46275   7.488   1.125  15.025 -0.1397 -0.0058  0.1186
28752W        W46276   5.288  15.435  13.969  0.1429  0.2096  0.0909
28753W        W46277   9.918  16.340  12.310  0.2941  0.2046  0.3099
28754W        W46278   6.926  16.056   3.450  0.2196 -0.0663 -0.2183
28755W        W46279   5.953  10.926  13.001 -0.0194  0.2769 -0.0797
28756W        W46280   3.303  13.961  14.691  0.3770 -0.2804 -0.1356
28757W        W46281   6.022   5.479  15.106  0.0589  0.2649 -0.0954
28758W        W46282   7.513   0.411   1.308 -0.3715 -0.3182  0.3249
28759W        W46283   3.462   2.175   4.514  0.1084 -0.1735  0.0345
28760W        W46284   2.630   4.544  12.458 -0.3135 -0.1624 -0.1036
28761W        W46285  13.589  13.840   0.299 -0.0580  0.1771  0.0821
28762W        W46286  10.151  13.851  14.669  0.0169  0.0106 -0.2191
28763W        W46287   9.181   4.394  12.515 -0.1716  0.0017  0.5061
28764W        W46288  11.205   1.661   3.441  0.0187  0.2026  0.1661
28765W        W46289   1.332  15.792   2.663 -0.1073 -0.1105  0.1010
28766W        W46290   9.383   3.924   1.364  0.3637  0.0953  0.0628
28767W        W46291  12.754   6.258  12.463 -0.0986  0.0085 -0.0629
28768W        W46292   5.921   3.583  13.887 -0.1581  0.0361  0.0536
28769W        W46293  10.204  17.210  14.365 -0.2478  0.0316  0.1005
28770W        W46294   7.933   9.525  12.190 -0.2529 -0.0678 -0.0816
28771W        W46295  13.614  13.298   2.826 -0.7590  0.1815 -0.1502
28772W        W46296  14.577  17.933   0.039 -0.1680  0.0644  0.0854
28773W        W46297  10.181   3.811  11.074  0.2620  0.2588  0.1304
28774W        W46298  14.579   6.012   2.181  0.1052 -0.2589 -0.2035
28775W        W46299  15.355  13.697   0.612 -0.2732  0.2107  0.3963
28776W        W46300   4.367   7.882  13.743 -0.1617 -0.3064  0.0032
28777W        W46301  11.923   8.280  11.857 -0.1762 -0.3103 -0.0116
28778W        W46302  13.671  18.166   3.992  0.2243  0.1540  0.0393
28779W        W46303  16.049  12.524   3.173 -0.2589 -0.0893 -0.2118
28780W        W46304  13.523   1.275   3.311 -0.1155  0.0294 -0.0291
28781W        W46305   5.413  16.664  14.227  0.2827  0.1182 -0.3514
28782W        W46306  14.216   0.873  11.274 -0.1776 -0.1003  0.1458
28783W        W46307   0.960  15.736  12.358 -0.1940 -0.0891 -0.1570
28784W        W46308  12.040   6.906  12.281  0.0477 -0.2291 -0.1493
28785W        W46309   3.597   1.904   0.210 -0.0977 -0.0586  0.0965
28786W        W46310  13.546  10.742   2.510 -0.2020  0.3910  0.1269
28787W        W46311   2.400  13.234  15.838  0.0926 -0.0062 -0.1842
28788W        W46312   0.562   4.568  13.832 -0.2033 -0.2300  0.0939
28789W        W46313  16.772  12.690   1.334 -0.2301  0.0852  0.0171
28790W        W46314   2.620   5.609  15.128 -0.1708 -0.1909  0.0451
28791W        W46315  15.131   4.229  14.951  0.0286  0.1017 -0.0174
28792W        W46316  11.739  12.478   3.298 -0.0459  0.0804  0.3030
28793W        W46317   4.165  15.489   1.211  0.2270 -0.0764 -0.0250
28794W        W46318   0.519  17.182  12.937  0.0170 -0.0032 -0.0593
28795W        W46319   0.349   0.753   2.057 -0.0579 -0.0390  0.2986
28796W        W46320   6.528  16.682   2.347 -0.1891 -0.1933  0.2964
28797W        W46321   7.815   8.991   1.035 -0.0157 -0.0161  0.2366
28798W        W46322  10.614   3.726   1.989 -0.1269 -0.1575  0.5526
28799W        W46323  12.269  15.417  11.983 -0.0713 -0.2691 -0.0099
28800W        W46324  12.840  17.741  13.713 -0.3192  0.1847  0.1084
28801W        W46325   9.667  15.359   6.253 -0.0868  0.1412 -0.1087
28802W        W46326   2.379  12.281  12.910 -0.1848  0.1225 -0.1025
28803W        W46327  12.925  14.272  11.635  0.2545  0.0030 -0.1841
28804W        W46328   4.458  12.297  15.640  0.1315  0.1314  0.2662
28805W        W46329   1.686  12.849   1.797  0.3183  0.0253  0.0922
28806W        W46330  13.376   3.110   0.203 -0.0043  0.0854 -0.0197
28807W        W46331   4.716  11.401   2.714 -0.2475  0.3141  0.0286
28808W        W46332  10.347  10.655   0.980 -0.2384  0.0419  0.0047
28809W        W46333   9.705   3.919  11.218  0.0137 -0.3833  0.1363
28810W        W46334   8.440   0.057   0.165  0.3266  0.4871 -0.1204
28811W        W46335  13.353  14.403   4.643 -0.2064 -0.0690 -0.0348
28812W        W46336   0.492   6.850  14.257  0.0216 -0.1837 -0.1290
28813W        W46337   8.897   9.448  10.751  0.1392 -0.0397 -0.1728
28814W        W46338  17.853  10.278  12.064  0.0416 -0.1098  0.2485
28815W        W46339  13.142  18.100  15.037  0.1387  0.2776  0.0111
28816W        W46340   8.436  12.368  13.622  0.4058 -0.0552  0.1155
28817W        W46341  16.302   3.157  14.327  0.0032  0.1542 -0.0700
28818W        W46342   7.614  16.301  13.484  0.2256  0.1593 -0.3413
28819W        W46343   2.962  14.624  13.194  0.3431 -0.0001 -0.0316
28820W        W46344  11.807   9.314   3.986  0.1942  0.2194  0.2184
28821W        W46345  15.383   4.923  13.686  0.2829  0.2891 -0.1288
28822W        W46346   8.842  11.433  11.376  0.0214 -0.0188 -0.1207
28823W        W46347  15.091  15.672   0.053 -0.2247  0.2800  0.2767
28824W        W46348   5.784  13.445  11.405 -0.0696  0.1470  0.2345
28825W        W46349  12.741   7.361   0.469 -0.0864 -0.0370  0.2585
28826W        W46350  10.257  10.979   5.877  0.0913  0.0718 -0.1222
28827W        W46351  15.524   9.336  12.530  0.1414 -0.2658 -0.0365
28828W        W46352  10.867   3.883  13.921  0.4978 -0.2705  0.0345
28829W        W46353   3.443  16.218   0.078 -0.1698  0.0343  0.0291
28830W        W46354  15.581   9.929   2.661  0.2196 -0.3910 -0.0442
28831W        W46355   9.415   0.420  11.776 -0.1418  0.3244  0.2775
28832W        W46356  10.254   5.868   1.647 -0.2057  0.1806  0.0473
28833W        W46357  15.780  13.013  13.787  0.2770 -0.1809  0.1857
28834W        W46358   5.038  13.433  15.034  0.1550 -0.2665  0.0257
28835W        W46359  12.269  10.993   1.481 -0.3204 -0.2379 -0.0683
28836W        W46360  14.390   8.049   0.870  0.0893  0.2878  0.3375
28837W        W46361  14.036   0.948   2.249  0.1101  0.1916 -0.1425
28838W        W46362  11.777   0.139  14.468 -0.2788  0.1437 -0.0553
28839W        W46363   7.740  18.174   2.995 -0.2246 -0.1209 -0.4257
28840W        W46364   2.843  14.968  11.280 -0.0424  0.1059  0.2342
28841W        W46365   1.268   6.155   1.631  0.1030 -0.2626  0.2050
28842W        W46366   6.085   5.243  12.784  0.0053  0.2392  0.1074
28843W        W46367   3.379   4.693  11.144  0.0628 -0.1897 -0.2912
28844W        W46368   6.917  13.995  14.444 -0.0572 -0.0126 -0.3364
28845W        W46369  13.534  11.533  14.066 -0.2671  0.1102  0.2034
28846W        W46370   4.287   5.507  11.891  0.3469  0.1729 -0.3254
28847W        W46371   5.331  17.400   1.667 -0.2652 -0.0881  0.3033
28848W        W46372  17.095   1.215  15.109 -0.1116  0.1792  0.0208
28849W        W46373   1.049   2.810   3.719  0.2891 -0.2094 -0.2259
28850W        W46374  18.236  12.015   3.116 -0.2843  0.0389  0.0937
28851W        W46375  10.204   6.751  15.389  0.2118  0.0494  0.1430
28852W        W46376  16.607  11.559   5.137 -0.2491  0.1354 -0.1130
28853W        W46377  13.740   9.756   4.819  0.0295  0.3159  0.1084
28854W        W46378   0.033   0.868   4.750 -0.2959  0.0671 -0.1109
28855W        W46379  15.731  18.091   1.160 -0.0973 -0.1343 -0.0184
28856W        W46380   2.642  14.400   1.817 -0.0588  0.1490 -0.0173
28857W        W46381   9.059   5.562   1.607  0.3483 -0.1118  0.3286
28858W        W46382   0.160   9.962   1.631  0.2004  0.1529  0.4840
28859W        W46383   9.398   5.545   4.507 -0.0758 -0.1157  0.1525
28860W        W46384   6.062   2.417   0.085 -0.1443 -0.2074  0.0913
28861W        W46385  16.395   3.388  15.121 -0.1060 -0.3335 -0.0634
28862W        W46386  16.068  10.593   4.983 -0.3250 -0.1000  0.0483
28863W        W46387  10.771   4.874  15.454 -0.2311 -0.1809 -0.3116
28864W        W46388  15.183  16.153  12.444 -0.0495  0.2574  0.0340
28865W        W46389   8.627  11.601   2.957 -0.0636 -0.2685 -0.0457
28866W        W46390   7.079  11.595   1.030  0.1664  0.1593 -0.0975
28867W        W46391  10.857  15.559  15.776  0.2169 -0.0254  0.0399
28868W        W46392  17.351   1.831  11.182 -0.2665  0.0907 -0.0763
28869W        W46393  14.510   3.079   3.525 -0.3710 -0.3112 -0.2701
28870W        W46394   3.487  17.758  15.260 -0.0139 -0.0258 -0.2438
28871W        W46395   4.465  14.105  11.930 -0.2027  0.0442 -0.1253
28872W        W46396   1.994  14.233   2.909  0.0151  0.0318  0.1650
28873W        W46397  17.778  17.626   4.491  0.0073 -0.3385  0.0050
28874W        W46398   2.669   9.392   0.987 -0.0235  0.1818  0.3948
28875W        W46399  12.199  12.483  11.640 -0.3606 -0.0500 -0.0412
28876W        W46400  11.251  12.543   4.887  0.0750 -0.0520 -0.1836
28877W        W46401   0.531   1.702  15.596  0.1360 -0.1563 -0.2105
28878W        W46402   5.951  13.525   1.411 -0.0294  0.0043 -0.3817
28879W        W46403   8.338   5.473  14.844 -0.1641  0.0162  0.3318
28880W        W46404  13.197  12.368  15.805 -0.1596 -0.1666  0.0767
28881W        W46405   7.208   5.577   2.866 -0.1840  0.2199  0.0069
28882W        W46406   5.693   5.943  11.205  0.1970  0.0626  0.0011
28883W        W46407  13.005   7.751  12.603  0.3821 -0.0111  0.3249
28884W        W46408  10.980   6.049   5.753 -0.3628 -0.2626  0.4717
28885W        W46409   0.345  14.745  13.576 -0.0551  0.0143  0.0531
28886W        W46410   2.926  12.965  12.135  0.0718  0.0083  0.0374
28887W        W46411  12.573  13.032  14.273 -0.1693  0.2697 -0.1682
28888W        W46412   2.782   9.045   1.817 -0.0922 -0.3906  0.0401
28889W        W46413  13.249   9.976  15.854 -0.3808 -0.2430  0.1775
28890W        W46414  11.451   1.338   4.145 -0.2593 -0.1509  0.0586
28891W        W46415  14.131   3.351  11.249 -0.0600 -0.3109 -0.3349
28892W        W46416   1.461  17.595   3.547 -0.0665  0.0837 -0.0753
28893W        W46417   7.259  13.857   1.595  0.2384  0.0709  0.0277
28894W        W46418  12.522   5.903  13.802  0.0154  0.1480 -0.3056
28895W        W46419   4.394  16.378   4.210 -0.0326 -0.2595  0.0801
28896W        W46420  17.207  10.338  10.988  0.2019  0.0001  0.0300
28897W        W46421  14.394  15.672  11.247  0.0450 -0.2369 -0.1173
28898W        W46422  14.251   0.983  13.596  0.4874  0.0481 -0.2679
28899W        W46423   1.519   1.022  11.272 -0.0310  0.0215 -0.0134
28900W        W46424  12.577  11.592   4.332  0.1965  0.1864  0.1704
28901W        W46425   4.946  18.165   1.234 -0.0667 -0.0131 -0.1821
28902W        W46426   2.577  11.649   1.031  0.1963 -0.1707  0.1586
28903W        W46427  11.842  13.531   0.748  0.4378 -0.0919 -0.2309
28904W        W46428  15.582  10.047   2.022 -0.3010 -0.1788  0.1158
28905W        W46429  10.976   0.409   1.749  0.2162  0.2379 -0.1122
28906W        W46430  17.137  16.730  11.379  0.0150 -0.1463 -0.4057
28907W        W46431  16.402   4.650   4.258 -0.2916 -0.1453 -0.2484
28908W        W46432  17.820  14.301  14.511  0.3557 -0.3150 -0.1578
28909W        W46433   3.797  13.391  12.400 -0.0594  0.3124 -0.2978
28910W        W46434   5.256  13.495   2.024  0.1907  0.0186  0.0654
28911W        W46435   6.116  18.203  13.483  0.0134  0.0292 -0.0045
28912W        W46436   2.943  10.816  14.427 -0.3326  0.2238 -0.0605
28913W        W46437   2.284   0.666   1.342  0.0753 -0.0486 -0.3827
28914W        W46438  15.818   1.316   0.939 -0.1517  0.0197  0.0435
28915W        W46439   5.624  14.538   0.974 -0.0355  0.0196 -0.0688
28916W        W46440  15.892  11.886  13.579 -0.1099  0.1271  0.1328
28917W        W46441   7.016  17.198  13.446 -0.0462 -0.0077 -0.1750
28918W        W46442   1.016   1.796   2.128  0.1541 -0.2350 -0.0177
28919W        W46443   6.917   5.477   5.605 -0.0538  0.1513  0.0188
28920W        W46444   4.855  10.397  11.572 -0.2418  0.1480  0.0569
28921W        W46445   4.600  15.840   1.721 -0.1707  0.2983 -0.0824
28922W        W46446   8.379  11.997   0.857 -0.0750 -0.2487  0.2130
28923W        W46447   5.351   4.243  12.064  0.0865 -0.3271  0.1882
28924W        W46448   2.210  17.541  13.255 -0.0381  0.3847 -0.0131
28925W        W46449   0.734   9.204  11.298  0.3177 -0.1304  0.0795
28926W        W46450   9.269   1.955   3.549 -0.1051  0.0188  0.2211
28927W        W46451  15.307  14.869  11.634  0.1413 -0.0117 -0.1825
28928W        W46452   1.899  13.609  10.872  0.0403 -0.0524 -0.0455
28929W        W46453  14.202  16.098  12.440 -0.0181 -0.2097  0.1607
28930W        W46454   4.083  13.086  12.762  0.0255 -0.0970  0.3097
28931W        W46455   6.423  14.380  13.358  0.0038  0.0045 -0.0236
28932W        W46456   2.424   3.452   1.506  0.6676  0.2309 -0.3144
28933W        W46457  13.610   2.706   5.076 -0.0017 -0.0912  0.0737
28934W        W46458   6.521  13.553  15.612  0.2778 -0.0910 -0.0193
28935W        W46459   1.378   3.423   3.019 -0.0897  0.0695  0.0017
28936W        W46460   3.253  12.156   3.451  0.3867 -0.2544 -0.2604
28937W        W46461   1.255   3.084   1.825 -0.0949  0.1562 -0.2185
28938W        W46462   9.413   5.602   3.548  0.0150  0.1562 -0.2916
28939W        W46463   4.786   6.847  13.287 -0.2326 -0.1181  0.1445
28940W        W46464   4.460  17.454   0.880 -0.0920  0.1031 -0.1010
28941W        W46465   5.521   7.988   0.430  0.0957  0.0156  0.0394
28942W        W46466  10.388   6.854  13.194 -0.1395  0.0061  0.0791
28943W        W46467  16.502   6.449  15.037  0.0991  0.1155  0.1216
28944W        W46468   3.895  10.927   2.297 -0.1319 -0.1487  0.0475
28945W        W46469   4.327  13.449   0.314  0.0315  0.0230  0.1898
28946W        W46470   3.366   3.395   2.942  0.2728  0.1997 -0.4120
28947W        W46471   4.066  14.563   3.713 -0.1544  0.1613  0.2811
28948W        W46472   0.676   4.532   3.511 -0.2231  0.0343  0.4072
28949W        W46473   2.825  14.531   4.751  0.0125  0.2590  0.1930
28950W        W46474   9.365  16.652   4.171 -0.3803 -0.1071 -0.1580
28951W        W46475  16.710  15.861   1.348 -0.2980 -0.0441  0.1699
28952W        W46476  17.973  14.335  12.242 -0.0010  0.0668 -0.1464
28953W        W46477  12.503   4.105  12.778  0.0482  0.1627 -0.3481
28954W        W46478  12.441   0.629  15.831 -0.0422 -0.0944 -0.0389
28955W        W46479   2.548   5.651   2.938 -0.0653  0.0603  0.0729
28956W        W46480  17.071   4.468   1.856  0.3008 -0.0440 -0.0874
28957W        W46481   6.694   1.011   1.359  0.1335 -0.2638  0.3613
28958W        W46482  17.313   6.404   0.968 -0.0140 -0.2320  0.0055
28959W        W46483   3.903   7.514  15.252 -0.3529 -0.1413  0.0420
28960W        W46484   3.345  10.164  12.849  0.0800  0.0169 -0.2103
28961W        W46485   5.420  15.110  11.774 -0.0720 -0.2007  0.0773
28962W        W46486   9.246   5.688  14.288  0.2303 -0.1076  0.0664
28963W        W46487   3.888   7.475  11.530  0.1594 -0.2380 -0.1949
28964W        W46488  16.097   8.209   1.374  0.1132 -0.3279  0.1879
28965W        W46489   6.197  14.878  15.181 -0.0824  0.0704  0.2203
28966W        W46490   3.425   9.943   4.899  0.0219  0.2085  0.2195
28967W        W46491   9.850   9.341   4.152  0.0943 -0.2118  0.2793
28968W        W46492  13.890  16.941  15.380 -0.1800 -0.0116 -0.2869
28969W        W46493   5.740   7.573  13.405 -0.2854 -0.0928 -0.0446
28970W        W46494   6.094   9.563   0.872  0.1535  0.0120 -0.1240
28971W        W46495  13.622   8.455   4.182  0.2318  0.4374 -0.0780
28972W        W46496   2.076  15.417   3.919  0.0502 -0.1872  0.1419
28973W        W46497   9.770   0.528  13.580  0.2471  0.1270 -0.0724
28974W        W46498  10.969  10.763  12.392 -0.1030  0.4171  0.2395
28975W        W46499   4.449  11.767   3.033 -0.1599  0.0423  0.1786
28976W        W46500  12.724   5.793  11.656  0.0836 -0.0312  0.0810
28977W        W46501   2.630   2.479  15.170 -0.1918 -0.0063 -0.2500
28978W        W46502   4.431   2.206   2.977 -0.0946 -0.1422 -0.0293
28979W        W46503  17.396   5.346  14.869  0.0644  0.0385  0.0976
28980W        W46504   7.690  12.502  11.827 -0.3196 -0.0271  0.0545
28981W        W46505   7.456   1.172   3.521 -0.0873 -0.0157  0.2665
28982W        W46506   4.265   2.982   5.536  0.4210 -0.0385 -0.0848
28983W        W46507  13.169   3.073   2.700  0.2957 -0.2061  0.1017
28984W        W46508  18.102   6.437  10.399  0.0390 -0.1374  0.0895
28985W        W46509  12.229   2.189  11.985  0.1313  0.7299  0.3577
28986W        W46510  15.884  12.413  13.475 -0.4180 -0.0846 -0.1208
28987W        W46511  17.750  15.354  15.407 -0.1315 -0.0590 -0.2446
28988W        W46512  14.319   4.184  11.408  0.0213 -0.1609 -0.0814
28989W        W46513  10.770  11.789  11.006  0.3316  0.1753 -0.0311
28990W        W46514   6.756   4.512   2.310 -0.0817 -0.2377  0.0987
28991W        W46515  18.309   2.166   0.618  0.0338 -0.0364 -0.0166
28992W        W46516  11.261  16.877  14.632  0.0599  0.3349 -0.0718
28993W        W46517   1.039  11.550  15.243 -0.3328 -0.1106 -0.1105
28994W        W46518  15.538  15.813  11.664  0.3312 -0.0934  0.1269
28995W        W46519  15.842  17.497   4.131  0.0872 -0.2111 -0.1697
28996W        W46520   1.742  17.306   0.539 -0.1876 -0.0748  0.0780
28997W        W46521  11.988  11.007   4.736  0.2930 -0.2827  0.4832
28998W        W46522  15.741   6.009  15.246 -0.1382  0.1172  0.0017
28999W        W46523  15.538   0.457   4.992 -0.4564 -0.0607 -0.0550
29000W        W46524  17.766   8.792   1.069 -0.1611 -0.1823  0.1993
29001W        W46525   5.624  16.613   0.424  0.0297 -0.0153  0.1291
29002W        W46526   5.919  13.290  15.534  0.4073  0.3130  0.1177
29003W        W46527  10.239  13.216  14.053 -0.1331  0.0262  0.1405
29004W        W46528  10.229   4.814   3.659  0.3878  0.2975 -0.0315
29005W        W46529   9.792   3.045  12.641 -0.0791  0.1382 -0.2035
29006W        W46530  10.417   3.294  14.732  0.0466  0.0097 -0.0078
29007W        W46531   0.797  14.777  11.945 -0.0935 -0.0159  0.2881
29008W        W46532   6.994   6.416   1.017  0.0450  0.2700 -0.2758
29009W        W46533   6.936  10.819  15.101  0.4224 -0.1835  0.0758
29010W        W46534  14.683  17.471   0.781  0.3403  0.0454  0.1270
29011W        W46535  13.271   3.779  12.720 -0.0314 -0.1007  0.1168
29012W        W46536   9.540  16.772  15.520 -0.2642  0.2116 -0.2137
29013W        W46537  12.231   5.223   3.728  0.2464  0.0155 -0.1415
29014W        W46538  11.555  14.682  12.094  0.0971 -0.3320  0.0204
29015W        W46539   5.418  10.156   2.983  0.0346 -0.1912  0.1109
29016W        W46540   4.579  17.222   3.426  0.0231  0.3871 -0.0977
29017W        W46541   9.901  14.458  13.492 -0.0632  0.3401 -0.1635
29018W        W46542   5.544   1.846   4.775 -0.1181  0.0518 -0.3179
29019W        W46543   3.787  15.880   1.049 -0.0449  0.0642 -0.1789
29020W        W46544  13.850   4.279   0.355  0.1669 -0.0802 -0.0923
29021W        W46545  15.576  12.518   3.396  0.3112  0.1587 -0.2856
29022W        W46546   5.568   9.578   0.867 -0.0039 -0.0922 -0.1198
29023W        W46547   2.795   7.456   0.396  0.1591  0.2688  0.0501
29024W        W46548   4.719  12.945   1.507 -0.1529  0.2663 -0.0189
29025W        W46549   6.105  13.831   2.251 -0.0630  0.1394 -0.0202
29026W        W46550  16.068   5.835  14.362 -0.0236 -0.2663 -0.1369
29027W        W46551  16.897  16.372   1.108 -0.1484 -0.1334 -0.1159
29028W        W46552   9.230   5.096   3.491  0.2823  0.3550 -0.1438
29029W        W46553   2.626   2.712  11.995  0.1296  0.0305 -0.0362
29030W        W46554  10.102   6.876   2.704 -0.0358 -0.0913  0.1860
29031W        W46555   6.409   8.618  11.233  0.0304  0.1162 -0.1381
29032W        W46556   1.866   9.039   3.648 -0.1566  0.0228 -0.1783
29033W        W46557  13.177  13.222  11.945  0.1111 -0.2533 -0.2246
29034W        W46558  13.947  10.674   1.464  0.2026 -0.1946 -0.3950
29035W        W46559   0.074  12.497   5.747  0.1376  0.1273  0.1221
29036W        W46560  14.912   6.366   2.180 -0.3425 -0.0597  0.1690
29037W        W46561   2.033  18.249   3.783 -0.1192  0.1599  0.0960
29038W        W46562   9.685  14.741   5.018  0.1019 -0.0401 -0.0991
29039W        W46563  10.852   4.808  14.092 -0.0278  0.2529  0.1494
29040W        W46564   9.228   8.668  15.403  0.0154 -0.1095  0.0596
29041W        W46565   9.823  15.584  11.570 -0.1181  0.2575 -0.1285
29042W        W46566  17.462   9.365   5.026 -0.0220  0.0516 -0.1084
29043W        W46567   2.190   4.278  15.530 -0.0151 -0.4743 -0.0806
29044W        W46568  16.468   7.841   1.249  0.2342 -0.3702  0.2414
29045W        W46569   8.228   9.674   4.665 -0.0273 -0.1185  0.2053
29046W        W46570  17.888   5.308  15.031  0.3032  0.0520 -0.1001
29047W        W46571   7.411  15.188   5.020 -0.0980  0.0133  0.0042
29048W        W46572   9.988  16.446  11.784  0.1278  0.0589 -0.0930
29049W        W46573   2.383  16.404  12.017  0.0979 -0.0447  0.1648
29050W        W46574   1.416   5.640   1.291 -0.3613 -0.2153  0.2419
29051W        W46575  17.539  12.272  15.637 -0.0032 -0.1189 -0.0985
29052W        W46576   3.748  10.573  15.271 -0.0611 -0.2966 -0.0428
29053W        W46577  10.334   4.813   0.837 -0.0749 -0.0147 -0.0597
29054W        W46578  16.564   0.613  14.385  0.1627  0.0522  0.0010
29055W        W46579  17.725  14.867  15.639 -0.0686 -0.2124 -0.0815
29056W        W46580  16.013   9.699  11.312  0.1368 -0.0601 -0.0843
29057W        W46581  13.064   7.062  13.374 -0.3047 -0.0832  0.0179
29058W        W46582  14.642   2.967   0.543  0.0722  0.0262  0.2477
29059W        W46583  10.822   5.658   1.918 -0.4857  0.1029  0.1217
29060W        W46584   5.345   3.667   0.665  0.0103  0.0860 -0.0833
29061W        W46585   2.816  11.614  15.239  0.3037 -0.2223  0.1762
29062W        W46586   5.973  10.793   1.676 -0.1068  0.0097 -0.2569
29063W        W46587   0.997   6.887  12.508 -0.0138  0.1120 -0.1789
29064W        W46588   3.723  15.342   3.384 -0.0221 -0.4381  0.2686
29065W        W46589   6.604   9.186  14.907 -0.2946 -0.0439 -0.0811
29066W        W46590   2.296  10.712  12.571 -0.2720  0.0675 -0.1971
29067W        W46591   9.234   5.360  12.043  0.2013 -0.1116 -0.0074
29068W        W46592   7.947   0.470  13.239 -0.1978 -0.3895  0.0134
29069W        W46593   1.750  18.278   3.257  0.0263  0.0652 -0.2276
29070W        W46594   6.502  15.891  12.764 -0.3259  0.1224 -0.1469
29071W        W46595   0.294  18.258   2.353  0.2560 -0.1134 -0.2566
29072W        W46596   2.054  13.140  14.899 -0.1230  0.3841 -0.1085
29073W        W46597   1.620   8.971  11.100 -0.0780 -0.2778 -0.2869
29074W        W46598   0.808   8.523   1.013  0.2609 -0.0009  0.0955
29075W        W46599   2.692   0.738  12.701  0.3103 -0.1450 -0.0822
29076W        W46600   0.658  15.199   4.357  0.5140  0.1244  0.2092
29077W        W46601  12.945   5.348  11.591 -0.0705 -0.3768  0.1249
29078W        W46602   7.478  15.165  12.469 -0.0110  0.2073 -0.1398
29079W        W46603  13.954  12.597   3.105  0.0430 -0.1178 -0.0813
29080W        W46604   4.289  11.308   5.263 -0.3963  0.2155  0.3941
29081W        W46605  11.773   0.749  15.842  0.0437  0.0645  0.0539
29082W        W46606  13.084  10.738  13.657 -0.2403 -0.0554  0.0536
29083W        W46607   8.802   8.758  15.717 -0.1575 -0.2162  0.1929
29084W        W46608  12.117   6.398   2.108 -0.2132  0.0016  0.0513
29085W        W46609  12.960  14.787  14.466 -0.2176 -0.0749 -0.2089
29086W        W46610  14.572  11.156   0.709 -0.0154 -0.0754  0.2495
29087W        W46611  15.478   4.070  13.581  0.3288 -0.1491 -0.2626
29088W        W46612   3.321  15.338   0.692  0.0750 -0.3440  0.0932
29089W        W46613   2.860   9.990   2.214  0.1146  0.2995 -0.0387
29090W        W46614  13.712  17.550  11.537 -0.0551 -0.3141 -0.1834
29091W        W46615  15.973  10.516  11.416  0.1976  0.1206  0.3576
29092W        W46616   6.453   6.222  15.076  0.0162 -0.2167 -0.1628
29093W        W46617   8.361   2.990  14.749  0.1506  0.3308  0.2467
29094W        W46618  17.207  14.724  11.827  0.1291 -0.1511  0.2275
29095W        W46619   6.981  17.275   1.917 -0.1911 -0.0832  0.1303
29096W        W46620   3.721   4.892   3.093  0.0759 -0.0283  0.0871
29097W        W46621   1.110   6.898  15.433  0.0764 -0.2578 -0.0400
29098W        W46622  13.861   9.439   2.043 -0.1553  0.1584  0.2128
29099W        W46623   5.290   4.800   4.439 -0.0169  0.1137  0.1004
29100W        W46624   8.710  14.204   5.767 -0.0748  0.3265 -0.2456
29101W        W46625   8.407  16.969   1.276 -0.1696 -0.2047 -0.3697
29102W        W46626  12.859  13.335   1.874 -0.1883  0.0265  0.3090
29103W        W46627   9.277  10.100   2.039  0.0859 -0.0945  0.1370
29104W        W46628   1.199   8.532   2.235 -0.0721 -0.1218  0.1653
29105W        W46629   0.044   1.954  12.541 -0.1097  0.4227 -0.1793
29106W        W46630  15.479   2.521   5.884 -0.2247  0.1403 -0.1813
29107W        W46631  13.601   3.130   3.256  0.1654  0.0390  0.0760
29108W        W46632   2.947  10.114   0.852  0.2646 -0.3142  0.2976
29109W        W46633  11.067   5.149   3.698  0.1766 -0.0600  0.0219
29110W        W46634   7.779   8.425   5.430 -0.0269  0.1117  0.1154
29111W        W46635   2.188   6.056   2.832 -0.1135  0.3593 -0.2830
29112W        W46636   2.299  13.207   4.334 -0.2201  0.0392  0.0696
29113W        W46637  10.299   3.100  12.503  0.0155  0.1499  0.3621
29114W        W46638   9.305  12.349  12.496  0.1418 -0.0516 -0.2652
29115W        W46639   8.886   7.205   4.629  0.3664  0.1879  0.1088
29116W        W46640   1.044   7.495   1.254  0.1829 -0.0448  0.1472
29117W        W46641  16.364   6.658  12.634 -0.1972 -0.0058  0.1737
29118W        W46642   8.815  16.834   4.854  0.0678  0.2005 -0.3724
29119W        W46643   0.095   6.309   1.326 -0.0346 -0.0623  0.0387
29120W        W46644   7.712   5.927   5.601 -0.0108  0.2899 -0.0185
29121W        W46645  12.345  18.117  13.645 -0.1815  0.1161 -0.1573
29122W        W46646  10.689   1.498   4.157  0.2750 -0.0435  0.3301
29123W        W46647  13.664  13.520   0.719 -0.1346 -0.0805  0.0462
29124W        W46648  17.775   3.940   2.923  0.2852 -0.2128  0.2271
29125W        W46649   1.607  12.167  12.288  0.0454 -0.0617 -0.0960
29126W        W46650   7.817   4.959  13.190  0.3184 -0.4300 -0.2392
29127W        W46651   0.531  18.207  15.182  0.0583 -0.1143 -0.1788
29128W        W46652   0.978  17.601   4.449 -0.3273  0.2484 -0.1881
29129W        W46653  14.220  14.273   1.792 -0.0995  0.0884  0.0198
29130W        W46654  12.142   9.822   0.598 -0.1562  0.2578  0.3492
29131W        W46655   8.330  13.688  12.636  0.0241  0.2162 -0.3770
29132W        W46656  13.601   8.152  15.476 -0.2350 -0.0197 -0.1086
29133W        W46657  14.352   4.779  10.259  0.0236  0.2960 -0.1351
29134W        W46658   1.484   9.520  12.755  0.2289  0.0128  0.1288
29135W        W46659   8.269   7.900  10.396 -0.3045  0.7922 -0.1383
29136W        W46660  16.074   2.662  11.987 -0.2575  0.1707  0.1840
29137W        W46661  14.207   3.064  12.099  0.1551 -0.0219 -0.0017
29138W        W46662  15.942  17.419  10.209 -0.0860 -0.1161  0.3509
29139W        W46663   9.853   4.859   0.710  0.0871 -0.0291 -0.2244
29140W        W46664   3.544   2.000   3.869  0.0108 -0.0431  0.0368
29141W        W46665   4.622   8.611   1.846  0.2296 -0.0509  0.0492
29142W        W46666  17.812   8.071  15.771 -0.3885 -0.2324  0.1037
29143W        W46667   1.280  17.689  13.611  0.2892  0.1067 -0.1866
29144W        W46668   8.727   0.612   3.580  0.0831  0.4134  0.0151
29145W        W46669  17.377  11.167   0.231  0.2000  0.2340 -0.1254
29146W        W46670   4.143   4.812   3.379 -0.0984 -0.3358 -0.0176
29147W        W46671  12.986   6.443   4.437  0.1229 -0.2785 -0.1898
29148W        W46672  11.335   1.117   5.332  0.2428 -0.0954  0.4283
29149W        W46673  11.615  10.727  15.848  0.1103  0.0318 -0.1325
29150W        W46674   9.034  10.593   4.108  0.0317 -0.0049  0.2249
29151W        W46675   8.479  14.546   1.381  0.1735  0.0824  0.0187
29152W        W46676   9.457   9.152   1.180 -0.5134 -0.3244 -0.1231
29153W        W46677   3.085  18.077  14.284 -0.0285 -0.1086 -0.1138
29154W        W46678   3.121  15.692   2.549 -0.0558  0.0198  0.3577
29155W        W46679  13.357   4.136  14.674  0.2143  0.0412 -0.0863
29156W        W46680   2.277   3.216   3.371 -0.0346 -0.0384 -0.0773
29157W        W46681   2.791   9.804   1.213 -0.2293  0.1242 -0.2416
29158W        W46682  11.867  16.882   1.911  0.2684  0.0632 -0.1264
29159W        W46683  17.801   3.424  13.886 -0.3584  0.0272 -0.2536
29160W        W46684   4.247  16.393   2.315 -0.0664  0.0049 -0.0516
29161W        W46685  14.742   1.017  14.686  0.3236 -0.2411  0.1377
29162W        W46686  12.076   4.953  14.965  0.1113  0.0800 -0.0890
29163W        W46687  16.803   5.800   4.518  0.0370 -0.2323 -0.0402
29164W        W46688  13.479   8.097   2.321  0.0164  0.0375  0.1582
29165W        W46689   8.911  12.082  15.664  0.3587 -0.0616 -0.1474
29166W        W46690  16.773   4.824  14.103 -0.1608 -0.0158  0.0730
29167W        W46691   7.965  11.100   1.223  0.0498 -0.2839  0.3420
29168W        W46692   3.765   0.163  13.311  0.1539 -0.1490  0.0178
29169W        W46693   9.056  14.449   3.534  0.2775 -0.1423 -0.2779
29170W        W46694  18.363  13.980  14.615 -0.1162  0.0525 -0.2027
29171W        W46695  11.296  10.727   1.175  0.1598 -0.0430  0.0738
29172W        W46696  16.885   1.735   4.301  0.2079  0.1919  0.1462
29173W        W46697   5.898  14.123   1.911 -0.1711  0.2050  0.2751
29174W        W46698   7.628   6.922   4.063 -0.1502  0.1485  0.0911
29175W        W46699  11.856   2.528  15.509 -0.2192  0.0458 -0.0258
29176W        W46700  11.046  17.547  13.468  0.4620  0.2786  0.3257
29177W        W46701   9.392   1.554   1.478 -0.1669 -0.0376  0.0092
29178W        W46702  16.455  11.942   0.424 -0.0887 -0.1447  0.1926
29179W        W46703   1.809  13.274   4.143  0.0281 -0.0681 -0.0271
29180W        W46704   7.787  10.686  13.080 -0.0743 -0.2127 -0.1042
29181W        W46705  10.399  10.726  15.444 -0.0936  0.1457 -0.0996
29182W        W46706  17.714   1.687  10.901 -0.1532  0.1504  0.2958
29183W        W46707   8.841  18.198   3.971 -0.2246  0.1587  0.1611
29184W        W46708   0.581   2.226   4.628  0.0487  0.4212 -0.0985
29185W        W46709   2.774  13.196  11.205 -0.3208  0.0563  0.0370
29186W        W46710   6.418  10.074   1.465 -0.0371  0.0089  0.1762
29187W        W46711  13.652   1.739   2.026 -0.4001  0.1653  0.5158
29188W        W46712   0.651  14.235  12.685  0.0041  0.0509 -0.1777
29189W        W46713  16.824  12.282  12.454 -0.1269  0.0698  0.3025
29190W        W46714   1.777  12.672  11.002 -0.1796  0.0220 -0.0335
29191W        W46715  15.367   9.438   2.954  0.3151 -0.1117 -0.2018
29192W        W46716   6.380   4.459   4.520  0.0378 -0.2506 -0.0352
29193W        W46717  13.004   1.185  11.208  0.0785 -0.0160  0.1723
29194W        W46718  13.130  16.732   5.396  0.1264  0.1775  0.1131
29195W        W46719   5.943  13.910  11.201 -0.0604  0.2263 -0.4720
29196W        W46720  17.043  15.006  13.214 -0.0215  0.0519 -0.2283
29197W        W46721   6.349  10.495   2.683  0.2934  0.1327 -0.0455
29198W        W46722   6.278   5.895  14.000 -0.2608  0.3166  0.1946
29199W        W46723  11.688  10.639  11.903  0.1020 -0.0460  0.5193
29200W        W46724  18.026   0.416   2.651  0.1675 -0.0291  0.0525
29201W        W46725  14.715  16.937   4.537 -0.0429  0.0391 -0.1543
29202W        W46726   0.414  16.046   1.633  0.2053 -0.0494 -0.0674
29203W        W46727  11.618   6.572   2.884  0.2126 -0.1160  0.2025
29204W        W46728  10.281  16.871   4.816  0.1240  0.1663  0.4334
29205W        W46729   5.026   0.074  12.805  0.1459 -0.0893  0.2459
29206W        W46730  17.730   3.652  14.736 -0.0091 -0.0777  0.3153
29207W        W46731  10.956  12.904  15.168 -0.0540  0.2739  0.1518
29208W        W46732   2.931  12.499   5.175 -0.0679  0.2313  0.1349
29209W        W46733  10.725   3.528   3.131  0.1869 -0.0795 -0.0131
29210W        W46734  10.531   2.459   1.144  0.3508  0.0905  0.1084
29211W        W46735   3.785  14.554   2.163  0.0517 -0.0801  0.0538
29212W        W46736   5.348   0.981   4.589  0.0066 -0.1610 -0.3645
29213W        W46737   2.304  10.743   0.784 -0.1939 -0.0611  0.0232
29214W        W46738  14.313   5.245  14.188 -0.0932 -0.1435 -0.2706
29215W        W46739   6.480  17.393   1.637 -0.2826  0.0164 -0.2651
29216W        W46740   4.539   4.177   2.816  0.1128  0.1690  0.0862
29217W        W46741  14.757   1.131   5.840 -0.0748 -0.0520  0.2187
29218W        W46742   8.566   3.065  10.972  0.0358 -0.2579  0.1053
29219W        W46743   0.361  10.496  11.559  0.0452  0.0631 -0.3589
29220W        W46744  14.164   5.164  12.046  0.3530  0.0359 -0.0589
29221W        W46745  10.411  16.208  13.408  0.0297  0.0721 -0.2067
29222W        W46746  18.372  11.367  14.278  0.0619  0.0088  0.0183
29223W        W46747  11.023  15.172  11.933 -0.1280  0.2347 -0.0739
29224W        W46748  14.346   6.364  11.211  0.1290 -0.2162 -0.0580
29225W        W46749  14.887   2.906   3.041 -0.0856  0.3080  0.1832
29226W        W46750   9.317   8.490   3.995  0.1143 -0.0143 -0.2948
29227W        W46751   8.110  11.635  13.205  0.0113  0.1110 -0.1191
29228W        W46752   7.452  13.890   4.893  0.1753  0.1886  0.0353
29229W        W46753  16.819   2.700  11.110 -0.0941 -0.1963 -0.3777
29230W        W46754   5.742   0.221   4.434 -0.2196 -0.3784 -0.1437
29231W        W46755  14.237   3.841   1.411  0.1221 -0.1058 -0.2214
29232W        W46756   8.088   2.519   2.395  0.2037 -0.3014  0.0266
29233W        W46757  18.181  13.661   4.374  0.4793  0.1300 -0.4441
29234W        W46758  13.993  11.157   2.924 -0.0769 -0.4364  0.3716
29235W        W46759  10.504  13.102  12.404  0.0334  0.1411 -0.2104
29236W        W46760   7.147  10.350  14.253 -0.1335 -0.4301  0.1559
29237W        W46761  11.012   7.944  13.415 -0.2337  0.1183  0.0480
29238W        W46762  16.547  14.188  13.229 -0.0871 -0.1522 -0.1195
29239W        W46763   5.482  17.714  11.262  0.1690  0.0845 -0.0817
29240W        W46764   3.545   0.212  15.207  0.2636  0.1097  0.1033
29241W        W46765   2.679   6.585  11.072 -0.2026  0.2680 -0.0981
29242W        W46766   1.825  13.093   2.190 -0.0570 -0.2841 -0.1361
29243W        W46767   4.589   2.822  15.130 -0.2079  0.0219  0.0699
29244W        W46768   4.190  17.768   2.998  0.0370 -0.0060 -0.1588
29245W        W46769   8.862  10.297  10.050  0.0761  0.1560  0.0092
29246W        W46770   8.990  12.647   3.203  0.2707  0.0508  0.2500
29247W        W46771   0.229   8.965   1.855  0.0965 -0.0419  0.1122
29248W        W46772   3.083   4.352  11.045 -0.0934 -0.0255  0.0861
29249W        W46773   0.509   7.205  11.795  0.1524 -0.1369 -0.1253
29250W        W46774   1.915   1.974   1.060 -0.3139  0.1597  0.2713
29251W        W46775  11.598  15.269  14.772  0.2644 -0.0395 -0.1181
29252W        W46776  12.082  13.259  14.448  0.5794 -0.2141 -0.0758
29253W        W46777  12.620   8.270  11.861  0.0049 -0.1030  0.0057
29254W        W46778  11.017  14.439  12.786  0.0086 -0.0878 -0.2454
29255W        W46779   8.154   6.126   3.594 -0.2005 -0.0692  0.0793
29256W        W46780  10.399  17.112  14.854  0.1036 -0.2597 -0.1735
29257W        W46781  14.639   6.468  14.555 -0.0867  0.1113  0.0232
29258W        W46782   0.574   4.713  11.036  0.1024  0.1681 -0.4329
29259W        W46783  12.376   8.068   0.466 -0.1102  0.5662  0.0264
29260W        W46784  13.671  17.183   3.146  0.0452  0.4518  0.1407
29261W        W46785   6.773  11.574   2.284  0.0410 -0.1352  0.2181
29262W        W46786   1.824  10.760  12.781 -0.1541 -0.0480  0.0988
29263W        W46787  14.412   8.245   3.799 -0.2775  0.2066 -0.0096
29264W        W46788  12.946  16.887  15.329  0.0655 -0.5679  0.2109
29265W        W46789  18.378  11.652   1.333 -0.2409  0.1203 -0.1850
29266W        W46790  10.747   8.438   2.217  0.0730 -0.0756 -0.0501
29267W        W46791  10.157   3.413  12.900  0.0984  0.1292  0.1265
29268W        W46792   4.685  10.262  13.330 -0.1840 -0.0507 -0.0920
29269W        W46793   7.937  15.929   1.249  0.1653  0.3520  0.1255
29270W        W46794  14.762  16.367   0.197 -0.1260  0.0612 -0.1508
29271W        W46795   3.324  14.257  13.245  0.1505 -0.1047 -0.0818
29272W        W46796  15.175  11.958   4.934  0.2725  0.1229  0.0330
29273W        W46797   3.569  15.077   0.108  0.0125  0.1357 -0.1966
29274W        W46798  14.731   0.341   2.542 -0.1288 -0.2729  0.1394
29275W        W46799   3.187  13.683   1.887  0.1477 -0.3974 -0.2077
29276W        W46800   4.343   9.941   1.784 -0.1585 -0.0138  0.1124
29277W        W46801   4.612   6.258  12.769 -0.2968 -0.0941 -0.0719
29278W        W46802  13.598  15.678   3.905  0.1739  0.1311 -0.0607
29279W        W46803   3.995   2.846   0.805 -0.0990 -0.2322 -0.2101
29280W        W46804   1.418  12.345  11.137 -0.0522 -0.0065 -0.3143
29281W        W46805   8.119  10.385   1.944 -0.3232 -0.2176 -0.0047
29282W        W46806   6.408  12.102   2.940 -0.2654 -0.0700 -0.0692
29283W        W46807   1.491  11.645  14.768  0.0130  0.0624 -0.2693
29284W        W46808   3.697   0.885   5.884  0.1773 -0.1216  0.3593
29285W        W46809   3.014   7.578  14.067  0.0705 -0.0163  0.0064
29286W        W46810  13.730  14.146  15.499 -0.1283  0.2837 -0.3511
29287W        W46811  16.313   1.229   3.093  0.1770  0.2149 -0.1052
29288W        W46812   1.155   8.885   0.834 -0.0402  0.4128  0.0302
29289W        W46813   2.944   7.278   3.601  0.1005 -0.2078  0.0219
29290W        W46814   0.254   3.172  15.670 -0.0357 -0.3183 -0.1353
29291W        W46815   4.774  15.550  15.753 -0.3221  0.0706  0.0147
29292W        W46816   1.787   2.957   0.829  0.0257 -0.3459  0.0088
29293W        W46817   9.360  14.792   0.914  0.2079  0.3959 -0.2560
29294W        W46818  12.009  11.939   0.411 -0.0524 -0.1181 -0.1904
29295W        W46819  17.822  11.251  13.951  0.3126  0.0755  0.2009
29296W        W46820  15.812   2.309  15.699  0.0936  0.1778 -0.1360
29297W        W46821   0.030  14.948  13.286  0.0156  0.0112  0.1942
29298W        W46822   3.137  16.554  15.535 -0.1153  0.0719 -0.1111
29299W        W46823   3.717   3.862  12.616 -0.1510 -0.0762  0.1223
29300W        W46824  18.379   2.317  11.655  0.1572  0.1824  0.1419
29301W        W46825   7.485   4.291   0.604 -0.0470  0.2782  0.2286
29302W        W46826   2.446   6.057  10.980  0.1552  0.2042  0.0340
29303W        W46827  13.514   1.513   1.510 -0.0140  0.1687  0.0560
29304W        W46828  16.893  17.709   3.958  0.1118 -0.0721  0.3340
29305W        W46829   3.560  17.240   1.030  0.3482 -0.1293 -0.3499
29306W        W46830   3.017   0.438   2.242 -0.1771 -0.0295  0.3553
29307W        W46831  15.635   6.729  14.792  0.0487 -0.0118  0.1433
29308W        W46832   6.640  13.931  14.029 -0.3672 -0.1941 -0.2008
29309W        W46833   9.976   2.484  14.073  0.3258 -0.1656  0.0603
29310W        W46834  15.841   1.979   1.168 -0.1085 -0.2379  0.1520
29311W        W46835   8.580  14.308  11.592  0.0269  0.0317 -0.1924
29312W        W46836   2.506  12.092  15.270  0.0289  0.0795 -0.1580
29313W        W46837  17.819  13.408   3.576 -0.1726  0.2682 -0.2538
29314W        W46838   8.300   2.496   5.052 -0.0448 -0.0516  0.1274
29315W        W46839   5.115  18.082   4.081  0.1221 -0.1806 -0.0816
29316W        W46840  11.311  15.215   3.377 -0.2657  0.2566  0.0202
29317W        W46841  13.874  16.806   1.636 -0.1780 -0.1467 -0.1992
29318W        W46842   7.143   4.211   3.792 -0.0965  0.4152 -0.0937
29319W        W46843  16.397  15.455  13.640 -0.1041  0.1308 -0.2735
29320W        W46844  12.155   6.833   1.062  0.1866 -0.0767 -0.0611
29321W        W46845  11.588  15.937  12.214  0.1211  0.2377 -0.0337
29322W        W46846   2.462  15.014   1.632 -0.1568 -0.0594 -0.0238
29323W        W46847   5.403  16.860  13.758 -0.2094 -0.1244  0.0172
29324W        W46848  10.049   5.935  13.264  0.0826 -0.1354  0.2280
29325W        W46849   7.248   8.315  11.512  0.3299  0.1388  0.0828
29326W        W46850  10.877  15.739   4.577 -0.2426 -0.0196 -0.0062
29327W        W46851  15.995  12.053   4.125 -0.0597 -0.1636  0.0657
29328W        W46852   7.898  15.773  11.576 -0.2725  0.1861  0.0781
29329W        W46853   1.498  17.801  11.051 -0.0180  0.0703 -0.1639
29330W        W46854  12.218   2.635  11.558 -0.0849  0.0942 -0.0043
29331W        W46855   7.062   3.683  14.739 -0.0030  0.2012  0.3039
29332W        W46856   7.948   1.595  14.061  0.2787 -0.0981  0.0029
29333W        W46857  11.664   6.625   1.995  0.0871 -0.2160  0.0985
29334W        W46858   2.890   7.130   1.370 -0.2294 -0.4681 -0.0245
29335W        W46859   7.292  12.641  12.623  0.4254 -0.2703 -0.0110
29336W        W46860  10.289   2.203  15.682 -0.0706 -0.0396 -0.0022
29337W        W46861   7.000   1.118   3.710  0.2368  0.0265 -0.3537
29338W        W46862  11.642  14.491   1.096 -0.0501 -0.2053 -0.1645
29339W        W46863  17.222  11.530   3.985 -0.1397 -0.0456 -0.0867
29340W        W46864  10.367  11.888  14.546  0.2937 -0.1218  0.1004
29341W        W46865  14.479   1.602  15.560 -0.0429 -0.2912  0.0833
29342W        W46866  11.576   2.266   0.361 -0.0959 -0.2263 -0.0878
29343W        W46867   1.769   1.340  11.676 -0.0513 -0.1532  0.3365
29344W        W46868  13.227   1.153  11.698 -0.0998 -0.1947  0.2104
29345W        W46869   9.513   3.459   2.871 -0.1220 -0.1689 -0.2332
29346W        W46870  14.555   2.220   0.003 -0.2192 -0.2537 -0.1687
29347W        W46871  14.539   0.775  11.672 -0.4949 -0.0997  0.2527
29348W        W46872  14.812   1.966  14.340  0.0213  0.2790 -0.2168
29349W        W46873   2.409  17.287   3.875  0.0221  0.1842 -0.1413
29350W        W46874   5.809   1.536   0.187  0.0837 -0.1707 -0.0854
29351W        W46875   2.000  13.518   9.879 -0.2300  0.0772 -0.0015
29352W        W46876   5.390   7.951   5.129 -0.0209  0.1261  0.2940
29353W        W46877   8.250   9.178   3.327 -0.1288 -0.4514 -0.1050
29354W        W46878  16.081  16.005  14.470  0.0008  0.0138 -0.2138
29355W        W46879  11.040  18.147  15.064  0.0725 -0.1266 -0.0452
29356W        W46880  13.578   8.747   1.575  0.2717  0.2601  0.1434
29357W        W46881  15.281   9.652  12.865 -0.1060  0.2636  0.0316
29358W        W46882   1.178   9.301   5.469 -0.0190 -0.0082 -0.3080
29359W        W46883  17.732   9.585   0.819 -0.1148 -0.1147 -0.2704
29360W        W46884   2.599  16.595   2.354  0.1528 -0.0786  0.0166
29361W        W46885  13.260  10.353   2.366 -0.2223  0.4400  0.1082
29362W        W46886   8.652  17.143   4.446  0.1288 -0.0696  0.0304
29363W        W46887  10.111  11.212   2.924 -0.1747  0.1562  0.1986
29364W        W46888   6.939  17.952  15.352  0.0217 -0.1818  0.2700
29365W        W46889  18.319   2.410  10.447  0.0301  0.2110  0.3117
29366W        W46890  13.234  13.783  11.496  0.1010  0.0014  0.4698
29367W        W46891  18.172  16.794  14.515  0.3787  0.1331  0.2091
29368W        W46892   8.914   5.163  12.389  0.0575 -0.2183 -0.0970
29369W        W46893   0.304   4.968   4.025 -0.0501  0.2012  0.1561
29370W        W46894   1.462   3.092   4.393  0.2103 -0.2574 -0.1683
29371W        W46895   6.897  13.607  14.750 -0.0859  0.1908 -0.0378
29372W        W46896   2.451  11.950   4.565 -0.0956  0.0830 -0.1547
29373W        W46897   4.838  13.817  14.344  0.0109  0.0242 -0.0873
29374W        W46898  14.150   9.145  15.650  0.1728 -0.0278 -0.0399
29375W        W46899  15.068  18.169  11.713 -0.2122  0.1116 -0.1781
29376W        W46900   0.564   6.846   2.518  0.0766 -0.0291 -0.2376
29377W        W46901   2.725   4.427   2.353 -0.1860 -0.0814  0.3370
29378W        W46902   9.239   4.556   3.693 -0.3617 -0.3502 -0.0527
29379W        W46903  14.846  13.897  11.329  0.1724  0.0425 -0.4506
29380W        W46904  14.167  11.429   4.057 -0.1412  0.2596 -0.0218
29381W        W46905  16.274  13.955  14.509 -0.0654 -0.0109 -0.2748
29382W        W46906  11.476  10.044  13.872 -0.0513  0.0126  0.2549
29383W        W46907  16.625  13.214  14.147  0.2152  0.1967 -0.1119
29384W        W46908   2.086   8.148  13.848  0.1260 -0.0827 -0.1927
29385W        W46909   7.872   1.345   1.494  0.0711  0.1614 -0.1606
29386W        W46910   8.503   9.077   3.994  0.1600 -0.0826  0.2850
29387W        W46911   2.210   4.326  12.867 -0.3217  0.1851  0.0200
29388W        W46912  10.207   8.697  13.963 -0.0185  0.2360  0.1364
29389W        W46913   2.317   6.385   1.081  0.2934 -0.2124 -0.2254
29390W        W46914  16.597   2.040  15.677 -0.2636  0.3333  0.3090
29391W        W46915   5.983   0.494   2.798 -0.0233 -0.0743 -0.1181
29392W        W46916   4.034   4.891   0.613  0.2096 -0.0326 -0.2486
29393W        W46917   6.176  10.802  12.103  0.2219 -0.1257 -0.3847
29394W        W46918   3.070  14.770   3.079  0.2120  0.0666  0.0699
29395W        W46919  11.981  11.414  13.407 -0.0961  0.1944 -0.1275
29396W        W46920   6.815  13.287   3.889 -0.0571  0.0635  0.0991
29397W        W46921   8.381   0.498   2.702 -0.0690 -0.1622  0.4327
29398W        W46922   0.594   5.438  14.253 -0.2273  0.0883 -0.2864
29399W        W46923  13.539  11.797  11.814  0.1308 -0.0630 -0.0698
29400W        W46924  16.990   2.532   5.442 -0.3266  0.3061 -0.3255
29401W        W46925   0.596  18.061   3.829  0.0277 -0.0372 -0.1118
29402W        W46926   9.434   7.800  14.622 -0.1054 -0.1367 -0.1116
29403W        W46927   7.132  10.779   2.680  0.0906 -0.0337  0.0946
29404W        W46928   9.271   3.209  11.730  0.2354 -0.0428  0.1553
29405W        W46929  16.212  10.394  11.978 -0.2445 -0.3205 -0.0842
29406W        W46930   5.417   4.685  15.103  0.4046 -0.0032  0.2213
29407W        W46931  17.601  16.520   3.645  0.2482  0.0730  0.0133
29408W        W46932  11.498  14.926   3.022 -0.1346 -0.0589  0.4082
29409W        W46933  12.394   2.546  12.721  0.0432  0.1068 -0.1047
29410W        W46934   7.002  17.768   4.266 -0.1796 -0.1931  0.0587
29411W        W46935  13.115  11.197  11.396 -0.0431 -0.3205 -0.2352
29412W        W46936   3.177  14.997  15.483 -0.1406  0.0101 -0.0156
29413W        W46937  14.048  16.697  11.989  0.1637 -0.0684  0.0575
29414W        W46938   6.304   4.214  12.999 -0.2407 -0.1833 -0.1226
29415W        W46939   3.472   8.466   0.296 -0.0181 -0.3938 -0.3437
29416W        W46940   7.212  14.278  12.147  0.0374 -0.0195  0.1006
29417W        W46941  12.649   7.388  14.730 -0.1329  0.1092  0.2734
29418W        W46942  16.160   1.072   1.161 -0.4546  0.0320 -0.2508
29419W        W46943   5.202   9.881   0.891 -0.0284 -0.0130 -0.0199
29420W        W46944  11.454   7.538   0.678 -0.0416  0.0960  0.0814
29421W        W46945   8.272   9.921   3.745  0.2843  0.2247 -0.2329
29422W        W46946  11.890   3.638  11.620 -0.0546  0.1417 -0.3498
29423W        W46947  12.238   2.000  15.363  0.0822 -0.1839 -0.2625
29424W        W46948  15.673   3.718  15.606  0.2101 -0.0973  0.0070
29425W        W46949   8.410   9.023   2.106 -0.0980 -0.0267 -0.1374
29426W        W46950   7.341   1.396  15.590  0.1825 -0.0966 -0.0762
29427W        W46951  17.676   7.033  12.880  0.2795  0.2562  0.0780
29428W        W46952   3.200  17.994   1.988 -0.4123  0.3344 -0.1133
29429W        W46953   5.905  10.334   3.031  0.3263 -0.0846 -0.1586
29430W        W46954  11.286   9.902   0.159  0.0735 -0.0383 -0.3608
29431W        W46955  11.119  14.712  11.844 -0.3226  0.0906  0.0144
29432W        W46956  12.258  11.163   3.184  0.4370 -0.2286  0.1972
29433W        W46957  14.170   7.950   0.412  0.3057  0.1043 -0.1105
29434W        W46958   6.471   1.567   3.477  0.1968 -0.3121 -0.1883
29435W        W46959  16.159  16.070   1.686  0.0069  0.1586  0.0720
29436W        W46960  11.772   6.461   4.650  0.1221  0.0529  0.2230
29437W        W46961  18.196   0.539  15.698  0.2762  0.1151  0.0257
29438W        W46962   2.193   1.632   2.481 -0.4335  0.1464  0.0691
29439W        W46963  11.022   1.554   3.854 -0.1601  0.0603 -0.0230
29440W        W46964   2.353   4.987   0.380 -0.5411  0.0371 -0.0404
29441W        W46965  16.756  18.115  11.360  0.2124 -0.1292  0.3012
29442W        W46966   7.860   8.075  10.842 -0.0726 -0.0704  0.0483
29443W        W46967   7.566   9.740  15.059  0.0292  0.4246 -0.0157
29444W        W46968   5.233  12.188   1.180 -0.0938  0.1998 -0.0213
29445W        W46969  18.046  14.893   2.707 -0.3651  0.0698  0.1252
29446W        W46970   4.360   2.664   1.091  0.2985 -0.2650  0.0539
29447W        W46971   5.674  12.982   3.111 -0.0269  0.1308  0.2320
29448W        W46972   5.403  13.067  13.555  0.0806  0.2118 -0.2833
29449W        W46973   1.187  14.477   1.853 -0.1147  0.2539 -0.1325
29450W        W46974  14.595  14.340  12.547 -0.0658  0.2634  0.0658
29451W        W46975   6.042  15.234  14.363 -0.0055 -0.3444 -0.0169
29452W        W46976  16.146   8.737   1.154 -0.0779  0.1033 -0.4277
29453W        W46977  17.116   2.104   2.232  0.1144 -0.2141  0.2698
29454W        W46978  12.406  14.369  11.798  0.0546 -0.0409  0.0232
29455W        W46979   8.769   3.327   3.616  0.1387  0.2286  0.0061
29456W        W46980   2.778   5.937   3.262 -0.1157 -0.0981  0.0320
29457W        W46981   9.162   8.866   3.641  0.1375  0.2109  0.0322
29458W        W46982   9.050   1.874  15.121 -0.0546  0.0346  0.0511
29459W        W46983  11.703   8.389  14.737  0.1023 -0.1710  0.2575
29460W        W46984   7.006   9.417   2.816  0.4800  0.3390 -0.2968
29461W        W46985   9.234  15.089  15.406 -0.0893 -0.0371 -0.0781
29462W        W46986   5.358   2.791  13.311  0.0839  0.1262  0.0958
29463W        W46987  18.192  11.149   3.500 -0.4165 -0.1217  0.0173
29464W        W46988  16.285  11.493   4.629  0.1595 -0.1455 -0.0209
29465W        W46989  15.720   6.962   0.318  0.0321 -0.0443  0.0240
29466W        W46990   9.724   7.747  10.966  0.0549 -0.2324 -0.1365
29467W        W46991   1.317  11.152   1.777 -0.0613 -0.4003 -0.1980
29468W        W46992   7.819  11.775  11.499  0.1046  0.2022  0.1328
29469W        W46993  13.014   7.279  12.337  0.0081 -0.0090 -0.0353
29470W        W46994   5.835   3.514  15.516 -0.0437 -0.0010 -0.0100
29471W        W46995  15.398   7.812  14.217  0.0232 -0.3131 -0.1327
29472W        W46996   0.048  17.919   1.715  0.0706 -0.1344 -0.0698
29473W        W46997   2.271  11.838  11.396  0.1636  0.1203 -0.3202
29474W        W46998   1.107   9.004   4.951 -0.1706  0.1030  0.1710
29475W        W46999   8.486  11.476   2.486 -0.0983 -0.0391  0.2789
29476W        W47000   6.937   3.606  14.269 -0.1515 -0.0743 -0.0969
29477W        W47001  10.246  16.199   3.018  0.0190  0.1086  0.3183
29478W        W47002  16.386  18.363   0.057 -0.0702 -0.1469 -0.0086
29479W        W47003   4.801   9.950  14.083  0.0005 -0.0056 -0.1219
29480W        W47004  13.125   9.989   3.269 -0.0570  0.1392 -0.1361
29481W        W47005   8.811  16.826   0.395  0.0238  0.2206  0.0622
29482W        W47006   2.793   7.401   5.486 -0.2764  0.1293 -0.0966
29483W        W47007   9.507   3.156  11.254 -0.1786  0.0317  0.2246
29484W        W47008   7.990   2.887  13.446  0.1921 -0.0652 -0.3393
29485W        W47009   5.230   1.094   3.807  0.0773 -0.1381  0.1236
29486W        W47010   7.500  16.021  11.315 -0.0157 -0.0304  0.2587
29487W        W47011  14.177   3.943  14.614 -0.0480 -0.1011 -0.1030
29488W        W47012  15.479  13.241   0.773 -0.0370  0.1888  0.1077
29489W        W47013   0.053  12.550   3.095 -0.0256 -0.1267  0.2514
29490W        W47014  18.172  17.865  11.956  0.0128 -0.1162 -0.4177
29491W        W47015   4.507   2.145   3.475  0.0042  0.1927  0.0431
29492W        W47016   4.071   1.883  10.163  0.1279 -0.0193 -0.1811
29493W        W47017   6.659  17.187   4.413  0.0398  0.0276  0.1756
29494W        W47018   5.698   5.801  14.956  0.0065  0.3084  0.0403
29495W        W47019  16.519   5.996  11.263 -0.1666  0.0427  0.0469
29496W        W47020  13.255  16.815  13.386 -0.0623 -0.3488 -0.0881
29497W        W47021  15.463   9.189   1.440  0.1512 -0.1814  0.1566
29498W        W47022   4.512  17.081  14.647  0.1112 -0.0676  0.0811
29499W        W47023  17.460  15.022  15.161  0.0910  0.0651 -0.0604
29500W        W47024  15.056  10.231   1.809  0.0764 -0.1758 -0.0611
29501W        W47025   0.362   5.573  14.741 -0.0114 -0.1017  0.0024
29502W        W47026   8.028  14.266   4.875  0.2304  0.1211  0.3027
29503W        W47027  10.573   9.818   3.826 -0.0541  0.4444  0.1126
29504W        W47028   2.151   8.035   3.984  0.5741 -0.1153  0.0349
29505W        W47029  11.475   3.770  11.839 -0.0907  0.3750 -0.1141
29506W        W47030  13.436   3.860   4.469  0.2057 -0.2682 -0.2527
29507W        W47031  16.601  17.214   3.793  0.1144 -0.1500 -0.4490
29508W        W47032   9.889   4.556   5.952  0.0579 -0.2996  0.2404
29509W        W47033   5.630   3.023   2.779 -0.1152  0.2587 -0.3754
29510W        W47034   8.259   2.061  10.613  0.2050 -0.1633 -0.0219
29511W        W47035   3.444   5.243  11.792  0.0433 -0.0043  0.2399
29512W        W47036  17.948   6.992  11.642 -0.3044 -0.2273  0.1260
29513W        W47037   0.306   8.909   0.059 -0.0340  0.0959 -0.1925
29514W        W47038   2.323   0.651   3.344  0.1078  0.0923  0.1910
29515W        W47039  12.098   2.821   4.213 -0.1225 -0.0705  0.4450
29516W        W47040  15.041   1.281   0.399 -0.0693 -0.1864  0.0001
29517W        W47041   8.303  18.137   1.697  0.1714 -0.0204 -0.0435
29518W        W47042  14.338  14.458   0.931 -0.0969  0.2374 -0.1856
29519W        W47043   0.882   3.123   0.985  0.0454 -0.0448 -0.1325
29520W        W47044  17.721  14.194   2.842 -0.0574  0.3246  0.2410
29521W        W47045   7.141  10.670  14.670 -0.1118 -0.0767  0.4118
29522W        W47046  14.876  17.929  12.308 -0.0167 -0.0901  0.0540
29523W        W47047   2.210  14.776   3.701  0.1153 -0.1672  0.0846
29524W        W47048  17.765  11.262   4.412  0.0072 -0.1620 -0.0547
29525W        W47049   3.433   9.947   0.665  0.0837  0.0425 -0.0838
29526W        W47050   6.569   7.265  11.976  0.2477  0.1878  0.3137
29527W        W47051  13.973  14.963  13.490  0.1469  0.2727  0.0529
29528W        W47052   4.076   1.859   0.525  0.3594  0.0905 -0.3144
29529W        W47053   7.485   4.266   2.688 -0.2826  0.1397 -0.1078
29530W        W47054   5.449  10.886  14.195  0.1689  0.1083 -0.0981
29531W        W47055   3.714   5.332  12.431 -0.0391 -0.0991  0.1563
29532W        W47056   2.918  15.129  13.160 -0.1704 -0.3753 -0.3223
29533W        W47057  12.198  16.073  13.796  0.0284  0.0258  0.1446
29534W        W47058  12.924   8.654   3.826  0.1172 -0.0800 -0.1492
29535W        W47059   4.360   5.205  12.324 -0.1895 -0.3438 -0.0402
29536W        W47060   9.677  13.971   3.196 -0.0244  0.1360 -0.1059
29537W        W47061  11.402  16.919  11.301 -0.0077 -0.0284  0.0628
29538W        W47062  17.963  16.319   5.360  0.2833 -0.0140 -0.3404
29539W        W47063   4.666  17.094  15.453 -0.1448 -0.0173 -0.2184
29540W        W47064   3.659   2.381   1.019 -0.3592 -0.0725  0.1197
29541W        W47065   3.781   3.263   1.733  0.0893 -0.0978 -0.6974
29542W        W47066  14.076   0.540   3.938  0.2306 -0.1625 -0.0697
29543W        W47067   7.916  16.202  14.020 -0.3368 -0.0122 -0.0032
29544W        W47068   1.728  10.800   0.539  0.1808  0.1760  0.3955
29545W        W47069  16.008   0.126   1.271 -0.0537 -0.1616  0.1901
29546W        W47070   8.811   9.936   3.573  0.0633 -0.2127 -0.0503
29547W        W47071   1.505   4.011  13.502  0.1568  0.2156 -0.3654
29548W        W47072   4.076   7.044  13.269 -0.1374 -0.0439 -0.1434
29549W        W47073   3.340   6.776  12.693 -0.0903  0.2773  0.3319
29550W        W47074  10.391   2.826   2.871  0.0089 -0.1556 -0.1244
29551W        W47075  15.324   7.732   2.143 -0.2663  0.1671  0.1102
29552W        W47076   7.515   4.446  14.928 -0.2412 -0.0464  0.4718
29553W        W47077  13.706  16.209   3.959  0.1404 -0.0314  0.2271
29554W        W47078   4.987  17.973   2.203 -0.0012  0.1952  0.1845
29555W        W47079   2.156   5.447   0.999 -0.2016 -0.3263 -0.3476
29556W        W47080  12.467  10.173  13.149  0.1238  0.1061 -0.2263
29557W        W47081   5.450   4.372  14.518 -0.0820 -0.1415  0.0855
29558W        W47082   7.650  17.037  11.308  0.1630 -0.1113 -0.1213
29559W        W47083   9.671   7.418  14.516 -0.1437  0.1171 -0.1389
29560W        W47084  16.395  18.341  11.662  0.1653 -0.2898 -0.0554
29561W        W47085  10.113  11.422   0.046  0.3102 -0.2011 -0.0860
29562W        W47086   1.535  11.522   3.092  0.3514 -0.0794 -0.1095
29563W        W47087  17.886  15.216   2.329  0.1791 -0.0590 -0.2283
29564W        W47088  12.124  17.661  14.378 -0.2433 -0.0764 -0.2243
29565W        W47089  13.114  18.051  13.016 -0.0724  0.1214  0.0227
29566W        W47090  15.174  16.731  11.616  0.0069  0.2203 -0.5043
29567W        W47091  18.255   0.214  13.024  0.0660 -0.1503 -0.0621
29568W        W47092   8.981  11.577  14.118  0.2155 -0.2197 -0.2670
29569W        W47093  16.050   9.670   5.120 -0.1098 -0.2912 -0.2094
29570W        W47094  12.462   9.527   0.866  0.2304  0.0905  0.1314
29571W        W47095   4.736   2.331  14.308  0.0706  0.0606 -0.0789
29572W        W47096   9.960   6.082  15.113  0.1044  0.0488 -0.0317
29573W        W47097   7.469   1.680  12.238  0.0827 -0.1759  0.0788
29574W        W47098  11.199  14.016  13.639  0.2877 -0.0523  0.0707
29575W        W47099  17.552   1.374  12.625 -0.2922 -0.1694 -0.1468
29576W        W47100   6.744  11.640  14.336  0.0971 -0.4922 -0.2192
29577W        W47101  14.593  17.315   3.438  0.1130 -0.0079  0.1600
29578W        W47102  13.800   4.315  11.957  0.1773  0.0864 -0.2887
29579W        W47103   7.351  14.450   2.851 -0.0000  0.5894  0.0104
29580W        W47104  11.620   1.130   1.873  0.0443 -0.2018  0.5366
29581W        W47105   7.102   2.775   2.891 -0.3606 -0.0708  0.0663
29582W        W47106  14.433  14.868  14.221 -0.2499  0.0459  0.0997
29583W        W47107   7.605   9.238  15.171  0.2077  0.3291 -0.2499
29584W        W47108  12.805  12.608   1.300 -0.1671  0.0039  0.1059
29585W        W47109   9.157  10.284   2.521  0.4360  0.4641 -0.0902
29586W        W47110   8.302   3.461  14.331 -0.1574  0.0892  0.1427
29587W        W47111  13.818  16.936  12.363  0.3842 -0.3207 -0.2307
29588W        W47112   4.621   1.931  10.784 -0.2509  0.3160  0.0027
29589W        W47113   3.522  16.749   0.365 -0.2796 -0.0801 -0.0665
29590W        W47114  17.707   8.773   0.272  0.0137 -0.2598 -0.2742
29591W        W47115  12.106   3.729   5.166 -0.0499 -0.0656 -0.3857
29592W        W47116   9.190  15.854  14.827 -0.1541 -0.0756 -0.1717
29593W        W47117  17.962   7.158  13.928 -0.2125  0.1940 -0.3589
29594W        W47118   3.820  16.693  11.099 -0.0690  0.0147 -0.0387
29595W        W47119   0.237   1.810   1.404 -0.2047  0.1614 -0.0543
29596W        W47120   6.875   9.207   3.706 -0.1000 -0.0872 -0.0017
29597W        W47121   3.879  10.230   2.995 -0.1914  0.0976  0.0293
29598W        W47122   7.844   3.949   2.531 -0.0679 -0.0322  0.2247
29599W        W47123  10.557   3.665  12.615 -0.4165 -0.0902  0.3820
29600W        W47124   7.133   9.608   1.550 -0.0764  0.0299 -0.3696
29601W        W47125  14.452  16.694  11.712 -0.1261  0.1772  0.1337
29602W        W47126  12.873   7.448   4.642 -0.0715 -0.0175 -0.0346
29603W        W47127   2.309  12.392  14.850 -0.1326  0.0598  0.0474
29604W        W47128  16.059  15.171  12.255 -0.1168  0.1390  0.0867
29605W        W47129   9.430   3.994  12.093 -0.2366  0.1331 -0.2364
29606W        W47130   6.212   2.870   1.662  0.1183  0.1502 -0.0274
29607W        W47131  15.206  12.948  11.178  0.1062 -0.2092  0.1782
29608W        W47132  16.323  14.381   4.981  0.3709 -0.1516  0.1210
29609W        W47133  18.174   7.531   1.201 -0.2132  0.1401  0.0793
29610W        W47134   2.270  10.627   1.367 -0.0093  0.1896  0.0693
29611W        W47135  11.623   3.631  10.788  0.2381 -0.0047  0.1062
29612W        W47136  16.697   1.157   1.164 -0.2112 -0.0349  0.0244
29613W        W47137  14.365   5.711  12.124 -0.2972  0.2484  0.0051
29614W        W47138   4.225   5.947   2.128 -0.3322  0.1881  0.1233
29615W        W47139  14.058   4.712   0.570 -0.0146  0.0720  0.0862
29616W        W47140   8.372  15.254   2.421  0.2595  0.1648  0.1197
29617W        W47141   4.350  10.150   0.858  0.1072  0.2981 -0.2196
29618W        W47142   6.741   6.143  11.386  0.2191 -0.4630 -0.0652
29619W        W47143   8.351   4.417   0.537  0.1739  0.2304 -0.0300
29620W        W47144   3.490   1.080   0.793  0.0866  0.2112 -0.1005
29621W        W47145   9.539   4.658   4.479  0.2054  0.0398 -0.1008
29622W        W47146  18.041   2.743   5.317 -0.3100 -0.1066 -0.0307
29623W        W47147   9.172   1.358  11.313  0.0336  0.0407 -0.1739
29624W        W47148  13.804  17.854   0.626  0.3005  0.0071  0.1222
29625W        W47149  11.454   9.520  10.970 -0.1218 -0.2107 -0.2113
29626W        W47150  17.714  17.870  15.500 -0.0525  0.0483 -0.1306
29627W        W47151  17.273  11.972   1.803 -0.0444  0.0266 -0.0362
29628W        W47152  16.617   8.833   3.649 -0.0771  0.0262  0.1582
29629W        W47153   4.514  11.795   5.487 -0.0897 -0.2351  0.0024
29630W        W47154   9.706   2.620  11.082  0.1234 -0.1004  0.0318
29631W        W47155   1.531  15.227   1.930 -0.2433  0.5480  0.3382
29632W        W47156  11.362   6.755  12.955 -0.1113  0.2448 -0.0407
29633W        W47157   8.784   7.070  14.629  0.2125 -0.1247  0.0639
29634W        W47158  14.333   5.132   4.562 -0.0104 -0.5042 -0.0811
29635W        W47159  12.858   1.214  12.093  0.2250  0.0041 -0.1859
29636W        W47160   6.568   4.987   0.328  0.2813  0.0839 -0.2527
29637W        W47161   8.801   4.607   0.591  0.1957 -0.0127 -0.1975
29638W        W47162  15.213  14.818   2.657 -0.1611  0.3237 -0.1721
29639W        W47163  16.318   7.864   3.114 -0.3044  0.1295 -0.0747
29640W        W47164   6.946  18.343  11.358  0.0560 -0.1771 -0.1575
29641W        W47165  12.291  17.677  11.315  0.2726 -0.0207 -0.2427
29642W        W47166  13.383   9.173   1.069 -0.1151  0.1721 -0.1229
29643W        W47167  11.263   7.920   1.005  0.0354  0.0261  0.1981
29644W        W47168  13.688  17.659   3.366  0.0718 -0.0391  0.2773
29645W        W47169   1.906   6.955   4.438  0.0106  0.2898  0.1260
29646W        W47170   5.613   9.375   1.340 -0.0589 -0.3240 -0.0943
29647W        W47171   5.095   7.510  14.013 -0.0891  0.2796 -0.0373
29648W        W47172   2.288   9.362   3.480  0.0359 -0.0766  0.1050
29649W        W47173  14.573  17.346  10.187  0.1971 -0.4549  0.4246
29650W        W47174  16.133  12.100  12.245  0.1847 -0.2210  0.1005
29651W        W47175   5.284   6.092  14.683 -0.2629 -0.0920 -0.2049
29652W        W47176   6.994   7.812  15.077 -0.1789  0.0736 -0.3493
29653W        W47177   7.687  12.880  11.425  0.3810 -0.0086  0.0886
29654W        W47178   2.701  11.109   3.422 -0.0744  0.2630  0.0378
29655W        W47179  14.300  11.679   4.468  0.1201 -0.0332  0.0201
29656W        W47180  14.323   2.183  14.136  0.0319  0.0093  0.1831
29657W        W47181  11.563  16.683  13.584 -0.1289  0.1717  0.1489
29658W        W47182   6.121  14.517   1.080 -0.0236  0.0362 -0.2313
29659W        W47183   3.922   0.414  12.218 -0.0239 -0.0729 -0.3020
29660W        W47184   5.308   1.785  11.267 -0.0259  0.2300 -0.3075
29661W        W47185   9.229   7.620  15.118  0.0203  0.1512 -0.2389
29662W        W47186   9.804  10.625   3.487  0.0772 -0.1970 -0.0049
29663W        W47187  15.699   9.813   3.201  0.0369 -0.1481 -0.4458
29664W        W47188  13.960   1.719   3.141  0.2214  0.0802  0.0172
29665W        W47189   4.695  13.541  10.883 -0.0010 -0.0846  0.0057
29666W        W47190  14.400   3.138  13.541 -0.1283 -0.0734 -0.2419
29667W        W47191   0.147  16.243  14.037 -0.0925 -0.1928  0.0042
29668W        W47192   8.514   9.668   3.326 -0.2277  0.0351  0.0414
29669W        W47193  17.657   0.713   4.636 -0.1595  0.0945  0.3429
29670W        W47194   6.803  17.400  15.728 -0.0511 -0.3935  0.1824
29671W        W47195   5.181  14.928   1.936  0.0703 -0.1765  0.0337
29672W        W47196  10.232  11.706   2.046 -0.2288  0.4760  0.0178
29673W        W47197  11.440  11.029  15.418 -0.1611  0.4853 -0.0783
29674W        W47198  10.818   8.851   1.481 -0.2900  0.1068 -0.1220
29675W        W47199  16.988   8.147  11.826 -0.0603  0.1515  0.2954
29676W        W47200   5.262  15.416  10.964  0.0720 -0.2073  0.0942
29677W        W47201   3.218   5.686   2.576 -0.1699 -0.1834 -0.0206
29678W        W47202   8.212   7.897   3.108  0.0321 -0.0447 -0.0782
29679W        W47203   6.451   3.450   1.643 -0.2779 -0.3594  0.3239
29680W        W47204   8.382  10.807  12.003  0.1578  0.1706  0.4310
29681W        W47205  10.090  11.688   3.047  0.0093 -0.0658  0.0588
29682W        W47206   2.565   8.434  15.767  0.0899 -0.1328 -0.1889
29683W        W47207  15.169   7.681  11.278 -0.0890  0.3025 -0.2153
29684W        W47208   2.142  16.726  14.318 -0.2974 -0.1855  0.0134
29685W        W47209  15.783   8.463   0.294  0.3661 -0.0687  0.1571
29686W        W47210   4.169  11.452   3.313  0.1159  0.0359 -0.1646
29687W        W47211  15.707  16.285   1.875  0.2930  0.1810  0.3350
29688W        W47212  12.659   7.416  12.793 -0.2407  0.2667 -0.0300
29689W        W47213  17.807   8.467  12.841 -0.0506 -0.0732  0.1077
29690W        W47214  17.106  14.831   3.796 -0.2138 -0.2460  0.1590
29691W        W47215   7.826  14.185  14.674  0.1985  0.1422  0.0610
29692W        W47216   5.171  11.994  14.136  0.3779 -0.1261  0.2595
29693W        W47217   5.185  14.486  14.439 -0.2195 -0.2974  0.0754
29694W        W47218  10.660  13.363  13.740  0.0483  0.1220 -0.1153
29695W        W47219  10.726   6.629   5.085  0.0016  0.1008  0.0298
29696W        W47220  13.397   5.535   0.771 -0.1289  0.0370 -0.0845
29697W        W47221  11.449  13.622  14.922 -0.1986 -0.0404 -0.0904
29698W        W47222   6.677  14.711  15.038  0.1116  0.0296  0.1262
29699W        W47223  11.459   5.464   3.293  0.3071  0.1674  0.0739
29700W        W47224  10.950  18.310   1.110 -0.3253  0.1141  0.0481
29701W        W47225  13.518   4.832  12.170 -0.1366 -0.2049 -0.0630
29702W        W47226  12.863   0.255   4.178 -0.1755 -0.0987  0.0243
29703W        W47227  10.286   3.830  13.860 -0.2350 -0.0632  0.3446
29704W        W47228   0.446  11.864  11.331  0.1440  0.1395 -0.0025
29705W        W47229   5.626  11.086  11.996 -0.1075 -0.0037 -0.1107
29706W        W47230   0.802  15.341   2.022 -0.0147 -0.2593  0.3154
29707W        W47231  11.542   4.144  10.891 -0.0771  0.1128  0.2802
29708W        W47232  16.867   8.001  10.983 -0.2981  0.0855 -0.1009
29709W        W47233   1.690  13.232  12.506  0.0492  0.0831  0.0922
29710W        W47234  10.379  13.267   0.711  0.1635 -0.1658 -0.0622
29711W        W47235  14.109   9.392   3.283 -0.2110  0.0786 -0.1335
29712W        W47236   2.453   2.832   0.227 -0.0687 -0.1278  0.0338
29713W        W47237  11.494   7.909  14.694 -0.0656 -0.1028  0.0220
29714W        W47238   8.570   4.216   2.814  0.1204  0.1971 -0.0905
29715W        W47239  13.388   7.965   3.845 -0.4492  0.1765 -0.0503
29716W        W47240  16.786   3.776   3.101  0.2740 -0.0804  0.2314
29717W        W47241  16.883  13.076  12.335 -0.1636 -0.0841  0.1949
29718W        W47242   3.517   3.275  11.925 -0.1667 -0.0099  0.2028
29719W        W47243   9.259   7.800  11.211 -0.3883 -0.0467 -0.3913
29720W        W47244  16.953   9.981   3.198  0.1587  0.2367  0.0812
29721W        W47245  16.936   8.722  12.556  0.0310 -0.1892 -0.1444
29722W        W47246   2.294  11.110  12.976  0.0471  0.1415 -0.0260
29723W        W47247  10.586   2.278   4.839 -0.0817 -0.1055  0.3217
29724W        W47248  17.005   5.891   0.562  0.0914 -0.0471 -0.0145
29725W        W47249  18.314   8.968  13.363 -0.1031  0.0173 -0.0171
29726W        W47250   0.743   5.934   1.561  0.2429  0.4291  0.0664
29727W        W47251   8.718  11.799   1.242 -0.0262  0.2003 -0.0547
29728W        W47252   1.699  10.598  10.496 -0.3243  0.1741  0.0176
29729W        W47253  15.273   0.409  12.871  0.0985 -0.1730  0.1652
29730W        W47254   3.625   3.396   2.224  0.0563 -0.0257 -0.0254
29731W        W47255   2.567   8.141  13.967  0.0531 -0.1661 -0.1702
29732W        W47256   8.200  13.034   1.574  0.0569  0.2051  0.0040
29733W        W47257   8.615   9.444   4.401 -0.2391  0.0728 -0.3327
29734W        W47258  11.991   3.085  15.569 -0.3373 -0.0241  0.1781
29735W        W47259  10.255  15.580   5.315  0.0558 -0.1294 -0.2091
29736W        W47260   7.160   5.483  13.722 -0.0630  0.0446 -0.3815
29737W        W47261  16.105   0.564   0.978 -0.0739  0.0739 -0.0367
29738W        W47262   0.421   2.271   1.224 -0.0510  0.0036 -0.0726
29739W        W47263   5.545  10.410  10.727  0.1193 -0.2597 -0.0654
29740W        W47264   6.699   3.062   4.161 -0.0708 -0.1813 -0.0167
29741W        W47265   0.159   0.288   2.306  0.1668 -0.2109 -0.1631
29742W        W47266   9.271   5.970   1.926  0.0060 -0.1340  0.3928
29743W        W47267   2.571  12.634  12.542  0.1874  0.0559 -0.1227
29744W        W47268   7.082   6.493   2.043  0.1550 -0.0872  0.1050
29745W        W47269   6.399  13.337   0.683 -0.0974  0.2522  0.3020
29746W        W47270   2.002  11.189  14.232 -0.0665 -0.0979 -0.0934
29747W        W47271   4.536   3.395   4.118  0.0412 -0.2306  0.0823
29748W        W47272   8.643   1.337   3.209  0.3134 -0.1120 -0.1767
29749W        W47273  17.862  13.815   3.180 -0.2229  0.2675 -0.1725
29750W        W47274   6.778  15.127   1.477  0.0288  0.2796  0.2503
29751W        W47275   6.313   2.471   3.012  0.4035  0.1453  0.0394
29752W        W47276   6.343  15.899  14.866 -0.0899 -0.0039 -0.1033
29753W        W47277   2.910   5.560  14.226  0.1065 -0.1524 -0.0270
29754W        W47278  16.237   8.974  14.190  0.1709  0.1157  0.1355
29755W        W47279   4.277   3.132   2.592  0.1897 -0.0874 -0.0848
29756W        W47280   8.760   3.335  11.865  0.0484  0.4772 -0.0941
29757W        W47281  11.106   2.746  13.693  0.0480 -0.1094 -0.1404
29758W        W47282   4.762   5.355  13.599 -0.2154 -0.1037  0.2473
29759W        W47283   6.296  17.686  14.567 -0.1056  0.0382 -0.0248
29760W        W47284   1.057  15.568   5.231 -0.1226  0.2930 -0.0103
29761W        W47285  10.048   2.428   1.295 -0.3073 -0.0097 -0.1272
29762W        W47286   8.130  11.818   2.567  0.0485 -0.3606 -0.1058
29763W        W47287   7.245  13.676  11.502  0.0870 -0.3277 -0.0126
29764W        W47288   2.897   7.346   3.080  0.1475  0.0525 -0.0095
29765W        W47289   1.140   4.210  14.539 -0.4391 -0.4719 -0.3550
29766W        W47290  13.523  15.736  15.721  0.0079 -0.1142  0.0775
29767W        W47291  10.277  15.247  13.209 -0.1108 -0.1826 -0.1329
29768W        W47292  12.869  12.524   2.818  0.0224  0.4953  0.2126
29769W        W47293   2.919   3.480   1.397 -0.2169 -0.0500 -0.1528
29770W        W47294   8.091   2.926  11.196 -0.0195 -0.1897  0.0842
29771W        W47295  17.064   0.862  11.468  0.1036 -0.0316 -0.1942
29772W        W47296  16.551   1.857  13.433 -0.0962 -0.4101 -0.0763
29773W        W47297   0.846  11.129  13.614  0.0860  0.2890 -0.2766
29774W        W47298  11.642  14.833  11.133 -0.1770  0.0865  0.1076
29775W        W47299  12.452   0.271  15.274 -0.0283  0.2187  0.1209
29776W        W47300  15.558  11.326   2.390  0.3800 -0.1474 -0.0525
29777W        W47301  13.245  15.020  14.833  0.1103  0.1297 -0.1595
29778W        W47302   3.525  18.399   5.243  0.2619  0.0949  0.4159
29779W        W47303   2.238   4.112   1.618  0.0102  0.1655  0.0440
29780W        W47304   0.750  16.118  10.983  0.0409 -0.0735  0.3294
29781W        W47305   7.007  18.276   2.294 -0.1005  0.0921 -0.2771
29782W        W47306   0.410  11.245  15.101 -0.0582 -0.1764  0.1577
29783W        W47307   4.256  14.641   1.861 -0.0789 -0.0028 -0.4371
29784W        W47308   2.205  13.057   4.853  0.1906 -0.1629 -0.3163
29785W        W47309  12.246  13.263   4.802  0.0539  0.0079  0.3151
29786W        W47310   2.938   2.062  14.966 -0.2072  0.0713 -0.3815
29787W        W47311  16.040   1.309   0.289  0.0079 -0.2453 -0.1438
29788W        W47312   6.056  15.898  10.961 -0.0094 -0.0081 -0.1439
29789W        W47313   3.295   8.505  14.428 -0.2517 -0.1772  0.1105
29790W        W47314  17.586  16.485  11.161 -0.2611 -0.1735  0.0998
29791W        W47315  13.387  17.239  13.181  0.1393  0.1524  0.1649
29792W        W47316   2.713   4.854  13.240  0.1913 -0.0507 -0.1063
29793W        W47317  11.458  14.191  12.245 -0.0048 -0.1057  0.0889
29794W        W47318   8.810  14.577   0.093  0.0975 -0.1452  0.0907
29795W        W47319  15.238   4.900   1.429 -0.0045 -0.0472 -0.1806
29796W        W47320   0.996  16.255  12.709  0.0374  0.0201 -0.1991
29797W        W47321  13.162   2.966  13.226 -0.0245  0.0697 -0.5607
29798W        W47322   1.908   4.393   3.089 -0.0513  0.1477 -0.1786
29799W        W47323  14.498  10.388   5.837  0.3041 -0.2507 -0.1005
29800W        W47324  15.579   8.611   2.031  0.1065 -0.4122 -0.0299
29801W        W47325  18.261   1.250   3.477  0.3402  0.4838 -0.0289
29802W        W47326   6.929   8.691  13.469 -0.2870 -0.2681 -0.0099
29803W        W47327   6.680  15.908   2.883  0.0011  0.2933 -0.0381
29804W        W47328  13.310   1.323   1.986 -0.0268 -0.2131 -0.2842
29805W        W47329   7.984   6.460  13.919 -0.1800 -0.1372  0.2445
29806W        W47330   8.490   9.747  10.867  0.1244 -0.3785  0.0312
29807W        W47331  13.171   4.018   4.043  0.0819  0.0216  0.1400
29808W        W47332   0.238   7.599  11.682 -0.0394 -0.0672  0.1148
29809W        W47333   5.405   8.472  15.104 -0.1379 -0.0691  0.2015
29810W        W47334  17.424   4.812  12.895  0.1413  0.1379 -0.0937
29811W        W47335   1.174  18.194  12.015  0.1238  0.0831  0.0071
29812W        W47336   5.540  14.355  14.086 -0.2136  0.0599  0.2616
29813W        W47337  13.215   3.519   1.907  0.3795  0.2517  0.3008
29814W        W47338  14.522   7.373   1.906  0.4415 -0.1062 -0.0760
29815W        W47339   1.695   5.624   4.050  0.1345 -0.1024  0.3584
29816W        W47340   1.402  14.456  13.392  0.1242 -0.2063  0.0791
29817W        W47341  10.161   2.741   3.395  0.1229  0.0851  0.1347
29818W        W47342   5.518   8.933  15.178  0.0658  0.1237  0.3456
29819W        W47343  11.960  17.410  10.490 -0.3054  0.1388  0.0438
29820W        W47344  10.666   3.008  11.281  0.0871 -0.2596  0.3296
29821W        W47345   0.699   5.363   0.819 -0.0668  0.0513  0.1376
29822W        W47346   2.125  11.777   1.343 -0.1371 -0.0764  0.2024
29823W        W47347  16.409  10.260   2.987 -0.2188 -0.1027  0.1475
29824W        W47348  15.111   8.633   0.324  0.0426 -0.3292  0.3918
29825W        W47349  17.893   5.289   1.390  0.0489 -0.2835 -0.1753
29826W        W47350   7.620   8.551   4.862  0.2318  0.2759  0.1809
29827W        W47351   5.460   0.079   3.890 -0.3221 -0.1759 -0.0582
29828W        W47352  17.561  13.009  13.823  0.1660 -0.0964 -0.1139
29829W        W47353  15.768   0.447  13.122 -0.0825 -0.2914 -0.1320
29830W        W47354   0.427   7.915  14.388 -0.1858  0.1118 -0.0693
29831W        W47355  10.236  17.321   3.144 -0.0557 -0.3116  0.0496
29832W        W47356  11.272  17.488   2.079 -0.0685 -0.4587 -0.0989
29833W        W47357  12.954   4.930  11.338 -0.1385  0.3036 -0.0516
29834W        W47358   1.895   2.437   0.825  0.0031  0.1630  0.1527
29835W        W47359  13.017   9.999  12.463  0.1893 -0.0293 -0.2253
29836W        W47360   4.304  10.473  11.992  0.0652  0.1648  0.2406
29837W        W47361   2.045  14.495   0.234 -0.1700 -0.4904  0.3761
29838W        W47362   8.782   3.663   2.236 -0.0002 -0.3292 -0.0449
29839W        W47363  13.419   8.673  15.451  0.1505 -0.2217  0.2128
29840W        W47364   7.586  14.992  11.200 -0.2252 -0.1171  0.0639
29841W        W47365  15.824   0.679   2.483 -0.1329  0.0426 -0.0815
29842W        W47366   0.865  10.099  15.796 -0.0760 -0.0208 -0.1837
29843W        W47367  14.057   5.662  13.526 -0.0537 -0.0765 -0.1368
29844W        W47368   2.352  15.187   2.591  0.1701  0.1175  0.0189
29845W        W47369   5.785  17.492  15.563  0.1618  0.0282 -0.2239
29846W        W47370  16.891   4.588  12.066 -0.1574  0.0186  0.1012
29847W        W47371   1.043  12.010  15.001  0.0609 -0.1105  0.0686
29848W        W47372  14.372  13.385   3.565  0.0386 -0.1970  0.3198
29849W        W47373  10.655   1.782   3.628  0.1768  0.2458 -0.0865
29850W        W47374  14.450  16.676   4.144  0.0216 -0.2286 -0.1871
29851W        W47375   2.562  14.168   0.430  0.1943  0.1049  0.2414
29852W        W47376  17.753   4.170  10.967  0.2551 -0.0765  0.1510
29853W        W47377  16.927   6.106  13.626 -0.0641  0.0402 -0.1117
29854W        W47378  13.504   2.860   3.629  0.3184 -0.1944 -0.2470
29855W        W47379   6.895   5.781   3.637 -0.2632  0.0821 -0.0963
29856W        W47380   5.862   5.699   1.005  0.2834 -0.2221  0.1605
29857W        W47381   0.633   2.114  12.547  0.2695  0.0796  0.0841
29858W        W47382   0.959  13.205   2.401 -0.0066 -0.3578  0.2574
29859W        W47383   7.046   4.926  11.947  0.1334  0.1305  0.3413
29860W        W47384   0.862  14.809   1.170  0.1888 -0.0062  0.1639
29861W        W47385   7.586   3.668  12.726  0.0941 -0.2393  0.1895
29862W        W47386  13.396   2.533   3.995  0.0887  0.1013  0.0174
29863W        W47387   3.966  15.631  14.150 -0.1974  0.0036 -0.1367
29864W        W47388   4.359   3.725  14.924  0.1010 -0.1283 -0.2448
29865W        W47389   6.909  17.687   2.469  0.0986 -0.2134  0.3954
29866W        W47390  17.874  14.389   1.937 -0.2010  0.2731  0.2503
29867W        W47391  14.825  15.555  11.515  0.3228  0.2331  0.0330
29868W        W47392   4.642   1.597   3.403 -0.2101 -0.1310  0.1169
29869W        W47393  18.405   0.076   0.998 -0.0315 -0.0012  0.0329
29870W        W47394  10.484   4.536  11.031  0.2093 -0.0298 -0.1560
29871W        W47395  15.849  15.190  15.791  0.2598 -0.2047 -0.0870
29872W        W47396   3.491   3.374   1.344  0.0294 -0.0138 -0.0100
29873W        W47397   8.940  15.767  15.274  0.0677 -0.0972 -0.5160
29874W        W47398   3.063   4.091  13.622  0.0400 -0.0376 -0.1275
29875W        W47399   7.138  16.684  12.579 -0.1298  0.0779 -0.1379
29876W        W47400  13.939  10.590   0.406  0.0678 -0.0890 -0.0096
29877W        W47401  16.600   0.752  11.746 -0.1375  0.0895 -0.1287
29878W        W47402  10.684   5.247   2.055  0.1296 -0.0289 -0.1123
29879W        W47403   8.211   5.439  12.059  0.1991  0.1984  0.0326
29880W        W47404  13.766   1.655   1.040  0.0696  0.0820  0.0647
29881W        W47405  16.722  18.010  13.476 -0.0510  0.1214  0.0018
29882W        W47406  14.279   6.093   2.922 -0.0930 -0.0689 -0.2067
29883W        W47407   1.025   6.705   0.223 -0.0137  0.0529 -0.1147
29884W        W47408   7.656   3.279   1.053  0.3621  0.0171  0.2177
29885W        W47409  14.697  14.346  15.860  0.1360 -0.5787 -0.2157
29886W        W47410   9.273  10.119  11.471  0.1924  0.0274  0.1508
29887W        W47411   9.913  10.147   3.142  0.0879  0.1170 -0.3324
29888W        W47412  12.831   1.007   5.335 -0.2726  0.0077  0.1156
29889W        W47413  16.525   9.541   1.196 -0.1462 -0.0218  0.2497
29890W        W47414   8.014  10.640   1.024  0.0630 -0.3370 -0.0138
29891W        W47415   7.200   6.448  11.489 -0.2593 -0.4099  0.1094
29892W        W47416   9.584  18.112   1.511  0.3677  0.0252  0.0236
29893W        W47417  12.471  11.014   4.362 -0.0025 -0.0093 -0.1355
29894W        W47418   1.145  18.337  13.930  0.1138  0.0374 -0.1289
29895W        W47419   6.147  14.101   4.408 -0.0362  0.1226  0.0082
29896W        W47420  13.993   5.678   4.109 -0.3216 -0.1891  0.1322
29897W        W47421  13.087   5.717  13.154  0.0888 -0.0626  0.1542
29898W        W47422   5.040   0.850   2.327  0.0135  0.1733 -0.2063
29899W        W47423  12.552  14.192   2.076 -0.0319 -0.3110 -0.1326
29900W        W47424   4.297   0.010  12.227  0.2434 -0.3532 -0.2456
29901W        W47425  15.025  14.679  13.850  0.1699 -0.0143  0.0220
29902W        W47426  12.764  18.236   5.167 -0.1688  0.1751  0.0499
29903W        W47427   0.214  12.757  11.235 -0.3016 -0.0335 -0.0230
29904W        W47428  15.394   2.462   2.341  0.1703  0.2772 -0.0662
29905W        W47429   0.794   1.603  11.757  0.0357  0.2643 -0.1162
29906W        W47430  10.645  18.120   5.014 -0.3070 -0.1562  0.0681
29907W        W47431  15.450  10.274  14.907  0.0761  0.3295 -0.0601
29908W        W47432  13.049  13.457   1.415  0.0049  0.1242  0.0753
29909W        W47433  13.176   2.638   0.045 -0.3172  0.1964  0.0369
29910W        W47434   5.746  12.554   2.918 -0.0080 -0.0796  0.0247
29911W        W47435  13.113  17.625  14.231 -0.0345  0.0369 -0.0079
29912W        W47436  11.336   6.407   3.263 -0.3126 -0.3195 -0.1767
29913W        W47437   0.875  13.445   0.739 -0.2632 -0.0929 -0.0866
29914W        W47438   4.684   5.757  13.224  0.0920  0.1828  0.0611
29915W        W47439   3.423   1.132   2.864 -0.2580 -0.2608  0.1928
29916W        W47440   2.465  15.367   1.318  0.2412 -0.1331  0.1682
29917W        W47441   1.395  16.848   5.248 -0.1299 -0.3232  0.0019
29918W        W47442  16.729  11.406   4.306 -0.0512  0.0416 -0.0145
29919W        W47443   1.851  12.074  11.182  0.1287 -0.0197  0.5181
29920W        W47444   9.756   0.996   3.022 -0.0279 -0.0401  0.3733
29921W        W47445  16.396  12.514  12.361 -0.1282  0.1339  0.1249
29922W        W47446  16.592   9.272   5.103  0.4717 -0.0769  0.0454
29923W        W47447   2.994   6.808  14.350 -0.1996  0.4409 -0.1022
29924W        W47448  16.977   8.534   2.789 -0.3319 -0.0268  0.1325
29925W        W47449  14.675   7.856  12.443 -0.1507  0.0114  0.4732
29926W        W47450   2.643  17.703  11.745  0.0566  0.1543 -0.0618
29927W        W47451  18.106  11.574   0.414 -0.0933  0.1607 -0.1894
29928W        W47452  13.541   5.412  15.369  0.0467 -0.0177 -0.0037
29929W        W47453  16.084   7.328   2.359  0.0895  0.0535  0.2956
29930W        W47454  18.204   0.532   0.906  0.4309 -0.2464  0.2568
29931W        W47455   9.258  12.717   4.983  0.0416  0.0464 -0.2205
29932W        W47456  16.904   9.876  12.882  0.0843 -0.0822  0.1869
29933W        W47457  15.825  14.846   3.971 -0.0075 -0.2513  0.1952
29934W        W47458   2.904   3.588   2.867  0.0721 -0.1943  0.0067
29935W        W47459  15.795   7.386  14.159  0.1280  0.2535  0.3475
29936W        W47460   9.928  11.939  14.768  0.1039 -0.1310  0.3907
29937W        W47461   2.353  14.901   3.095 -0.2392 -0.0697 -0.2071
29938W        W47462  15.384   8.170  12.240  0.2582 -0.0593  0.1912
29939W        W47463  15.947  15.155  14.442  0.2432  0.1576  0.0134
29940W        W47464   1.406  18.055   0.454  0.0734  0.0149 -0.2987
29941W        W47465   7.378   3.423   5.363 -0.0059 -0.3503 -0.0045
29942W        W47466   0.858   8.987  14.420  0.0958 -0.0906  0.0605
29943W        W47467  12.348   4.103  14.290 -0.1073  0.4367 -0.1375
29944W        W47468  12.704   9.703  13.237 -0.1772 -0.0038 -0.0304
29945W        W47469  14.225   8.593   3.433 -0.0667 -0.1007 -0.0454
29946W        W47470   5.244  11.330  12.914  0.1800  0.2047  0.0268
29947W        W47471  17.997   9.502   1.523  0.2830  0.0343 -0.1260
29948W        W47472  15.322   4.066   1.627 -0.1101  0.0156  0.0821
29949W        W47473   4.808  10.724   3.628  0.0461  0.1743 -0.0471
29950W        W47474   0.966   7.819  11.130  0.0503 -0.1962 -0.1087
29951W        W47475  11.206  17.703   3.208  0.2643 -0.0591  0.0843
29952W        W47476   4.892  10.973  12.890 -0.1615  0.2954  0.0319
29953W        W47477  16.855  14.365  12.732 -0.2557  0.1458 -0.2184
29954W        W47478  17.551   3.025  12.772  0.1185 -0.0919 -0.0521
29955W        W47479  14.495   4.484   9.854  0.0177 -0.0621  0.0898
29956W        W47480   9.179  14.267  12.562 -0.1480 -0.0379  0.2034
29957W        W47481   2.184   5.677   4.692 -0.0086  0.1115 -0.1799
29958W        W47482   5.193   8.069  14.096  0.0754  0.0356 -0.0641
29959W        W47483   0.057   4.937   4.946 -0.1384  0.3633 -0.1686
29960W        W47484  17.922  10.051  13.197 -0.4030  0.1481 -0.0752
29961W        W47485  12.442  12.878   1.082 -0.3057  0.2378 -0.0307
29962W        W47486   8.105   4.127   2.002  0.0680  0.1174  0.0314
29963W        W47487   3.130   3.024  12.245 -0.1340  0.5141  0.0065
29964W        W47488  11.776  13.344  14.031  0.1804 -0.1275 -0.0001
29965W        W47489  13.917  11.200  11.521 -0.1481 -0.2199 -0.0205
29966W        W47490   5.026   9.034  12.930  0.2351  0.2601 -0.0806
29967W        W47491  10.572   4.275   2.775  0.0712  0.2031  0.2127
29968W        W47492  12.499   2.828  13.112  0.2365 -0.0033 -0.0005
29969W        W47493   7.418   3.461   1.746 -0.0121  0.2251 -0.0491
29970W        W47494  14.973   9.567  13.924 -0.0109 -0.1284  0.0759
29971W        W47495   9.800  13.290   3.829  0.0093  0.1007  0.1789
29972W        W47496   1.733  18.381   4.937 -0.2168  0.1509 -0.0650
29973W        W47497  14.378   8.923   1.214  0.2104  0.3623  0.1762
29974W        W47498  13.593   3.808  13.081  0.2432 -0.1582 -0.2299
29975W        W47499   0.342   0.046   4.110  0.1965 -0.0509 -0.2979
29976W        W47500   3.998   0.704  12.589 -0.0076 -0.0685  0.0017
29977W        W47501   3.746   8.181   4.208 -0.1726  0.4573  0.0315
29978W        W47502  11.577  17.700   1.604 -0.1811  0.1911 -0.0516
29979W        W47503  14.967   4.080  13.374  0.0712 -0.0184 -0.0124
29980W        W47504   5.678  11.735  12.562 -0.0968  0.5024 -0.0042
29981W        W47505  10.628  14.894  14.315  0.0690 -0.3863  0.0729
29982W        W47506  12.988  11.799  14.958  0.0151 -0.0120  0.2625
29983W        W47507  11.062  11.762  14.661 -0.2864  0.0343 -0.4794
29984W        W47508  11.343   3.593   1.818  0.1698 -0.0888 -0.1727
29985W        W47509   9.805   5.096  15.218 -0.2053  0.1062 -0.3187
29986W        W47510   5.876  12.235   2.030  0.2783  0.0413  0.1577
29987W        W47511   8.057   3.287   3.054 -0.1790 -0.2720  0.0647
29988W        W47512   0.978   2.975  11.091  0.0984 -0.1188  0.2876
29989W        W47513   1.941   0.443  11.204  0.0820 -0.0637  0.1563
29990W        W47514   0.540  13.265  11.494 -0.0155  0.0566  0.0123
29991W        W47515  18.227   4.786   3.954 -0.2145 -0.0426 -0.3036
29992W        W47516  16.720   6.075  13.177  0.1226  0.1662 -0.1161
29993W        W47517  12.643  16.294   1.878 -0.0437 -0.1102 -0.3799
29994W        W47518   5.640   2.635   0.868 -0.0341  0.1440 -0.0943
29995W        W47519  10.776   0.170   0.145 -0.1702  0.0563  0.1384
29996W        W47520  13.349   2.681  13.622 -0.0890  0.0913 -0.2186
29997W        W47521   7.205   1.945  14.609  0.3252 -0.0119 -0.0211
29998W        W47522   2.672  10.569   4.797 -0.2217  0.1112  0.1103
29999W        W47523  17.986  11.705   5.620  0.3425 -0.3637  0.0872
30000W        W47524   9.793   7.586   1.439  0.1415  0.0156 -0.2346
30001W        W47525  13.097   9.148   5.925 -0.4605 -0.0308  0.3449
30002W        W47526  10.212   1.231   4.197  0.0292  0.1880  0.1504
30003W        W47527  11.867   1.525   2.067  0.2037 -0.3890 -0.0493
30004W        W47528  17.401   7.112   1.253  0.2626 -0.1170  0.0558
30005W        W47529  13.349   6.975  14.317 -0.1548 -0.1630 -0.1379
30006W        W47530  16.642   2.483   4.956  0.2100  0.1457  0.0145
30007W        W47531   8.854   3.954   1.781  0.4642 -0.0763 -0.3387
30008W        W47532   4.046  16.742   2.696  0.0529  0.2889 -0.0885
30009W        W47533   3.686  10.622   2.674  0.5473  0.1923  0.1892
30010W        W47534   9.638   9.966  10.569 -0.3619 -0.4292  0.3672
30011W        W47535   6.596  18.301   0.215  0.1045  0.0251  0.3218
30012W        W47536   0.564  11.556  15.463  0.0205  0.4674  0.3544
30013W        W47537  17.248  11.683  11.732  0.0085  0.1798 -0.0225
30014W        W47538  17.992  14.899  12.209  0.0507 -0.0993 -0.0026
30015W        W47539   9.269  10.429  14.192 -0.3336 -0.0260  0.4871
30016W        W47540  11.839  16.082   1.452  0.0625  0.0218  0.0836
30017W        W47541  16.033  15.714  12.424  0.1675  0.0427  0.3847
30018W        W47542   5.765   4.107  12.295 -0.0943  0.1449 -0.1010
30019W        W47543   5.045  13.628  12.691 -0.4211  0.0587 -0.4123
30020W        W47544   5.228   4.144   0.518  0.2325  0.1433  0.1824
30021W        W47545  17.913   7.175  13.397  0.1588 -0.5474  0.2036
30022W        W47546  17.901   3.537  13.140  0.0820 -0.0376 -0.4692
30023W        W47547  12.573  15.086  10.733 -0.1066 -0.2679  0.0495
30024W        W47548  10.396  13.587  12.039  0.0597  0.0371 -0.0648
30025W        W47549  15.073  15.231   4.262  0.0320 -0.1767  0.0852
30026W        W47550   1.183   5.550  12.816 -0.1599 -0.1485 -0.2003
30027W        W47551  14.453   7.898  13.747 -0.1090 -0.0458  0.1917
30028W        W47552  10.728  11.112   3.266  0.3834  0.1090 -0.4046
30029W        W47553  15.017   0.799  12.690  0.1139 -0.0816  0.3706
30030W        W47554   1.308  16.595   0.868  0.2170 -0.2701  0.0181
30031W        W47555   8.653   1.009   1.403  0.0214 -0.2567  0.0309
30032W        W47556  17.036  15.931   2.215  0.0371  0.4805  0.0393
30033W        W47557   1.796   8.115   0.147  0.0955 -0.0711 -0.0843
30034W        W47558  15.784  12.772  15.275 -0.1234 -0.1397  0.2955
30035W        W47559  12.035   1.362  12.541  0.2632 -0.2098 -0.0157
30036W        W47560  10.064   1.970   0.270 -0.0298 -0.1397 -0.1513
30037W        W47561   1.426   9.751   2.989  0.0216 -0.0891 -0.1460
30038W        W47562  17.438  14.748  14.660 -0.1522 -0.0084 -0.0151
30039W        W47563   5.879  11.179   4.444  0.0854  0.3391  0.3174
30040W        W47564  10.206   8.621   3.127 -0.0286 -0.0134 -0.0318
30041W        W47565  15.146  14.183  14.236 -0.3371 -0.0646  0.2510
30042W        W47566  13.629   6.207   2.285 -0.1381  0.0682 -0.2429
30043W        W47567  13.831   1.356  12.336 -0.0346  0.1897  0.2879
30044W        W47568  14.458  16.366  12.082  0.3928 -0.0044 -0.1492
30045W        W47569  10.292  17.329   0.355 -0.4787 -0.1554 -0.0690
30046W        W47570  16.545  12.703  14.310 -0.2015 -0.2745  0.0518
30047W        W47571   5.761  13.428  12.445 -0.1475  0.0003  0.1028
30048W        W47572  14.244   2.571  11.764 -0.0090 -0.2579  0.0436
30049W        W47573   6.892  14.097  14.909  0.2933 -0.0505 -0.1095
30050W        W47574   7.006   3.553  12.540 -0.0072 -0.0444  0.2367
30051W        W47575   5.160   8.391  13.721 -0.0863  0.0813  0.4592
30052W        W47576  14.967  17.204   1.668  0.0924 -0.1618  0.0055
30053W        W47577   5.270   2.139   2.795 -0.0221  0.0598 -0.2475
30054W        W47578  10.399  14.637   6.167  0.0675 -0.0320 -0.1764
30055W        W47579  15.982   8.218   1.906  0.3101  0.1536 -0.0875
30056W        W47580   7.232  16.712   0.286 -0.3233  0.0398 -0.4257
30057W        W47581   0.711  12.520   0.894 -0.0928 -0.0057  0.1142
30058W        W47582   4.215   0.097  13.742  0.1840 -0.3631 -0.4079
30059W        W47583  17.161  18.083   3.795 -0.1334 -0.1072  0.0313
30060W        W47584   5.620   9.948   1.298  0.2043 -0.0235  0.1640
30061W        W47585  17.362   2.646   0.333 -0.2325 -0.0332 -0.0693
30062W        W47586  14.253  12.080   3.065  0.0728 -0.2702  0.2308
30063W        W47587   4.365   0.182  15.238  0.1976  0.0270 -0.1691
30064W        W47588   6.199   0.278   1.076  0.1685 -0.2770 -0.0818
30065W        W47589  10.917   9.207   2.675 -0.1786 -0.0750 -0.0952
30066W        W47590  17.743  10.666   4.138  0.0140 -0.3398 -0.3796
30067W        W47591   1.014   5.562  11.871  0.0552  0.2655  0.0105
30068W        W47592  16.152  11.488   1.272 -0.0312 -0.0839 -0.0974
30069ION     NA47593  16.490   4.641  11.488  0.1210 -0.0808  0.1337
30070ION     NA47594  13.156  18.144  11.316  0.1332  0.0520  0.2047
30071ION     NA47595   1.633  15.521  10.110  0.1063  0.2139  0.2365
30072ION     NA47596   5.001   9.962  11.426 -0.1071 -0.2178  0.2365
30073ION     NA47597   5.539  17.054   5.635  0.2030 -0.0320 -0.2677
30074ION     NA47598  13.631   2.771  13.226  0.0116  0.1762 -0.2555
30075ION     NA47599   5.337   2.930  15.053 -0.0587  0.1219 -0.3191
30076ION     NA47600  11.505   8.810   5.690 -0.1088 -0.1544 -0.1512
30077ION     NA47601   4.583  18.279   5.537  0.0313  0.0225 -0.1023
30078ION     NA47602  14.652  14.683   5.806 -0.0619  0.1409 -0.1343
30079ION     NA47603  17.837   5.733   5.371 -0.3635  0.0935 -0.1888
30080ION     NA47604  16.358  10.732   5.391  0.0657 -0.0511  0.1179
30081ION     NA47605   9.145   3.055   3.952  0.1624 -0.0611  0.1299
30082ION     NA47606   9.778  11.192  10.498 -0.0127 -0.0572 -0.3444
30083ION     NA47607   3.186  10.295   5.682  0.0761 -0.0885  0.2203
30084ION     NA47608   9.993   2.095  10.254  0.3735 -0.0520 -0.1367
30085ION     NA47609  12.975  11.654  10.586 -0.0040 -0.2107  0.0650
30086ION     NA47610   7.410   0.355   5.715 -0.0358 -0.1114  0.1705
30087ION     NA47611   6.679  13.126   5.252  0.2931  0.3146  0.5446
30088ION     NA47612   0.467  12.602  10.175 -0.0387  0.2247  0.0384
30089ION     NA47613  15.186   8.791  10.970 -0.2526 -0.2038  0.1784
30090ION     NA47614   1.365   3.281   4.882 -0.0169  0.0663  0.0756
30091ION     NA47615  11.967  12.360  11.087  0.5654  0.0663 -0.0137
30092ION     NA47616   8.669   0.635   5.777  0.2486  0.0447 -0.3037
30093ION     NA47617   7.033   3.062   5.326 -0.1054 -0.0123 -0.1997
30094ION     NA47618   3.077  18.200   5.173  0.0537  0.0489  0.1208
30095ION     NA47619   4.397   7.500   5.263 -0.2530 -0.0291 -0.0742
30096ION     NA47620   4.357   3.265  13.943  0.0569  0.0990  0.2583
30097ION     NA47621  12.761   8.750  10.373  0.0388 -0.2909 -0.1755
30098ION     NA47622  10.525   2.895  10.312 -0.0546 -0.1028 -0.0557
30099ION     NA47623   0.505   8.713   5.160  0.0849 -0.0095  0.1928
30100ION     NA47624   8.566  15.304   3.681  0.1668 -0.2312  0.0642
30101ION     NA47625   1.366   4.977  10.155 -0.2098 -0.1346 -0.1096
30102ION     NA47626  16.622  13.667   0.191  0.1371  0.0022  0.0297
30103ION     NA47627  15.851  15.022   0.353 -0.0934  0.1150  0.2564
30104ION     NA47628  18.389   6.569  12.366  0.3177  0.0636 -0.1284
30105ION     NA47629   6.201  15.261  10.555 -0.0552 -0.0140 -0.0721
30106ION     NA47630   5.044  10.177   4.253  0.1052 -0.1041 -0.0713
30107ION     NA47631  18.109   6.262  13.362 -0.1601 -0.3751  0.1538
30108ION     NA47632  15.917   6.206   5.131 -0.2508  0.4622  0.0769
30109ION     NA47633  12.069   6.647  14.484 -0.2574  0.2074  0.2071
30110ION     NA47634  11.136   1.209   5.977  0.4062 -0.2380  0.0483
30111ION     NA47635   1.747  16.869   1.122 -0.1183  0.2325  0.2690
30112ION     NA47636  17.031   7.448   5.557  0.1529 -0.2701  0.4534
30113ION     NA47637   6.310   9.045  10.521 -0.4114  0.0046 -0.1196
30114ION     NA47638   8.034   5.578   0.601  0.0456  0.3449 -0.0835
30115ION     NA47639   1.999  10.913  11.551  0.0041 -0.0281  0.0709
30116ION     NA47640  16.944   5.306   5.340 -0.1915  0.2158  0.0469
30117ION     NA47641   8.934   5.446   5.671  0.2255  0.0899 -0.2123
30118ION     NA47642  17.953   3.071  10.209  0.0756 -0.0015  0.3382
30119ION     NA47643   5.465  11.217   3.116 -0.1807 -0.0606 -0.0036
30120ION     NA47644  17.951  10.089   5.866  0.2820  0.1452  0.3426
30121ION     NA47645   1.373   5.990   4.958  0.3197  0.1214 -0.2275
30122ION     NA47646  15.373  15.192   1.761 -0.1254 -0.1771 -0.0746
30123ION     NA47647   3.389   4.138  10.211 -0.1020 -0.1406  0.0814
30124ION     NA47648  15.058   3.724  10.275  0.0513  0.1029  0.0958
30125ION     NA47649  16.057   3.286  11.184 -0.1444  0.3506  0.2928
30126ION     NA47650   5.966  15.871  10.038  0.1778 -0.1673  0.0715
30127ION     NA47651   2.080   6.782   5.259  0.0117  0.4564 -0.1646
30128ION     NA47652  16.436  12.788   0.626  0.1778  0.1170 -0.1285
30129ION     NA47653   7.290   2.278  10.440 -0.0436 -0.1784  0.2050
30130ION     NA47654   7.848  17.595   5.726  0.1562  0.3406  0.0655
30131ION     NA47655   5.682   8.289  10.624 -0.3073  0.2513  0.3619
30132ION     NA47656  13.875  14.708   1.879  0.3389 -0.1979 -0.0279
30133ION     NA47657   5.765   4.593   1.547 -0.0015  0.0142 -0.0487
30134ION     NA47658   9.345  10.481  10.904  0.0523  0.0818  0.3684
30135ION     NA47659   4.627   8.333   4.926 -0.1457 -0.0176  0.1119
30136ION     NA47660   1.820   8.366   5.494  0.1881  0.2549 -0.0951
30137ION     NA47661  15.391   0.560  10.457  0.1989  0.2561  0.3437
30138ION     NA47662  18.005  15.111   5.391  0.0550 -0.0289  0.1062
30139ION     NA47663  12.417   2.842   5.405  0.4540 -0.0023 -0.6291
30140ION     NA47664   9.987  14.132   5.716  0.3601 -0.1664 -0.0141
30141ION     NA47665   3.311  13.469   5.433 -0.0468 -0.1457  0.0229
30142ION     NA47666  17.071  11.626   5.541 -0.0692  0.2922 -0.2028
30143ION     NA47667  11.593   0.071  12.367 -0.0024  0.3621 -0.0298
30144ION     NA47668   7.798  18.281  10.577 -0.0360  0.0442  0.3555
30145ION     NA47669   0.821   0.452  10.100  0.3783  0.1794  0.1556
30146ION     NA47670  10.887  11.422   5.849  0.3121 -0.1714  0.2918
30147ION     NA47671   3.606   6.880  10.458  0.0040  0.0356  0.0528
30148ION     NA47672   4.371  14.173  12.420 -0.1493  0.3196 -0.2167
30149ION     NA47673  15.253   9.787   4.813  0.2186  0.4811  0.3441
30150ION     NA47674  16.694   1.504   5.656 -0.1164  0.0082  0.1946
30151ION     NA47675   4.187  15.919  15.637 -0.3342  0.0493 -0.0959
30152ION     NA47676  11.777   2.141   5.536 -0.0455 -0.1010  0.2065
30153ION     NA47677   7.583  11.505   5.608  0.0685 -0.0866  0.1394
30154ION     NA47678  14.104   1.851   5.820  0.0186  0.2066 -0.2798
30155ION     NA47679  17.875  11.678  10.250 -0.0157 -0.2125  0.0317
30156ION     NA47680   3.669  11.496  10.386  0.3603  0.1114  0.0232
30157ION     NA47681   2.931  14.035   1.600 -0.1758  0.2423  0.1708
30158ION     NA47682  16.967  12.172  11.969  0.0591 -0.0506 -0.0413
30159ION     NA47683  13.563  14.324  10.507 -0.1759  0.3073  0.0572
30160ION     NA47684   4.961  13.122  12.237 -0.2778  0.1568  0.0530
30161ION     NA47685   1.613   6.658  10.127 -0.0579  0.0176 -0.2289
30162ION     NA47686   9.951   4.611  10.211 -0.0883 -0.2221  0.2433
30163ION     NA47687   5.784  13.237  10.168 -0.0133  0.2875 -0.2500
30164ION     NA47688   2.643  16.391   9.942  0.0160  0.1244  0.0795
30165ION     NA47689   9.294   6.177   5.666 -0.1860 -0.0368  0.0632
30166ION     NA47690  15.081   6.144  10.594 -0.0170 -0.2709  0.2030
30167ION     NA47691  10.357   9.475  10.487 -0.1162  0.1161  0.0809
30168ION     NA47692   4.637   7.520  10.376  0.1261  0.1753  0.0187
30169ION     NA47693   9.091  15.488   6.148 -0.0657 -0.1342 -0.0890
30170ION     NA47694   8.000   3.893  10.202  0.0583  0.0240 -0.0181
30171ION     NA47695  11.081  14.780  15.450  0.0547 -0.0648 -0.0214
30172ION     NA47696  17.175  10.009   1.567 -0.1115  0.1966 -0.0727
30173ION     NA47697  17.566  10.597  10.553  0.0043 -0.1813  0.3120
30174ION     NA47698  12.859  12.630  10.652  0.1200  0.0050 -0.0429
30175ION     NA47699   6.491   6.276   2.182  0.0997  0.0765 -0.2567
30176ION     NA47700   9.511   6.842   5.541  0.0249  0.0592 -0.2387
30177ION     NA47701   4.151   9.981   4.673 -0.3965 -0.0186  0.4539
30178ION     NA47702  10.788   0.254   0.641  0.0154 -0.1063  0.0428
30179ION     NA47703  12.458  17.258  10.533  0.1553 -0.1361 -0.1392
30180ION     NA47704  10.305  18.331  10.777  0.1493  0.0779 -0.1571
30181ION     NA47705   6.935  14.372  10.321  0.0160  0.0949 -0.2077
30182ION     NA47706   6.289   7.259  10.221  0.1543  0.1983 -0.2064
30183ION     NA47707  12.356   8.678  10.674 -0.0123  0.2043  0.2711
30184ION     NA47708   6.887  10.923   5.548  0.0267 -0.1852  0.0572
30185ION     NA47709   6.712  17.409  14.404  0.3178 -0.2229  0.0334
30186ION     NA47710  13.800   6.665   5.753 -0.2376  0.0455 -0.2510
30187ION     NA47711  15.979   2.051  10.331 -0.0471  0.2512  0.1014
30188ION     NA47712  11.467   8.996  14.566  0.1856  0.2355  0.1195
30189ION     NA47713   0.254  13.983   0.311 -0.4788  0.3075 -0.4514
30190ION     NA47714   7.676  15.572  12.759  0.0647 -0.0214 -0.0027
30191ION     NA47715   1.380  16.359   5.205  0.0053  0.1264 -0.1866
30192ION     NA47716   6.375  12.168   0.277  0.1078 -0.3558 -0.0755
30193ION     NA47717  11.528   0.359   5.749  0.0777  0.0639  0.0405
30194ION     NA47718   3.553  13.999  14.221  0.2033  0.2162 -0.0722
30195ION     NA47719   1.878  13.365   5.646 -0.0186 -0.2908 -0.0963
30196ION     NA47720  11.602  11.977  10.478  0.2393  0.0273 -0.4256
30197ION     NA47721  18.160  17.359  10.296  0.0558  0.1687  0.1047
30198ION     NA47722   6.337   1.297   5.844 -0.1303  0.1740 -0.1225
30199ION     NA47723   8.221   8.921  11.044  0.1186  0.0783  0.1181
30200ION     NA47724   8.240  13.956   5.775 -0.0933  0.0236 -0.2550
30201ION     NA47725   0.425  16.409   5.624  0.4473 -0.1445 -0.0293
30202ION     NA47726   5.313  10.659  11.875 -0.0942 -0.2553 -0.0449
30203ION     NA47727  14.195  14.837  10.597  0.0019 -0.0722  0.1361
30204ION     NA47728   0.019  13.886   3.239  0.1236 -0.1758  0.1691
30205ION     NA47729   9.196  11.026   5.523  0.1201 -0.1961 -0.1883
30206ION     NA47730   7.042  17.904  10.528  0.0012 -0.3003  0.0790
30207ION     NA47731   4.094   6.245  14.597 -0.3899 -0.1413  0.0662
30208ION     NA47732   0.166   8.328   4.757 -0.1181  0.0981 -0.0560
30209ION     NA47733   8.486   3.510   2.834 -0.2889  0.0391 -0.0797
30210ION     NA47734  14.187   2.327   5.802  0.2254  0.0555 -0.0558
30211ION     NA47735  11.721  14.585  10.732 -0.0593  0.1004  0.3606
30212ION     NA47736   6.644   2.752   2.730 -0.3678  0.0712  0.2074
30213ION     NA47737   8.752   0.835   2.453  0.0409 -0.2129 -0.1470
30214ION     NA47738  12.456   9.587  10.329  0.1039 -0.1226  0.3874
30215ION     NA47739   2.469   0.609  10.039  0.1867 -0.1397  0.0525
30216ION     NA47740  12.227   2.929  12.474 -0.0262  0.1786 -0.3268
30217ION     NA47741   4.440   3.334  10.535  0.1721 -0.0564  0.2330
30218ION     NA47742  13.468  12.028  10.552 -0.2064  0.0336 -0.1865
30219ION     NA47743   6.051   0.786   3.872 -0.2770 -0.1909  0.2405
30220ION     NA47744  16.732  10.954  13.712  0.2558 -0.1073  0.1626
30221ION     NA47745  12.921   6.637   4.952 -0.0491 -0.0370  0.0486
30222ION     NA47746   3.778  15.544   4.344  0.0875  0.2786 -0.4055
30223ION     NA47747   2.717   3.251  10.219  0.0188 -0.3939 -0.1751
30224ION     NA47748   4.147  14.327  10.253  0.2076  0.1926 -0.0147
30225ION     NA47749   9.250   0.804   5.888  0.0315  0.2349  0.0480
30226ION     NA47750  14.091   8.061   5.782 -0.0685  0.0950 -0.1906
30227ION     NA47751   3.384  14.757   9.874  0.1114  0.1778 -0.0384
30228ION     NA47752   1.350  16.353   5.737  0.2318  0.0839  0.2973
30229ION     NA47753   2.838  17.943   5.690 -0.0054  0.0292  0.0031
30230ION     NA47754   1.977  18.332  15.429  0.0225 -0.0979 -0.0287
30231ION     NA47755   2.981  18.133  10.412  0.1106  0.2310 -0.1558
30232ION     NA47756  13.005  13.082  14.625  0.3397 -0.1440 -0.1470
30233ION     NA47757   9.080   2.052   4.378  0.0582 -0.0679 -0.0703
30234ION     NA47758  13.147  14.825  12.848  0.3398 -0.2999 -0.0189
30235ION     NA47759  17.568   1.143  10.086 -0.0679  0.0722 -0.0391
30236ION     NA47760   6.947  10.208  11.592  0.0652  0.1896 -0.2085
30237ION     NA47761   6.101   5.201   5.231 -0.1980 -0.0479 -0.5131
30238ION     NA47762   0.596  11.693  12.278 -0.4526  0.0754 -0.0826
30239ION     NA47763   0.382   3.078   5.292 -0.1752 -0.2506 -0.2544
30240ION     NA47764  13.946   0.604  10.474  0.1585 -0.2604  0.0483
30241ION     NA47765  12.356  16.383  10.873  0.2996  0.6905 -0.3736
30242ION     NA47766   4.661  12.317  10.830  0.1811 -0.0744 -0.0611
30243ION     NA47767  10.510   8.317  10.173  0.0756 -0.0501 -0.3432
30244ION     NA47768  10.330   8.266  12.079 -0.1214 -0.5543 -0.1937
30245ION     NA47769   1.313  13.892  13.987  0.0640  0.1006 -0.2154
30246ION     NA47770  13.092   3.538   5.294  0.0776  0.3011 -0.1754
30247ION     NA47771   2.099  14.574   9.931 -0.0003 -0.2107 -0.2863
30248ION     NA47772   4.628   8.150   1.542 -0.0378 -0.1407 -0.0797
30249ION     NA47773   0.879  14.539   9.919 -0.0091  0.4323  0.3781
30250ION     NA47774  12.697   7.816  10.442  0.1280 -0.1878 -0.0335
30251ION     NA47775  14.890   8.801   5.686  0.2870  0.2252 -0.5793
30252ION     NA47776   5.958  14.078  10.209 -0.0929 -0.1746 -0.1346
30253ION     NA47777   1.448   1.491  10.060  0.0924 -0.0360 -0.1495
30254ION     NA47778   5.827   6.565   0.635  0.3408 -0.4561  0.1496
30255ION     NA47779  14.427   6.246   4.007  0.0506 -0.1801  0.1231
30256ION     NA47780  17.834  10.068   0.837 -0.1670 -0.1779  0.3818
30257ION     NA47781   2.131  15.812   5.540 -0.1953 -0.4181  0.0425
30258ION     NA47782  13.539  12.097   6.010 -0.0683  0.3252 -0.0799
30259ION     NA47783  10.187   3.384  14.269 -0.2907 -0.0292 -0.1519
30260ION     NA47784   6.336   1.712   0.250 -0.0230 -0.1873  0.1017
30261ION     NA47785   8.191   5.613   2.727 -0.0011  0.1985 -0.3313
30262ION     NA47786   3.223   9.085  15.454  0.1363 -0.1635  0.1523
30263ION     NA47787   5.517  12.462   5.395 -0.0351 -0.4828 -0.1832
30264ION     NA47788   1.940  11.495  10.132 -0.2182  0.0897  0.0579
30265ION     NA47789  16.155   8.515  10.674  0.1791  0.0358 -0.1826
30266ION     NA47790   0.070  15.557   5.386  0.1861 -0.0843  0.0599
30267ION     NA47791   3.540   9.239  10.563 -0.1235 -0.0702 -0.3037
30268ION     NA47792   4.988  14.953  10.089 -0.1175  0.0126  0.0787
30269ION     NA47793   5.747  18.080  10.497  0.0411  0.1066  0.0764
30270ION     NA47794   0.285  10.602   0.918  0.0610 -0.0782  0.1752
30271ION     NA47795  13.608   6.349  10.224 -0.0491 -0.0531 -0.1010
30272ION     NA47796   8.993  11.421  11.878  0.1409 -0.0499 -0.0227
30273ION     NA47797   5.500  11.857  10.451  0.2425 -0.0913  0.2183
30274ION     NA47798   3.731  15.200   5.430  0.1111  0.1166  0.0004
30275ION     NA47799   3.942   6.213   5.585 -0.2682  0.3764 -0.1669
30276ION     NA47800   7.761   0.436   4.853 -0.2881 -0.1692 -0.0055
30277ION     NA47801  13.829  12.261   2.639 -0.0254  0.0946  0.1197
30278ION     NA47802   2.440   6.425  10.177 -0.2505 -0.0700 -0.1141
30279ION     NA47803   5.033  10.920   5.613 -0.3859  0.1433  0.1150
30280ION     NA47804   5.508  10.719  10.266  0.0916 -0.3714  0.1098
30281ION     NA47805   1.042   5.166   5.512  0.2759 -0.0115  0.0818
30282ION     NA47806   2.991   5.885   9.942 -0.0414  0.2988  0.5671
30283ION     NA47807   1.676  18.393  10.049  0.0790  0.0795  0.0386
30284ION     NA47808  10.686  10.906  10.490  0.2799 -0.2270 -0.3259
30285ION     NA47809  13.547   6.853   1.204  0.1242  0.0333  0.1889
30286ION     NA47810  16.846   0.030  13.748 -0.1078 -0.1308 -0.0018
30287ION     NA47811   1.989   4.309   3.601  0.0600 -0.3605  0.0121
30288ION     NA47812  10.502   0.486  10.976  0.1376 -0.0358 -0.0894
30289ION     NA47813  12.371  11.583  10.592  0.0140  0.1561 -0.3236
30290ION     NA47814  15.559  13.017  15.743 -0.0856 -0.1849  0.0948
30291ION     NA47815   9.948   5.340   2.323 -0.0285 -0.4952  0.1124
30292ION     NA47816  17.324   0.333   5.546 -0.0713  0.1164  0.1157
30293ION     NA47817   7.094   3.010  11.250 -0.0685  0.0561 -0.0115
30294ION     NA47818   3.158  13.832  10.332 -0.0337 -0.0427  0.4296
30295ION     NA47819   4.546   2.033  10.268  0.4598  0.1840 -0.1612
30296ION     NA47820  15.782  15.005  10.999  0.0432 -0.1278 -0.5757
30297ION     NA47821   6.016   9.309   9.959  0.0292 -0.0611 -0.2571
30298ION     NA47822   5.340  12.663  10.315 -0.0655 -0.2296 -0.1232
30299ION     NA47823  12.624   1.520   3.665 -0.1517  0.1276  0.0271
30300ION     NA47824   5.075  11.884  15.136  0.1415 -0.1673 -0.1792
30301ION     NA47825  15.679   1.504  10.328 -0.2628  0.1114  0.1260
30302ION     NA47826   6.014  10.684   5.606  0.2182 -0.2262 -0.3335
30303ION     NA47827   2.933   3.038   5.564  0.0090  0.1846  0.0284
30304ION     NA47828   0.073   8.976  10.205 -0.1708  0.2141  0.2876
30305ION     NA47829  17.651   7.883   5.603 -0.1136 -0.4205  0.0762
30306ION     NA47830  10.460   0.440   1.877  0.0003  0.3224 -0.1109
30307ION     NA47831  13.593  18.253  10.390 -0.2710 -0.0577  0.1989
30308ION     NA47832  15.357   3.439   1.917  0.2205 -0.0607  0.0121
30309ION     NA47833   5.527  15.152  13.559  0.0438 -0.0905 -0.2302
30310ION     NA47834   8.912   4.323  10.271  0.3647  0.0407  0.2366
30311ION     NA47835   0.081  13.375  10.181 -0.1324  0.1579 -0.1045
30312ION     NA47836  10.412  10.135  15.693  0.0494  0.0002 -0.0010
30313ION     NA47837   8.233   2.172   5.491 -0.1203 -0.3596 -0.0729
30314ION     NA47838  16.115  12.076  10.481 -0.0119 -0.3893  0.1284
30315ION     NA47839  10.556   4.467   3.285  0.1075  0.0437 -0.0740
30316ION     NA47840   1.735  17.463   9.971 -0.0777 -0.1290 -0.4490
30317ION     NA47841   7.567  11.973  10.500 -0.1602  0.0526 -0.0476
30318ION     NA47842   6.207  11.701   5.570  0.3192  0.1664  0.0586
30319ION     NA47843   3.514   3.401   5.453  0.2048 -0.3820 -0.0169
30320ION     NA47844   7.493   8.000   5.501 -0.0233 -0.0091 -0.0908
30321ION     NA47845  16.732   3.363   5.436 -0.1612 -0.2073  0.3301
30322ION     NA47846  13.141  14.711   5.887  0.3276  0.3440  0.0304
30323ION     NA47847   1.534  15.379   5.461  0.0384 -0.1292 -0.2023
30324ION     NA47848  12.526   5.073  10.269  0.2248 -0.2450  0.3254
30325ION     NA47849   0.323   0.513  13.911 -0.4056 -0.0809 -0.0356
30326ION     NA47850   6.983   4.010  10.046  0.0288 -0.0630 -0.0477
30327ION     NA47851  14.297   3.088  10.408  0.0680 -0.1648  0.0651
30328ION     NA47852   6.839   8.959  11.228  0.1318  0.1220  0.0394
30329ION     NA47853  13.226   7.596   5.804  0.1510  0.1633 -0.0077
30330ION     NA47854  11.861   1.625  10.366  0.3253 -0.1502  0.2140
30331ION     NA47855   0.923  11.792  10.286  0.0537  0.1874 -0.1084
30332ION     NA47856   2.163  14.504   1.847  0.0753 -0.0540  0.3725
30333ION     NA47857   3.355  10.227   2.963  0.3676 -0.2639  0.1714
30334ION     NA47858  12.342   4.953  14.094 -0.0930  0.1316 -0.0962
30335ION     NA47859   2.079   9.198   5.411 -0.3130  0.0016  0.2257
30336ION     NA47860   8.243   4.904  10.145  0.0702 -0.0289 -0.0521
30337ION     NA47861   1.156  15.332  12.728  0.0491 -0.2337  0.1028
30338ION     NA47862   5.629  16.577   2.350  0.3011  0.2817 -0.1480
30339ION     NA47863  10.270  16.734  10.650  0.1626  0.0553  0.3336
30340ION     NA47864  11.048   7.354  15.618 -0.4805 -0.0650  0.0398
30341ION     NA47865   3.671  17.020  13.599 -0.0200  0.0542  0.0361
30342ION     NA47866  16.943  13.945  12.991  0.2135 -0.2726  0.2790
30343ION     NA47867   8.869  13.404   5.941 -0.1721  0.0353  0.1374
30344ION     NA47868   8.741  15.706  10.658 -0.1473 -0.3813  0.0294
30345ION     NA47869   4.790   1.700   5.518  0.0748  0.2148  0.1456
30346ION     NA47870  12.798   6.462  11.988 -0.0572  0.0922 -0.2144
30347ION     NA47871   2.176  10.575   5.598  0.2712  0.0790  0.3037
30348ION     NA47872   5.222   7.529  10.398 -0.3331 -0.1137 -0.3248
30349ION     NA47873  10.690   8.903   5.356  0.0260  0.0608  0.0341
30350ION     NA47874   9.602  12.105  10.371 -0.1920  0.5017 -0.0324
30351ION     NA47875  10.981   7.593  10.459 -0.2240  0.2467  0.2958
30352ION     NA47876   4.190  10.723  14.357 -0.0994  0.0658 -0.0697
30353ION     NA47877   1.664  13.928   5.263 -0.3978  0.1910 -0.2718
30354ION     NA47878  17.697   9.266  10.258 -0.5786 -0.1534 -0.0499
30355ION     NA47879  16.384   9.947   0.529  0.0136 -0.3517  0.2442
30356ION     NA47880   0.605   5.924  13.962 -0.0517  0.0802  0.3042
30357ION     NA47881  16.771   6.796   5.361  0.0950  0.0659 -0.1372
30358ION     NA47882  14.880   2.219  10.602 -0.2126  0.1955  0.0923
30359ION     NA47883  12.424   7.373   5.539  0.0476 -0.0557  0.2783
30360ION     NA47884   1.492   9.359  10.844  0.3262  0.1212 -0.3744
30361ION     NA47885   9.502  17.377  10.346  0.0073  0.0709  0.2593
30362ION     NA47886  16.487   8.723   2.891 -0.0799  0.1238 -0.0352
30363ION     NA47887  15.320   0.407  14.976  0.2735  0.3196 -0.3037
30364ION     NA47888  17.868   0.759  15.043 -0.0164 -0.0576  0.0315
30365ION     NA47889   0.506   0.912  13.217  0.0308 -0.0628 -0.1495
30366ION     NA47890  12.512  17.917   6.008 -0.3147  0.1607  0.0357
30367ION     NA47891  14.117  10.831  10.612 -0.1328  0.0525 -0.1241
30368ION     NA47892   8.591  11.123  15.663  0.0256  0.0056  0.3167
30369ION     NA47893   5.584   7.419   5.115 -0.6676 -0.0731 -0.1059
30370ION     NA47894   8.661  17.298   5.893 -0.0951  0.0690  0.0984
30371ION     NA47895  11.974   5.470   3.266 -0.1135  0.0435 -0.1239
30372ION     NA47896   5.087   5.905  10.365  0.0876 -0.0911  0.1400
30373ION     NA47897   2.289   7.262  10.100 -0.2254 -0.0637 -0.0635
30374ION     NA47898  16.988   8.826   9.997  0.0577 -0.0360 -0.2721
30375ION     NA47899  16.585   5.055  14.779 -0.0879  0.0244  0.1064
30376ION     NA47900  14.120  17.410  10.465  0.0697  0.3809  0.2235
30377ION     NA47901   8.685  18.324  10.553 -0.0838  0.1859 -0.0026
30378ION     NA47902  15.906  12.274   5.944 -0.3265 -0.2224 -0.1428
30379ION     NA47903  13.104   0.567  10.621 -0.0248 -0.0145  0.0509
30380ION     NA47904  13.395   2.983  10.080 -0.0140  0.0810  0.1320
30381ION     NA47905   7.168  17.411  10.597  0.0332  0.0465  0.0300
30382ION     NA47906  12.714   6.296  10.214 -0.0602  0.0697  0.0012
30383ION     NA47907   8.250  12.176   5.442  0.2536  0.2451 -0.2696
30384ION     NA47908  18.146   0.643   5.544  0.1330 -0.2900 -0.0005
30385ION     NA47909  10.542  16.403   5.671 -0.2022  0.1029 -0.2116
30386ION     NA47910   6.493  12.175  11.918 -0.0868  0.1854  0.2568
30387ION     NA47911  14.449  16.191   5.992  0.1622 -0.1497 -0.0606
30388ION     NA47912  14.338   0.889  14.391  0.2354 -0.0713 -0.2935
30389ION     NA47913  13.252   5.546  10.225  0.2633  0.0008  0.0079
30390ION     NA47914  10.596  11.946  10.541  0.0857  0.1466 -0.0092
30391ION     NA47915   6.186  13.385  12.125  0.2874 -0.2363 -0.0167
30392ION     NA47916   8.540   7.505  10.200  0.1937  0.2940 -0.1800
30393ION     NA47917   6.275  12.440  11.116  0.3003 -0.1423 -0.1369
30394ION     NA47918   4.743   3.792   1.929  0.0502  0.0257 -0.2058
30395ION     NA47919   9.379   9.717   5.508  0.0115  0.6488  0.2010
30396ION     NA47920   0.849   2.914  10.079  0.4069  0.0876 -0.2182
30397ION     NA47921  14.456   6.760  10.283 -0.0024  0.2028 -0.2013
30398ION     NA47922   7.117   0.821   5.658 -0.2055 -0.2320 -0.0222
30399ION     NA47923  13.938   9.690  10.853 -0.2069 -0.2072 -0.0450
30400ION     NA47924   1.129   3.994   5.297 -0.3367  0.0557 -0.2652
30401ION     NA47925  17.676  15.947   5.574 -0.1187 -0.0241  0.1324
30402ION     NA47926   3.423  15.811  10.007  0.1234 -0.1584 -0.1762
30403ION     NA47927   1.913   8.096  10.755 -0.2604  0.1208  0.1180
30404ION     NA47928   6.550  10.049  10.247  0.2388  0.0324  0.3405
30405ION     NA47929   6.532   6.232  15.717  0.0418 -0.0093  0.0555
30406ION     NA47930   0.570  12.189   5.730 -0.2250 -0.3205 -0.1606
30407ION     NA47931  13.441   0.525  13.195  0.2384  0.0986  0.1057
30408ION     NA47932   7.027   6.958  10.830 -0.1995 -0.2695 -0.1263
30409ION     NA47933   5.565   5.764  10.387  0.2468 -0.1629  0.0211
30410ION     NA47934  12.165  11.574   5.789 -0.2276 -0.2222  0.2036
30411ION     NA47935  17.491  13.754  10.227 -0.1513  0.1445  0.0256
30412ION     NA47936   0.046  13.008  10.647 -0.0847 -0.0435  0.0327
30413ION     NA47937   2.288   4.746   5.649  0.3124  0.2872  0.0036
30414ION     NA47938   7.820  10.651   5.550  0.2704 -0.2013 -0.1011
30415ION     NA47939   7.376   9.941  10.252 -0.2247 -0.2615  0.2701
30416ION     NA47940   5.774   8.552  10.198 -0.0937 -0.2649 -0.0051
30417ION     NA47941  11.416  10.102   1.216 -0.3708  0.0140  0.1899
30418ION     NA47942   1.667   1.993   5.579  0.2152 -0.4518  0.1539
30419ION     NA47943  14.195   7.581   5.910  0.2158  0.0200 -0.0743
30420ION     NA47944  11.954   0.661  14.721 -0.1076 -0.1232  0.2911
30421ION     NA47945   3.264   7.218  14.294 -0.0527 -0.1500  0.2514
30422ION     NA47946  11.372   4.485  10.027  0.1360 -0.1112  0.1473
30423ION     NA47947  15.099   6.605  12.930 -0.1251 -0.1096  0.1169
30424ION     NA47948  13.180   2.536  11.430  0.3622 -0.1298  0.0550
30425ION     NA47949   8.619  13.776  13.503  0.0579 -0.0767 -0.2262
30426ION     NA47950   5.563   8.074  15.402 -0.0758  0.0707 -0.0028
30427ION     NA47951  13.259  17.903   5.880  0.0557 -0.0496  0.0169
30428ION     NA47952   8.548  16.470   2.616 -0.1367  0.1903  0.0731
30429ION     NA47953  15.370  10.690  10.478 -0.0423  0.1858  0.1711
30430ION     NA47954  13.456  17.756   1.410 -0.0756 -0.1294  0.1039
30431ION     NA47955   7.397   5.091  10.009  0.0911  0.0188 -0.2769
30432ION     NA47956  10.557  13.564   5.909  0.2065 -0.0059  0.1265
30433ION     NA47957   6.095   7.225  11.828  0.1750 -0.1105  0.1291
30434ION     NA47958   3.853   9.449   2.616 -0.1647 -0.2076 -0.0830
30435ION     NA47959   5.556   1.324  14.082 -0.1432  0.0282  0.2171
30436ION     NA47960   4.734  10.031  10.415 -0.1287  0.0849  0.0203
30437ION     NA47961   5.819   3.290  10.327 -0.2440  0.0019  0.0552
30438ION     NA47962  14.413  16.632   1.795 -0.1204  0.0812  0.2324
30439ION     NA47963   4.258   6.669   5.638  0.0295  0.2902 -0.0982
30440ION     NA47964   8.048   1.300  11.087  0.2021 -0.1107 -0.1401
30441ION     NA47965  13.418   4.609  10.290 -0.2136  0.0126  0.1106
30442ION     NA47966   9.350   9.647  10.839 -0.1324 -0.1600 -0.1890
30443ION     NA47967  11.653  15.281   5.889 -0.4222 -0.1704 -0.5232
30444ION     NA47968  11.751  18.345   5.981  0.2293 -0.2606 -0.2778
30445ION     NA47969  13.328   2.159   6.010 -0.2937 -0.4329 -0.1214
30446ION     NA47970   1.813   1.113   5.524 -0.1626 -0.1376 -0.1277
30447ION     NA47971  17.389  11.227   9.976 -0.0641  0.1999  0.0680
30448ION     NA47972  12.688   4.767   9.930  0.1482 -0.1041 -0.2706
30449ION     NA47973  11.988   6.374  10.279  0.2982  0.1410 -0.3163
30450ION     NA47974   5.462   4.250   5.046 -0.0864  0.1326 -0.1841
30451ION     NA47975   0.938   3.537  14.458 -0.3368  0.0395 -0.2634
30452ION     NA47976  10.106  12.025  11.300 -0.0899  0.0558  0.1394
30453ION     NA47977   2.470  15.418   5.457 -0.0049  0.2044  0.3463
30454ION     NA47978   2.915   1.961  10.390  0.1012 -0.0379 -0.0887
30455ION     NA47979  11.616   3.415  10.311  0.0126 -0.2408 -0.0369
30456ION     NA47980   3.235  16.785  10.057  0.0153  0.0711  0.1215
30457ION     NA47981   8.607   6.995   5.604 -0.1992 -0.1121 -0.0139
30458ION     NA47982  10.779   1.966   5.849  0.1124 -0.2534  0.2346
30459ION     NA47983   4.218   9.259  10.326  0.0678 -0.1118 -0.0278
30460ION     NA47984   8.268   1.548  10.560  0.1991  0.3403 -0.1509
30461ION     NA47985  14.051  13.555  11.727 -0.2563  0.0333 -0.2754
30462ION     NA47986   5.680   6.733  10.258 -0.1681 -0.2812 -0.0619
30463ION     NA47987   9.191  12.509   5.801 -0.2265  0.1176 -0.0013
30464ION     NA47988   5.243  10.268   4.910  0.0722 -0.2934  0.0229
30465ION     NA47989  16.666  11.306   3.395  0.2179 -0.0621  0.1135
30466ION     NA47990  13.028   0.864   2.406 -0.0493  0.0458 -0.0710
30467ION     NA47991   2.469  10.706   4.111  0.0800 -0.0905  0.0498
30468ION     NA47992  12.709   6.571   3.209  0.0847 -0.1295 -0.1020
30469ION     NA47993   1.596   5.195  15.668  0.0234  0.4425 -0.0182
30470ION     NA47994   6.745   9.065  10.107 -0.3570  0.3520  0.0063
30471ION     NA47995   8.431   9.687   5.740  0.0249  0.1023 -0.2343
30472ION     NA47996   0.037   1.976   5.217  0.1535  0.0268 -0.2871
30473ION     NA47997  17.257   2.576  10.364 -0.2761  0.0509 -0.0235
30474ION     NA47998   6.329   4.562   5.374  0.0663 -0.1919  0.1816
30475ION     NA47999  16.379   8.128  10.241 -0.3513  0.3562 -0.2724
30476ION     NA48000  11.897   3.042  10.255 -0.0732 -0.2207  0.1567
30477ION     NA48001   8.005   8.105  10.005 -0.0982  0.1177  0.3483
30478ION     NA48002   3.806  14.267   5.585 -0.2702 -0.0650  0.1651
30479ION     NA48003  15.151  17.663  10.426 -0.0910  0.3952 -0.0319
30480ION     NA48004   5.478   6.745  11.252 -0.0746  0.2246 -0.2374
30481ION     NA48005  17.953  16.758   5.576  0.0826 -0.2543  0.0230
30482ION     NA48006  16.404   1.201  10.818  0.0482  0.0756  0.0655
30483ION     NA48007   7.578  10.923  10.460 -0.1683  0.0183 -0.3089
30484ION     NA48008   7.993  11.219  10.570  0.1932 -0.3445 -0.3093
30485ION     NA48009   7.132   3.551  10.021  0.1705 -0.0544  0.1434
30486ION     NA48010   0.738   7.598   5.528 -0.0085 -0.4130  0.1124
30487ION     NA48011  14.439  12.715   3.800 -0.0207 -0.0089  0.1347
30488ION     NA48012   4.867  15.770  10.718  0.0625 -0.1485  0.0637
30489ION     NA48013   6.510   3.193   5.114  0.1757 -0.1288 -0.0834
30490ION     NA48014   4.194   2.895  10.339 -0.3134 -0.0755  0.0240
30491ION     NA48015   3.294  11.068  15.687  0.3122  0.0050  0.1843
30492ION     NA48016  11.143   5.178   5.197  0.4832  0.0878  0.1541
30493ION     NA48017  10.133  10.682  14.877  0.0019  0.0797 -0.0426
30494ION     NA48018   6.006   8.582  12.156 -0.1479  0.0966  0.0622
30495ION     NA48019   0.894  10.935   3.173  0.0265  0.1247  0.0926
30496ION     NA48020  13.755   6.033   2.794 -0.4108  0.2144 -0.3049
30497ION     NA48021   3.183   4.415   5.408  0.1473 -0.0126  0.1300
30498ION     NA48022  17.792  12.412   4.862  0.1397  0.0837  0.2272
30499ION     NA48023   4.378  16.592  10.247  0.0929  0.2741  0.1674
30500ION     NA48024   1.254   2.232  10.284  0.1253 -0.0387  0.0212
30501ION     NA48025  13.930  17.589   4.654  0.0752  0.3130 -0.3373
30502ION     NA48026  16.225  11.617   5.781 -0.1620 -0.0303  0.0966
30503ION     NA48027   8.100  16.091   1.698 -0.1153  0.5530 -0.3019
30504ION     NA48028   9.318   7.247  12.057  0.3776 -0.1023  0.0613
30505ION     NA48029   1.976  12.923  10.108 -0.0570  0.0700  0.0415
30506ION     NA48030   5.212   9.591   5.053  0.3676  0.2922 -0.0573
30507ION     NA48031   2.780  10.800  10.372  0.2099  0.0483 -0.2089
30508ION     NA48032  10.111   5.962  10.528 -0.2613 -0.3598  0.1671
30509ION     NA48033   7.053   0.176  10.957 -0.2204 -0.0323 -0.2229
30510ION     NA48034  17.569   1.175   4.956 -0.0138  0.0786 -0.0882
30511ION     NA48035  13.976  17.211   5.861 -0.1702 -0.0225 -0.1808
30512ION     NA48036  16.307   5.346   5.363  0.1106 -0.3167  0.0848
30513ION     NA48037   0.417   4.659   5.469 -0.0965  0.0170 -0.2072
30514ION     NA48038  11.014  15.660   6.097  0.2084 -0.0615  0.1274
30515ION     NA48039  12.493   1.803   5.576 -0.1493  0.0965  0.0787
30516ION     NA48040   1.225  14.166  10.067  0.0060  0.1982  0.0924
30517ION     NA48041  18.047  15.559  11.429  0.1710 -0.0413  0.3007
30518ION     NA48042  14.978  15.324   5.760  0.2151 -0.0439  0.1183
30519ION     NA48043  10.424  15.911  11.239 -0.2102 -0.2682 -0.0420
30520ION     NA48044  16.061   0.951   1.999  0.1538  0.1796 -0.0874
30521ION     NA48045   7.750  16.410  10.726  0.1278  0.1081 -0.5320
30522ION     NA48046  16.573   3.295  10.303  0.0039 -0.1212  0.0810
30523ION     NA48047  12.455   4.052   4.999  0.1824  0.0446  0.1612
30524ION     NA48048   4.632   4.319  10.131 -0.0683  0.1839  0.2188
30525ION     NA48049  11.500  16.716  12.646 -0.0560  0.1934 -0.2696
30526ION     NA48050   7.805  15.666   5.628  0.0098 -0.0702 -0.0259
30527ION     NA48051  11.562  10.183   4.842 -0.2576 -0.1492 -0.0940
30528ION     NA48052   3.527  17.742  10.327  0.2622 -0.2907  0.2578
30529ION     NA48053  12.865  10.036   5.986 -0.0186  0.5064  0.4736
30530ION     NA48054   2.379   1.186  10.341  0.1865 -0.4216  0.1014
30531ION     NA48055  11.265   9.986  10.772  0.2124 -0.1831 -0.0614
30532ION     NA48056  13.671  16.092   6.111  0.0197 -0.0662 -0.2072
30533ION     NA48057   3.141   6.452   3.158  0.0708 -0.0452 -0.2745
30534ION     NA48058   4.972  16.171   9.912 -0.4241  0.0048  0.0771
30535ION     NA48059  11.743  10.945   5.740  0.0715  0.1891 -0.0070
30536ION     NA48060   0.329  18.163  10.256  0.0402  0.0943 -0.0603
30537ION     NA48061  17.380   9.513   5.494 -0.2105  0.1502  0.0289
30538ION     NA48062   8.543   5.251  10.414  0.1377 -0.0366 -0.0255
30539ION     NA48063   8.317  15.172  14.457 -0.0410 -0.0292 -0.0186
30540ION     NA48064   7.143  13.653   5.606  0.1622 -0.2854 -0.0164
30541ION     NA48065   9.678  16.632  13.661  0.2793  0.1133 -0.1868
30542ION     NA48066   4.562   4.905   5.419 -0.2451  0.0169  0.1638
30543ION     NA48067   6.906   8.119  10.225  0.1749  0.1640 -0.1851
30544ION     NA48068   5.041   9.279  10.076 -0.0053  0.0567 -0.0465
30545ION     NA48069  16.744  15.612   3.531  0.0849  0.1661  0.0837
30546ION     NA48070  17.470   0.292   3.409  0.1129 -0.2074  0.2980
30547ION     NA48071  11.709  16.928  10.463 -0.1924  0.0006 -0.0864
30548ION     NA48072   3.400   0.365   5.659 -0.2055 -0.2004  0.1457
30549ION     NA48073  13.438   7.105   5.584  0.2447  0.2322 -0.0783
30550ION     NA48074   2.652  10.283  12.696  0.3167 -0.2391 -0.2468
30551ION     NA48075  10.372  17.982  11.372 -0.0135  0.1252  0.2552
30552ION     NA48076   7.720  15.578   5.072 -0.1864  0.0360 -0.0268
30553ION     NA48077  17.327   4.481  10.841 -0.2468  0.3370 -0.3311
30554ION     NA48078  11.590  12.462   5.904 -0.1124 -0.1080  0.0503
30555ION     NA48079  12.733  17.147   6.182 -0.0600  0.0680  0.4071
30556ION     NA48080  10.420  15.026   5.769  0.2183  0.1805 -0.4756
30557ION     NA48081   6.409  12.432   5.601  0.2524 -0.2131  0.0280
30558ION     NA48082  16.113   7.384   4.285  0.2010 -0.0666 -0.2899
30559ION     NA48083  12.731   1.366  10.406 -0.1082 -0.1619 -0.1510
30560ION     NA48084   9.412   5.200   5.772  0.1067 -0.2177  0.0421
30561ION     NA48085   7.757   8.361   2.389 -0.0566 -0.2996 -0.2131
30562ION     NA48086  16.495   7.148  10.323 -0.2705 -0.0535  0.0692
30563ION     NA48087   6.923   7.361   5.763 -0.5049  0.0252  0.4509
30564ION     NA48088  13.052  14.939   1.871 -0.2110  0.0093  0.1026
30565ION     NA48089  15.674  14.609   5.743 -0.3510 -0.1914  0.0118
30566ION     NA48090  17.595   1.498   5.649 -0.3172 -0.1470 -0.0982
30567ION     NA48091  11.800   8.038   5.784 -0.0442  0.1920  0.5436
30568ION     NA48092  15.686   8.933   5.669 -0.2676 -0.0054  0.0291
30569ION     NA48093   7.473   6.580  15.386 -0.0258 -0.1832  0.0454
30570ION     NA48094   4.900  15.643  15.110  0.0942 -0.0037  0.1791
30571ION     NA48095   3.550   8.579   2.428  0.1541 -0.3209  0.2007
30572ION     NA48096  12.232  14.221   3.721 -0.0765  0.1874  0.0977
30573ION     NA48097  12.821   9.719   2.846 -0.3668 -0.1273  0.1807
30574ION     NA48098   1.356   9.915   5.453  0.1842 -0.2781  0.1227
30575ION     NA48099  14.930   6.912  10.693  0.1296 -0.2045  0.1038
30576ION     NA48100  14.050  10.704   5.823 -0.0376 -0.5185 -0.1226
30577ION     NA48101   5.599  10.782  13.417 -0.2155  0.1085  0.3001
30578ION     NA48102  10.989   1.499  10.503  0.0739 -0.4268  0.2113
30579ION     NA48103   2.535   0.769   5.594 -0.1461 -0.4109 -0.0662
30580ION     NA48104  17.177  11.180   5.797 -0.1898 -0.0019 -0.0625
30581ION     NA48105   0.595   5.597   5.372  0.0581  0.3195 -0.1355
30582ION     NA48106   8.831   9.413  10.206  0.2543  0.5958  0.0998
30583ION     NA48107   0.282  16.728   2.230 -0.1902  0.1201  0.1844
30584ION     NA48108  12.156   3.084  13.637 -0.1964 -0.1398  0.2164
30585ION     NA48109   5.340  17.484   5.811  0.0893 -0.1471  0.0226
30586ION     NA48110   7.961   9.413  10.297  0.0088 -0.0010  0.1771
30587ION     NA48111   4.809   3.549   5.597 -0.0582 -0.0185 -0.2122
30588ION     NA48112  13.718   1.191   5.694  0.0861  0.0547  0.0722
30589ION     NA48113   0.653   6.899   9.911  0.2663 -0.1257  0.1804
30590ION     NA48114   9.602  14.117  15.291 -0.1774 -0.0709 -0.2819
30591ION     NA48115   2.231   8.241   0.407  0.2354  0.1452  0.1142
30592ION     NA48116  17.377  14.401   5.107 -0.0356 -0.0566 -0.0386
30593ION     NA48117  17.634  12.043  14.591  0.2130 -0.3033  0.0437
30594ION     NA48118   8.303  10.642  14.783  0.3752 -0.0814 -0.1795
30595ION     NA48119  16.356  14.110   5.447 -0.2013  0.2853 -0.0743
30596ION     NA48120   7.622  10.163   5.709 -0.4304 -0.0814 -0.2045
30597ION     NA48121   3.343   6.774   5.234 -0.0308  0.2110  0.2400
30598ION     NA48122  16.054  15.675  10.488 -0.2729 -0.5048  0.0380
30599ION     NA48123  15.969   7.242  15.741 -0.2004  0.1492 -0.0682
30600ION     NA48124   2.337  11.093   5.667  0.2844 -0.1665  0.0991
30601ION     NA48125   7.060  17.898   5.467  0.1087  0.1256 -0.0326
30602ION     NA48126   0.119   3.774   5.481  0.2590  0.1212  0.2022
30603ION     NA48127   3.559   8.652   5.675  0.0924  0.2005 -0.1809
30604ION     NA48128   8.597   3.218   5.381 -0.1189  0.1598  0.0196
30605ION     NA48129   6.427   4.678  10.254 -0.0523  0.0384 -0.1343
30606ION     NA48130  15.471   2.346   4.650  0.2584 -0.0572 -0.0073
30607ION     NA48131  17.617   8.050  10.066  0.4706 -0.0904  0.0767
30608ION     NA48132   2.659  12.079   2.907 -0.1363  0.0729 -0.1127
30609ION     NA48133   4.495   6.590  10.440 -0.1416  0.1273 -0.1068
30610ION     NA48134  13.879   3.862  10.072  0.0459  0.0074  0.0638
30611ION     NA48135   3.928  14.079   1.988  0.1590  0.2330 -0.3517
30612ION     NA48136  11.930  17.969  10.696  0.0098 -0.1458 -0.0802
30613ION     NA48137   6.392   0.737  13.319 -0.1483 -0.1953  0.0934
30614ION     NA48138   9.039  16.427   5.777  0.2085 -0.0698  0.2941
30615ION     NA48139   5.407   0.994   5.700  0.0335 -0.4190 -0.0422
30616ION     NA48140  18.353  14.568   4.843 -0.1596  0.0569  0.3919
30617ION     NA48141  13.284  17.527  10.627 -0.1346  0.5123  0.1392
30618ION     NA48142   0.386   3.350   0.259  0.1558  0.4753  0.0859
30619ION     NA48143  15.655   6.646   1.627  0.0989  0.0282 -0.0829
30620ION     NA48144   4.753  16.779   1.943  0.0128 -0.2343  0.2532
30621ION     NA48145  10.814  12.795  10.490  0.0270 -0.1132 -0.1217
30622ION     NA48146   7.404   0.615   1.871  0.0990  0.0934 -0.0601
30623ION     NA48147  13.267   3.708  11.115  0.0142 -0.0319 -0.1055
30624ION     NA48148  11.413   0.676  10.865 -0.3946 -0.1262 -0.0717
30625ION     NA48149  16.135  16.550   5.547  0.2742  0.0141  0.0147
30626ION     NA48150   2.193  11.948   5.709 -0.2139 -0.0548  0.0867
30627ION     NA48151   0.387   3.769  10.107 -0.0783  0.2004  0.0587
30628ION     NA48152   2.277  14.222  11.774  0.0761  0.1914  0.0551
30629ION     NA48153   2.810   8.252   5.660 -0.0187 -0.1023  0.2709
30630ION     NA48154  16.166   5.521   9.960  0.3661 -0.0764 -0.0205
30631ION     NA48155   8.962  11.525  10.579  0.2727  0.1991  0.0627
30632ION     NA48156   7.778  13.143  10.777  0.0999  0.1997 -0.1495
30633ION     NA48157   4.727   5.813   5.622  0.0919  0.0922  0.2934
30634ION     NA48158   3.795   8.408  10.377  0.1082 -0.1534 -0.2029
30635ION     NA48159   6.062   2.499   5.075  0.4678  0.1396  0.1199
30636ION     NA48160   2.909   7.590   4.983 -0.0789  0.2959  0.1420
30637ION     NA48161   6.493   3.621  12.290 -0.3150 -0.0794  0.0405
30638ION     NA48162  14.829  14.911  10.942  0.1613  0.0292 -0.1671
30639ION     NA48163   3.136   0.778  10.711  0.1216  0.1297  0.1685
30640ION     NA48164  11.258  17.273   3.458  0.0244 -0.3382 -0.0075
30641ION     NA48165  10.006  17.550   3.595  0.1481  0.0401 -0.2390
30642ION     NA48166  13.502   1.500  10.608 -0.1341  0.0906 -0.0478
30643ION     NA48167  14.096  13.682   5.746  0.0250  0.2518 -0.0395
30644ION     NA48168  10.262   3.566  10.635 -0.1006 -0.1200 -0.1872
30645ION     NA48169   0.240   2.116   4.292  0.0027  0.0654 -0.0817
30646ION     NA48170   5.731  14.426   5.312 -0.2794  0.4093 -0.1279
30647ION     NA48171  13.952  15.455  11.165 -0.0293 -0.1672 -0.0023
30648ION     NA48172  11.128   4.128   5.361  0.0629 -0.0081  0.1818
30649ION     NA48173   5.774   8.305   5.177  0.1821 -0.1168  0.0377
30650ION     NA48174   6.485   5.471   3.395 -0.0581 -0.1539  0.1335
30651ION     NA48175  15.288   5.054   9.968 -0.3679  0.0525  0.0757
30652ION     NA48176   9.796   8.928  10.544  0.0257 -0.0658 -0.0186
30653ION     NA48177  17.742   7.600   2.022 -0.0924  0.1910  0.0317
30654ION     NA48178   4.207  16.336   2.897  0.0344  0.2962  0.0749
30655ION     NA48179   5.598   0.032   5.641 -0.1161  0.2855 -0.2910
30656ION     NA48180  10.910   8.104   5.673 -0.0171 -0.0497 -0.1992
30657ION     NA48181  10.440   2.710   5.631 -0.1970  0.0455 -0.1373
30658ION     NA48182   9.873   2.063   5.945 -0.0052  0.1137 -0.3480
30659ION     NA48183   4.166  10.633   2.826 -0.2421  0.2410 -0.1118
30660ION     NA48184  16.816  17.941  10.371 -0.1103 -0.0360 -0.2090
30661ION     NA48185   4.139   3.749   5.030 -0.4232  0.3231 -0.4463
30662ION     NA48186  13.916   7.562   3.175 -0.3205  0.1250 -0.0877
30663ION     NA48187  17.094   8.579   5.715  0.1742  0.0299  0.4067
30664ION     NA48188   8.641  18.033  11.055 -0.0152  0.0958 -0.0604
30665ION     NA48189  11.379  11.587  10.790 -0.0670  0.0626 -0.2760
30666ION     NA48190   1.373  10.175  15.630  0.1972 -0.1656  0.3016
30667ION     NA48191  10.004  14.360   3.378 -0.1580  0.0521  0.0380
30668ION     NA48192  17.144   3.384  10.360 -0.2272 -0.2051 -0.0919
30669ION     NA48193  11.291   9.534   5.438  0.2139 -0.0879 -0.1251
30670ION     NA48194   5.871  13.394   4.005 -0.1990  0.1073 -0.1535
30671ION     NA48195  13.823   4.258  14.669 -0.2567 -0.2250  0.2712
30672ION     NA48196  10.213   6.176   5.323  0.1371  0.4572 -0.0157
30673ION     NA48197   9.570  15.146   5.793  0.0708 -0.2089 -0.0834
30674ION     NA48198   9.719   9.398  14.205 -0.3676  0.1383 -0.1202
30675ION     NA48199   7.520   8.693   9.950 -0.0721 -0.0745  0.1289
30676ION     NA48200  15.909   4.527   5.035  0.0891  0.1863 -0.3650
30677ION     NA48201   2.388   8.620  10.284  0.0223  0.0958 -0.0104
30678ION     NA48202  16.811   0.482  10.511  0.0365  0.0924 -0.0145
30679ION     NA48203  10.199   1.300   5.943  0.2674 -0.0678  0.1226
30680ION     NA48204  11.713   1.990   2.515 -0.2658  0.0484 -0.1230
30681ION     NA48205   8.608   0.498  10.556 -0.2880  0.1201  0.1171
30682ION     NA48206  17.687  14.721  10.359  0.2338  0.0509  0.1230
30683ION     NA48207   2.512   4.546  14.201 -0.2514 -0.1684 -0.1403
30684ION     NA48208   7.836   3.378   5.132  0.3384 -0.2195 -0.2616
30685ION     NA48209  14.191  17.011  11.346  0.0042  0.0612  0.0257
30686ION     NA48210   6.978   7.250  14.202 -0.2662 -0.0743 -0.3952
30687ION     NA48211  10.778   9.106  11.311  0.2761  0.2363 -0.3099
30688ION     NA48212  17.850   8.841  13.176  0.3042 -0.1541  0.0436
30689ION     NA48213   8.515   0.521  14.881  0.2282 -0.1522  0.0503
30690ION     NA48214   1.235  15.933   0.480  0.4711  0.2325 -0.0867
30691ION     NA48215   6.841  10.996   4.244 -0.0100  0.2735  0.1458
30692ION     NA48216  13.011   5.192   5.220 -0.0783 -0.4088 -0.1034
30693ION     NA48217  17.010  11.101   0.957 -0.1683  0.4083  0.1050
30694ION     NA48218  11.080   5.954  10.335  0.0429  0.1238 -0.0843
30695ION     NA48219  15.755   8.417   5.693  0.4073 -0.0786  0.0158
30696ION     NA48220   8.091   0.635  10.578 -0.2594 -0.0992  0.1281
30697ION     NA48221   6.335   3.215  10.166 -0.0571 -0.1204 -0.1093
30698ION     NA48222  11.494  10.623  11.038  0.1110 -0.1436 -0.5844
30699ION     NA48223   0.894   2.218   5.448 -0.0973 -0.0085  0.0321
30700ION     NA48224   9.114   8.206   5.532 -0.1827  0.4227 -0.0222
30701ION     NA48225   8.053  10.390  10.183 -0.3196 -0.0831 -0.1821
30702ION     NA48226  15.230   0.997   4.213  0.2558  0.0619 -0.2889
30703ION     NA48227   9.060   1.701   5.662  0.0102 -0.2399  0.1907
30704ION     NA48228   7.885  14.339  10.341 -0.2357  0.0325  0.0785
30705ION     NA48229   8.545   6.043  10.469 -0.0502 -0.3897  0.1027
30706ION     NA48230   0.313  16.681  10.244 -0.0165 -0.1764 -0.0818
30707ION     NA48231   5.730   3.231   5.378 -0.1777 -0.0055  0.0859
30708ION     NA48232  17.123  15.159   5.604 -0.0252  0.2139  0.2869
30709ION     NA48233  16.187   0.837   5.585 -0.0618  0.1303 -0.1056
30710ION     NA48234  10.052  18.120   5.727  0.1168 -0.0495  0.0728
30711ION     NA48235  14.744   6.860   5.562 -0.0043 -0.1015  0.0261
30712ION     NA48236  17.862   3.932  10.276 -0.2558 -0.1421 -0.0585
30713ION     NA48237   8.614  10.359   5.656  0.3520 -0.1274  0.0647
30714ION     NA48238   2.684  13.304   4.732  0.2134  0.0245 -0.3663
30715ION     NA48239  11.413   6.732  10.125 -0.2294 -0.0744  0.2442
30716ION     NA48240   0.108   5.283   5.307  0.0670  0.6177 -0.1697
30717ION     NA48241  13.653  16.641  10.706 -0.1101 -0.1253  0.1211
30718ION     NA48242  11.843   7.495  10.437  0.1412  0.2589 -0.2455
30719ION     NA48243   9.816  13.324   5.840  0.2356 -0.4382 -0.1583
30720ION     NA48244   4.206  11.671   1.855 -0.3632 -0.0779 -0.2140
30721ION     NA48245   0.452  18.291   5.461 -0.2883 -0.0332 -0.0556
30722ION     NA48246  17.472  12.471  10.638  0.0489  0.0075 -0.2169
30723ION     NA48247   0.538   9.922   5.620  0.0022  0.5752  0.1208
30724ION     NA48248   4.691   5.846   5.118 -0.0185 -0.0817 -0.2019
30725ION     NA48249   5.533   4.850  10.264 -0.0617 -0.0663  0.1639
30726ION     NA48250   1.610  12.127   4.909  0.0899 -0.1876 -0.0666
30727ION     NA48251   2.924   5.151   5.550 -0.0252 -0.0707  0.1733
30728ION     NA48252   0.201  13.023  12.899  0.3299 -0.1045 -0.1245
30729ION     NA48253   4.386  15.688   5.114 -0.0345 -0.0736  0.0199
30730ION     NA48254   7.726   7.169   5.496 -0.3623 -0.1947 -0.1691
30731ION     NA48255  16.147   5.997   5.555  0.1772 -0.1039  0.2217
30732ION     NA48256   7.397   8.754   5.284 -0.1489 -0.2036 -0.1386
30733ION     NA48257   5.631   5.117   5.158  0.0740  0.0278  0.3011
30734ION     NA48258  14.898  10.711   5.987 -0.4126 -0.2347  0.2209
30735ION     NA48259  14.814  12.837  10.488  0.0566 -0.3449  0.0474
30736ION     NA48260   3.317   4.990  10.177  0.1118 -0.0880  0.0522
30737ION     NA48261  12.086  13.771   5.918 -0.0009 -0.1222  0.4905
30738ION     NA48262   6.893   7.858   5.025  0.1147  0.1065 -0.0775
30739ION     NA48263   9.245   5.623  10.228  0.5224 -0.1758  0.1158
30740ION     NA48264   1.442   8.881  10.129  0.1185  0.1643 -0.0646
30741ION     NA48265  12.646  14.619  10.856 -0.0425 -0.4416  0.1586
30742ION     NA48266   5.267  11.652   5.522  0.1758  0.0893  0.2835
30743ION     NA48267   7.069  12.510  10.324 -0.1412 -0.0432  0.0388
30744ION     NA48268   2.019   2.870  10.082 -0.3209 -0.3939 -0.0385
30745ION     NA48269   1.043  14.732   5.268 -0.0614 -0.0637 -0.0155
30746ION     NA48270  15.281   0.530   5.602  0.1999  0.1094  0.2495
30747ION     NA48271   1.697   3.306  10.003  0.3394 -0.2629  0.0038
30748ION     NA48272   4.968   6.672   5.562  0.0090 -0.2334  0.2612
30749ION     NA48273   0.814  10.660   5.605  0.1347 -0.1919 -0.3003
30750ION     NA48274   7.213   1.391  10.835 -0.0775 -0.1603 -0.0859
30751ION     NA48275  17.859  15.849  10.493  0.0970 -0.0388 -0.0230
30752ION     NA48276   3.064  16.213  10.853  0.3183 -0.1691  0.1223
30753ION     NA48277  15.093   7.765   5.818  0.0845 -0.2791 -0.1168
30754ION     NA48278  17.317  12.176  11.527  0.1265  0.0726 -0.1334
30755ION     NA48279  14.003  10.152  13.194  0.0409  0.0916 -0.1712
30756ION     NA48280   9.549  16.056  10.693 -0.2623  0.0064  0.0664
30757ION     NA48281   7.535  11.412   0.590 -0.0366  0.1486  0.1743
30758ION     NA48282  15.479   7.535  13.678  0.0033 -0.1114  0.3294
30759ION     NA48283   5.248   0.255   0.123 -0.3120 -0.0482  0.2275
30760ION     NA48284   0.311   1.154  10.381  0.1382 -0.0820 -0.3334
30761ION     NA48285   4.216   3.151   2.050 -0.2575  0.0756 -0.0388
30762ION     NA48286  15.652  16.027  10.619 -0.1552 -0.2574  0.0704
30763ION     NA48287   4.876  18.122  10.077  0.3446  0.3479 -0.3721
30764ION     NA48288  18.028   2.122  10.075  0.2599 -0.1310  0.0871
30765ION     NA48289  16.063   8.173  15.777 -0.2155  0.2814  0.1287
30766ION     NA48290  17.387   4.314  10.111  0.2015  0.0356 -0.3744
30767ION     NA48291   2.834  13.051  10.105  0.2666 -0.0829 -0.1839
30768ION     NA48292  12.129   9.651   5.785 -0.0981  0.2943 -0.3011
30769ION     NA48293  16.827   9.714  10.158  0.2404 -0.4431  0.1468
30770ION     NA48294   2.988   9.681   4.783  0.2104  0.0595  0.3973
30771ION     NA48295   5.705   4.824  11.802 -0.1300 -0.0507 -0.0163
30772ION     NA48296  13.432   7.367  10.566  0.0703 -0.0650 -0.0875
30773ION     NA48297   9.048  12.006   5.676  0.1838 -0.0221 -0.2621
30774ION     NA48298  11.869   3.646   4.670  0.0690 -0.0094 -0.1204
30775ION     NA48299  15.525  10.394   5.646  0.0272 -0.0531  0.1531
30776ION     NA48300   4.269  12.716   5.381  0.4448 -0.1744  0.0795
30777ION     NA48301   7.419   6.957   2.619 -0.0356 -0.0483  0.0720
30778ION     NA48302   4.747  14.226   5.281 -0.1752  0.1529 -0.3994
30779ION     NA48303  15.955  15.218   3.581  0.1059  0.0309  0.1461
30780ION     NA48304   3.470  15.241   9.957 -0.2204 -0.3636 -0.0864
30781ION     NA48305  10.418   4.722   5.039  0.1862 -0.1432  0.2762
30782ION     NA48306  15.985   4.739  10.206  0.0400 -0.0845  0.3518
30783ION     NA48307   9.438   0.551  10.614 -0.1444  0.0869  0.0393
30784ION     NA48308   8.678  17.513  12.692 -0.1616 -0.0124 -0.1646
30785ION     NA48309   0.277   1.469   2.237  0.0779  0.0948  0.0463
30786ION     NA48310   5.069  14.755   2.989 -0.0435  0.1304 -0.3348
30787ION     NA48311  13.077  13.496  10.621 -0.0618 -0.2942  0.0686
30788ION     NA48312  14.005   9.657   5.697  0.2002 -0.0687 -0.1909
30789ION     NA48313   4.507   3.807  15.721  0.1739  0.0874 -0.2703
30790ION     NA48314  17.060   4.581   5.197 -0.1503 -0.2885  0.0305
30791ION     NA48315   3.264   6.774   9.926  0.0180  0.1479 -0.0548
30792ION     NA48316   4.740   7.327   1.878 -0.1440  0.1962  0.2238
30793ION     NA48317   0.416  17.033  10.722  0.3558 -0.1536  0.1338
30794ION     NA48318   2.089  16.684   5.793  0.1805 -0.1774 -0.3302
30795ION     NA48319  16.485  13.834   3.068 -0.2642  0.0324  0.2037
30796ION     NA48320   8.297  12.408  10.861  0.0396  0.1664 -0.2140
30797ION     NA48321   2.341  14.702   5.429  0.1221  0.1102 -0.0627
30798ION     NA48322  15.720   2.919  10.376  0.0698 -0.0334 -0.1920
30799ION     NA48323   0.313  12.535   4.163 -0.2067 -0.0710 -0.0391
30800ION     NA48324  17.870  10.562  10.098 -0.1520  0.0138 -0.1783
30801ION     NA48325  12.863   7.332  13.806 -0.2516 -0.0350  0.0584
30802ION     NA48326  14.418  11.921  10.759 -0.0915 -0.0075  0.1162
30803ION     NA48327  16.811   6.782  10.167 -0.3857  0.3755 -0.1009
30804ION     NA48328   7.563  13.533  10.511  0.0067  0.0992  0.2996
30805ION     NA48329   4.923  15.077   5.397 -0.2014 -0.0841 -0.2234
30806ION     NA48330   4.054   0.822   5.564  0.1511  0.3290 -0.1446
30807ION     NA48331  11.387   2.957   5.567 -0.0176 -0.0703  0.1639
30808ION     NA48332   9.493   3.409   5.560 -0.4758  0.5657  0.3428
30809ION     NA48333   6.024  11.022  10.412 -0.1325 -0.1530  0.1007
30810ION     NA48334  14.915   5.489  10.017  0.0349 -0.1130  0.0047
30811ION     NA48335  17.654  13.549   5.204 -0.1136  0.0328  0.0064
30812ION     NA48336   1.491  12.299  10.136  0.1047  0.2600 -0.2448
30813ION     NA48337  13.983   8.003   1.905  0.1750 -0.1854  0.0249
30814ION     NA48338  15.065  11.673   5.864  0.0672 -0.0926  0.3092
30815ION     NA48339  16.957   6.243  14.138  0.2198  0.0160  0.0087
30816ION     NA48340   1.148   1.123   5.599  0.0147 -0.0454  0.1668
30817ION     NA48341   0.085   4.929   0.372 -0.2171  0.0723 -0.1483
30818ION     NA48342  15.139  13.980  10.507 -0.3621  0.3454  0.0062
30819ION     NA48343  10.705  12.348   5.609  0.2724  0.0175 -0.1277
30820ION     NA48344  15.601   0.197  14.322 -0.3335 -0.5017 -0.3482
30821ION     NA48345  14.475  12.441   6.040 -0.1569  0.0285 -0.0596
30822ION     NA48346  11.643   5.726   5.304 -0.2856 -0.0804  0.3764
30823ION     NA48347  13.434   5.326   3.596 -0.1353  0.0361  0.3401
30824ION     NA48348  10.025   8.465   5.571 -0.1430 -0.0667 -0.2550
30825ION     NA48349   8.037  15.280  10.401  0.0468  0.1175 -0.1258
30826ION     NA48350  18.043  12.987   3.755 -0.2458  0.0972 -0.0792
30827ION     NA48351   0.656  14.234  10.656  0.4107 -0.0016 -0.0481
30828ION     NA48352  15.856   3.664   5.403 -0.2993  0.0712 -0.0797
30829ION     NA48353   5.917   4.014  10.583 -0.0133 -0.0140  0.0418
30830ION     NA48354   5.061   2.764  10.458 -0.0537  0.0916 -0.1604
30831ION     NA48355   8.340   6.312  13.488 -0.0821  0.2203  0.1219
30832ION     NA48356  18.026   4.061  11.820 -0.2217 -0.0678  0.0839
30833ION     NA48357   0.123  13.084   5.141  0.0992  0.4667  0.1613
30834ION     NA48358  16.767   6.553   1.590  0.0347 -0.3937 -0.1266
30835ION     NA48359   3.328  17.333   5.441  0.2482 -0.1680 -0.1480
30836ION     NA48360   9.123   2.578   5.829  0.0198  0.2740  0.0523
30837ION     NA48361  17.018  13.482   5.192 -0.4026 -0.1838  0.0265
30838ION     NA48362   0.536   8.638   3.284 -0.3801  0.2174 -0.0189
30839ION     NA48363   8.804   1.324  10.934  0.0880 -0.0511  0.1297
30840ION     NA48364   0.420   3.123  13.258 -0.0517 -0.0159  0.1634
30841ION     NA48365   6.356  10.689  10.621 -0.1144 -0.2106  0.0281
30842ION     NA48366   7.575   1.459  14.429 -0.4720 -0.1776 -0.2330
30843ION     NA48367  13.112  13.620   5.665 -0.0091 -0.0687 -0.2737
30844ION     NA48368   2.078  10.184  10.122  0.3520  0.0093  0.0451
30845ION     NA48369   5.521   0.716  10.328  0.3370 -0.0250  0.2739
30846ION     NA48370   1.983   5.495   5.459 -0.1559  0.1923 -0.4438
30847ION     NA48371   4.596  11.600  10.255  0.1470  0.0493  0.4243
30848ION     NA48372   9.901   6.918  10.210  0.2805  0.0409 -0.0430
30849ION     NA48373   0.695  14.166   5.457 -0.1834 -0.2526 -0.0902
30850ION     NA48374  11.166  16.873   1.901 -0.0351 -0.0191 -0.0831
30851ION     NA48375  11.845  15.875   5.907  0.0489  0.1657 -0.2589
30852ION     NA48376  16.281   9.861   5.577  0.2524 -0.2856  0.3532
30853ION     NA48377   0.948  17.729   3.024 -0.2306 -0.2488  0.1185
30854ION     NA48378   2.544   9.625  13.386 -0.0985 -0.0519 -0.1349
30855ION     NA48379   4.232   1.615  14.921 -0.4240  0.1232 -0.2355
30856ION     NA48380  15.929   9.606  14.606 -0.1760  0.1061  0.1735
30857ION     NA48381   9.936  11.805   5.726 -0.1841 -0.1025 -0.1355
30858ION     NA48382  15.158  11.562  10.579 -0.0755  0.1726 -0.0727
30859ION     NA48383  10.516   0.407   6.130  0.0165  0.1866 -0.0252
30860ION     NA48384   3.901   1.752   5.621  0.2451 -0.4339  0.1066
30861ION     NA48385   5.327   2.427   5.500  0.0214  0.1635  0.0717
30862ION     NA48386  12.906   8.194   1.736 -0.0511 -0.1169  0.2454
30863ION     NA48387   1.232  15.075   3.645  0.0172  0.2326 -0.4795
30864ION     NA48388  17.031  15.591  10.291 -0.0277 -0.1058 -0.0041
30865ION     NA48389  13.559  13.715  15.236 -0.2919  0.0233 -0.0522
30866ION     NA48390  10.437  14.076   5.991  0.0532  0.0862  0.2682
30867ION     NA48391  17.687   6.499   9.766 -0.0155 -0.0427 -0.3339
30868ION     NA48392   8.104   9.375   3.811 -0.2244 -0.2003 -0.0208
30869ION     NA48393   3.549  12.189   5.567 -0.2650  0.0767 -0.1817
30870ION     NA48394  13.237   8.764   4.961 -0.0026  0.0011 -0.0961
30871ION     NA48395  16.342  15.653   5.653  0.2353 -0.0026 -0.1356
30872ION     NA48396   6.107  17.918   5.718 -0.0959 -0.0628 -0.4834
30873ION     NA48397   6.492   0.111   5.592  0.1399 -0.1802  0.1730
30874ION     NA48398   2.052   2.041  10.117 -0.2620  0.0841  0.0139
30875ION     NA48399   5.017  14.215  10.367 -0.4135  0.1688 -0.1958
30876ION     NA48400  15.057   9.762  10.541  0.1807 -0.2539  0.1663
30877ION     NA48401  14.289  14.617   0.057  0.1105  0.2251  0.3455
30878ION     NA48402  14.434   4.988   5.361  0.1354  0.1982 -0.0293
30879ION     NA48403  16.313  17.098  10.313  0.1520 -0.0294 -0.0306
30880ION     NA48404  17.392   5.946  13.944 -0.0179  0.0597 -0.0659
30881ION     NA48405  10.468  15.831  10.634  0.2977  0.0238 -0.2926
30882ION     NA48406  17.852  17.784  10.186  0.1684 -0.0959  0.1530
30883ION     NA48407   3.737   2.079  10.429 -0.0055 -0.2783 -0.0688
30884ION     NA48408  10.281   5.213   5.550 -0.2624  0.0559 -0.2233
30885ION     NA48409   5.507  17.583  13.755 -0.0586 -0.0889  0.1294
30886ION     NA48410   5.537  13.834   2.266  0.0095 -0.2624  0.1002
30887ION     NA48411   0.481   2.186  11.701  0.4625  0.1692  0.2500
30888ION     NA48412  14.678   4.496  14.037 -0.0184  0.2128 -0.0334
30889ION     NA48413  11.966  15.700   3.609 -0.0191  0.0022 -0.1149
30890ION     NA48414  15.846   7.689  10.216  0.2624 -0.0518  0.0673
30891ION     NA48415   9.918   3.622   4.593 -0.1756 -0.0023 -0.4336
30892ION     NA48416   0.103   9.832  10.162  0.0709 -0.0309 -0.0758
30893ION     NA48417   9.008  14.360   6.129  0.1941  0.0543  0.1616
30894ION     NA48418   3.896  10.004  10.574  0.1522  0.2027  0.0906
30895ION     NA48419  13.931  15.466  14.911  0.3088  0.5021 -0.3072
30896ION     NA48420  12.450  15.135   6.099 -0.1677  0.1402  0.2531
30897ION     NA48421  18.103   5.691   9.730 -0.0878  0.1221 -0.4154
30898ION     NA48422   9.152  12.929  10.691 -0.1737  0.2978 -0.0650
30899ION     NA48423   3.077   9.257   5.679  0.1164 -0.1451 -0.1564
30900ION     NA48424   1.072  17.876  10.260  0.2357 -0.0389  0.0395
30901ION     NA48425   3.979  10.841   5.515 -0.0031  0.1645  0.3463
30902ION     NA48426   9.485   4.061  15.319  0.0021 -0.3306  0.1072
30903ION     NA48427   7.650  16.551   5.545  0.0689  0.0233 -0.1227
30904ION     NA48428  14.977  17.051   5.948  0.1167 -0.0675 -0.0279
30905ION     NA48429   1.106   0.378   5.431 -0.1757  0.0343  0.1551
30906ION     NA48430  10.210   3.638   5.342 -0.3590  0.1223  0.1814
30907ION     NA48431   9.021   2.176  10.628 -0.2688 -0.1824 -0.1976
30908ION     NA48432  17.655   0.148  10.316  0.0179  0.2509 -0.0929
30909ION     NA48433   4.547  13.136  10.157  0.2467  0.0751 -0.0817
30910ION     NA48434  15.924   3.905  10.413  0.0542 -0.2286  0.0609
30911ION     NA48435   9.606  15.642  12.730 -0.0477  0.1662  0.2951
30912ION     NA48436   9.409   6.322  10.262  0.1442 -0.2373  0.0056
30913ION     NA48437   2.959  16.157   5.680  0.2305 -0.4829  0.0437
30914ION     NA48438  14.905  11.341   2.363 -0.2378  0.1396  0.0291
30915ION     NA48439   3.985   8.132  10.759 -0.1564  0.0514 -0.3183
30916ION     NA48440  11.139   2.308  10.091  0.1009  0.3635 -0.1388
30917ION     NA48441   9.926  12.744   5.726 -0.0632 -0.0017 -0.0330
30918ION     NA48442   8.151  16.692   5.633  0.5681  0.1435 -0.2366
30919ION     NA48443   8.962   3.583  12.896 -0.2780 -0.0600 -0.0429
30920ION     NA48444  17.789   3.428   5.351  0.2015  0.0922 -0.1924
30921ION     NA48445   9.682   0.935  10.974 -0.1163  0.0478 -0.0602
30922ION     NA48446  11.535   4.856   5.335 -0.0417 -0.1340  0.0074
30923ION     NA48447   1.181  16.495  10.192  0.0503 -0.1982  0.1188
30924ION     NA48448   5.844   9.083   5.503 -0.3989 -0.0181 -0.0032
30925ION     NA48449  16.725   4.129  10.293  0.1489 -0.0828  0.2933
30926ION     NA48450  13.389   4.598   2.971  0.1320 -0.2244  0.2686
30927ION     NA48451   3.468   3.097  10.562 -0.2121 -0.0591 -0.2049
30928ION     NA48452  10.837  16.757  10.297  0.3074 -0.2434 -0.0541
30929ION     NA48453   4.462  17.426  10.257  0.0259  0.0592  0.2315
30930ION     NA48454  14.980   3.395   5.521 -0.2208 -0.3727  0.0217
30931ION     NA48455  12.775  16.605   6.181  0.1868 -0.0633 -0.0186
30932ION     NA48456   4.507   0.623  10.345  0.0689 -0.3175 -0.1168
30933ION     NA48457   1.886   3.082  14.312  0.0435 -0.1104  0.0483
30934ION     NA48458   7.183  15.226  10.371  0.0024  0.1909  0.0720
30935ION     NA48459   2.405  15.966   2.273 -0.0022 -0.2350 -0.1877
30936ION     NA48460   3.387  12.304  10.299 -0.3210  0.0262  0.0272
30937ION     NA48461   7.852   3.447   3.793 -0.2187  0.1554 -0.0925
30938ION     NA48462  14.682   0.591  11.183 -0.0199  0.2588 -0.4981
30939ION     NA48463   6.400   6.459   4.916 -0.0475  0.0214 -0.4252
30940ION     NA48464   9.423   0.155  12.313  0.0730 -0.0530  0.1052
30941ION     NA48465   9.477   7.480  10.338  0.0542 -0.1799 -0.2862
30942ION     NA48466   6.713   9.495  15.331  0.0981  0.2124 -0.2757
30943ION     NA48467   2.587  15.433  10.004 -0.1945  0.0499 -0.2577
30944ION     NA48468   9.639   4.398   5.520 -0.1730 -0.0444  0.0272
30945ION     NA48469  18.271   9.882  10.573  0.3264 -0.0876  0.1201
30946ION     NA48470   0.546  10.578  10.236 -0.3178 -0.0645 -0.3435
30947ION     NA48471  10.214  14.445  10.396 -0.1851 -0.1517  0.3437
30948ION     NA48472   4.009  12.974  13.312 -0.0841 -0.1307 -0.0437
30949ION     NA48473  15.444  13.804   5.541  0.0855  0.0945 -0.1305
30950ION     NA48474  12.274   8.877   5.014  0.1718 -0.1489  0.0459
30951ION     NA48475   2.635  12.652   5.514 -0.4409 -0.0772 -0.2626
30952ION     NA48476   0.595   7.342   5.099 -0.0029 -0.0298  0.0308
30953ION     NA48477  10.494   3.945  10.114  0.1663 -0.1955 -0.2478
30954ION     NA48478  15.902   2.423   5.665 -0.0817 -0.0332  0.1119
30955ION     NA48479   6.296  13.893   5.716  0.2259  0.1483 -0.1749
30956ION     NA48480   4.958  11.637  13.337  0.4407  0.2756  0.0018
30957ION     NA48481  15.838   9.298  10.589  0.2204  0.2167 -0.3802
30958ION     NA48482  17.673  16.661   4.997 -0.0698  0.4394  0.2945
30959ION     NA48483  11.514  17.374   6.070  0.2567 -0.2187  0.0133
30960ION     NA48484   2.347   4.359  10.302  0.1007 -0.0185 -0.2333
30961ION     NA48485   9.820  10.133   1.479 -0.1474 -0.0134  0.0836
30962ION     NA48486  12.013   1.241   5.912 -0.0303  0.2910  0.0665
30963ION     NA48487  11.845  16.718   6.230  0.2415 -0.3026 -0.2323
30964ION     NA48488  14.335  13.932  10.637  0.2347 -0.2186 -0.0674
30965ION     NA48489   6.830   9.653   5.297 -0.0557  0.2014  0.0495
30966ION     NA48490   8.269   7.943   5.223  0.0485  0.3358 -0.1159
30967ION     NA48491   2.935  10.704   6.046  0.2229 -0.0633  0.1797
30968ION     NA48492  11.398   7.275   5.403 -0.0198  0.0514 -0.2322
30969ION     NA48493  10.911  17.982   6.000 -0.0413 -0.0249  0.0348
30970ION     NA48494   2.938  11.623   5.869 -0.0998  0.0629  0.1898
30971ION     NA48495   2.370   2.596   5.394 -0.0017 -0.1600 -0.0208
30972ION     NA48496  16.690  17.437   5.539 -0.3051  0.0755 -0.0170
30973ION     NA48497   2.475   8.616   4.822  0.0707  0.0466  0.0924
30974ION     NA48498   2.997   1.827   3.935  0.0604 -0.3293 -0.0718
30975ION     NA48499   0.872   6.015   9.868 -0.0871  0.0283 -0.0871
30976ION     NA48500  17.104  10.303   5.598 -0.0866  0.0623  0.3544
30977ION     NA48501   8.867   7.595   4.904 -0.1690  0.2517  0.0687
30978ION     NA48502   4.556  11.060  10.230 -0.0596  0.2234 -0.2000
30979ION     NA48503  11.282  14.188   5.967  0.1020  0.1390 -0.3879
30980ION     NA48504   9.645   0.479   5.837  0.2464  0.0300  0.0814
30981ION     NA48505   6.167  17.203  10.312  0.2998  0.1721 -0.0764
30982ION     NA48506   7.701   6.737   5.109 -0.0617 -0.3103 -0.1214
30983ION     NA48507   0.453  11.418   5.597  0.2252  0.0764  0.0960
30984ION     NA48508   2.240  15.993  10.734  0.4126 -0.0391  0.0681
30985ION     NA48509   6.835  11.559  10.441 -0.1534  0.0583 -0.1854
30986ION     NA48510   1.891   1.341  14.022 -0.0192  0.0015 -0.1992
30987ION     NA48511   7.189   1.251  12.031  0.2166 -0.0335  0.2376
30988ION     NA48512  13.230  15.752   6.233 -0.0700  0.1981  0.0883
30989ION     NA48513  11.948  16.719  11.272  0.4738  0.0503  0.0387
30990ION     NA48514   3.950   2.599   1.378 -0.0657 -0.1059  0.0971
30991ION     NA48515   4.037   2.122   1.168  0.3008 -0.1054 -0.0826
30992ION     NA48516   9.523   9.158   5.376  0.3173 -0.1820  0.0154
30993ION     NA48517   2.514  14.900  14.119 -0.1400  0.1132  0.0582
30994ION     NA48518  15.734   1.547   5.810 -0.1591  0.2142  0.2689
30995ION     NA48519  13.742  12.279   4.911  0.1941  0.0170 -0.3625
30996ION     NA48520   5.406   2.389  10.546 -0.0365 -0.2351 -0.1425
30997ION     NA48521  11.837   4.329   9.981 -0.0914 -0.2596  0.0625
30998ION     NA48522   1.651   0.565  10.146  0.0825  0.2293  0.0526
30999ION     NA48523   2.952  15.404   5.256 -0.0612  0.2959 -0.1768
31000ION     NA48524  18.276   9.282   5.453  0.3031  0.1780 -0.0121
31001ION     NA48525   9.940   6.319  14.225  0.3547  0.1483  0.3395
31002ION     NA48526   4.674   5.512  10.521 -0.4399  0.0103  0.0372
31003ION     NA48527  11.112  17.816  10.869  0.2164 -0.1161 -0.2707
31004ION     NA48528  13.098   0.476   5.391 -0.0771 -0.0025  0.1924
31005ION     NA48529   1.912   3.750   1.745 -0.1354  0.1592  0.0006
31006ION     NA48530   9.104   8.368  10.303 -0.1725  0.3147 -0.3434
31007ION     NA48531   8.111   5.971   5.272  0.2450  0.2928  0.0186
31008ION     NA48532  16.608   2.628  10.325  0.3742  0.1772  0.2315
31009ION     NA48533   8.165   4.102   0.070  0.1716  0.1366 -0.2837
31010ION     NA48534  14.231   3.281   5.403  0.2916  0.0438  0.1952
31011ION     NA48535   3.922  13.874   9.967  0.0079 -0.0308  0.3305
31012ION     NA48536   0.204  11.519  10.529  0.0447  0.0646 -0.1714
31013ION     NA48537  15.615  12.501  10.579 -0.2362 -0.3006 -0.0454
31014ION     NA48538   6.592   0.684  10.444  0.0247  0.0233  0.1443
31015ION     NA48539   6.829  15.213   5.626 -0.1579  0.1633 -0.2100
31016ION     NA48540  10.095  13.000  10.399 -0.1559  0.0943 -0.1899
31017ION     NA48541   9.746  10.425  11.843 -0.3039 -0.1493  0.1609
31018ION     NA48542  10.623  12.257  15.825 -0.1242 -0.1499  0.3233
31019ION     NA48543  15.709  17.494   5.632 -0.0631  0.1633 -0.2113
31020ION     NA48544   6.978  15.909   5.483  0.1172  0.3530  0.1474
31021ION     NA48545  12.682   3.552  10.406 -0.0041 -0.3671  0.0192
31022ION     NA48546  14.177   5.756  10.257  0.0175 -0.1084 -0.1674
31023ION     NA48547  12.490  13.289   0.013  0.1166  0.3254  0.0089
31024ION     NA48548  12.965   2.627  10.186 -0.1732 -0.0044 -0.1759
31025ION     NA48549  15.703  11.393  15.136 -0.1164  0.0542  0.1229
31026ION     NA48550  10.920  10.326  10.520 -0.0983  0.0321  0.0758
31027ION     NA48551  17.558   2.501   5.231  0.0262  0.5336  0.3104
31028ION     NA48552  14.775   2.016  15.394 -0.2435 -0.0687  0.2585
31029ION     NA48553   1.784   5.817   9.941  0.0138 -0.5943 -0.1414
31030ION     NA48554   6.824  16.189  10.219  0.3522  0.2649  0.1773
31031ION     NA48555   2.716   9.591  10.658  0.0743  0.2522 -0.0101
31032ION     NA48556  15.095   2.300   5.691 -0.1793  0.0693  0.0235
31033ION     NA48557   6.240  14.943  10.110 -0.0522  0.2560  0.1401
31034ION     NA48558  13.886   6.213   5.187  0.0675  0.0242  0.0829
31035ION     NA48559  15.522  16.848  10.817  0.0691 -0.1750 -0.0602
31036ION     NA48560   0.127  10.753  12.821 -0.1737 -0.1204  0.1212
31037ION     NA48561  17.108   7.823  11.383  0.4810 -0.1840 -0.1566
31038ION     NA48562   9.546   3.056  10.705 -0.3336 -0.4319 -0.2088
31039ION     NA48563   0.369  17.556  13.365 -0.5329  0.1498 -0.0566
31040ION     NA48564   2.376  12.257  10.448  0.1572 -0.2958  0.0913
31041ION     NA48565  12.147  10.614   5.603  0.0580  0.1259 -0.0779
31042ION     NA48566   2.259  10.381  13.920  0.0536  0.0171 -0.0570
31043ION     NA48567  17.906   4.458   5.436 -0.0114 -0.2489  0.0294
31044ION     NA48568   3.073   5.995   5.394  0.0855 -0.0645 -0.0642
31045ION     NA48569   7.085  11.397  10.999 -0.0898 -0.1333 -0.0310
31046ION     NA48570  16.816  16.467   5.551 -0.1051  0.1200  0.0483
31047ION     NA48571   1.008  12.780   5.328  0.1894 -0.1667 -0.0573
31048ION     NA48572   7.891   3.102  10.054  0.2309 -0.1011  0.0089
31049ION     NA48573  16.320  10.555  10.180  0.1651 -0.1252 -0.0813
31050ION     NA48574  13.202  17.206  11.491  0.2248 -0.1433 -0.1685
31051ION     NA48575   9.038  15.532  13.979 -0.2757  0.2175 -0.2139
31052ION     NA48576   1.927   6.087   4.707 -0.0617  0.1543  0.1166
31053ION     NA48577   8.488  14.617  10.533  0.0239  0.2224 -0.1273
31054ION     NA48578   2.052   2.980   5.290  0.0411  0.1565  0.2202
31055ION     NA48579  13.709  12.897  10.734 -0.3034  0.0507 -0.1748
31056ION     NA48580   7.159  11.908   5.594 -0.0896 -0.2679 -0.2932
31057ION     NA48581   0.447  14.237  13.413  0.1640 -0.0394 -0.2113
31058ION     NA48582   3.491  12.687   3.704 -0.0790  0.3230  0.2826
31059ION     NA48583  12.396  15.829  11.018 -0.0589 -0.0610 -0.0757
31060ION     NA48584  10.829  13.681  10.447 -0.0477  0.1162  0.4320
31061ION     NA48585   9.526   8.630   4.796  0.1248 -0.0476  0.0382
31062ION     NA48586   1.963  16.919   9.989  0.3545 -0.4607 -0.4954
31063ION     NA48587   0.352  17.556   0.099  0.3698 -0.1232 -0.0041
31064ION     NA48588  11.139   5.199   0.721 -0.0134  0.0790 -0.0839
31065ION     NA48589  13.042  15.414  14.499  0.1348  0.0645 -0.0691
31066ION     NA48590  18.130   3.326   4.112 -0.2504 -0.1789  0.0722
31067ION     NA48591  12.798   4.332  15.273 -0.1451 -0.2294  0.1119
31068ION     NA48592   6.850  16.755   5.300  0.0104  0.2431 -0.0157
31069ION     NA48593  14.265   1.195  11.731 -0.1564 -0.0921  0.1437
31070ION     NA48594  15.896  13.585  10.670 -0.1618 -0.0720 -0.0773
31071ION     NA48595  17.311   7.414   9.865 -0.2907 -0.0618 -0.1667
31072ION     NA48596   0.567  11.887  13.229  0.0973  0.0846  0.2872
31073ION     NA48597   0.005  10.872   5.643 -0.0290 -0.0358 -0.1722
31074ION     NA48598   4.258  14.580   9.840  0.0619  0.0404 -0.1838
31075ION     NA48599   1.340  11.625   5.509  0.0952 -0.0633  0.1475
31076ION     NA48600   6.284  14.035  13.673 -0.3012  0.0991 -0.2968
31077ION     NA48601  17.559  11.818   3.620  0.0086 -0.2344 -0.1457
31078ION     NA48602   5.341  17.353  10.070  0.0339  0.2999 -0.0131
31079ION     NA48603   4.389   5.194  13.843 -0.1408  0.2341  0.0390
31080ION     NA48604   2.478   1.749   5.629 -0.1749  0.2221 -0.2908
31081ION     NA48605   7.951  17.217  12.002 -0.0356  0.1808 -0.1035
31082ION     NA48606  13.750  13.855  12.485  0.3252 -0.2468  0.0782
31083ION     NA48607  11.464  14.000   4.279 -0.3129  0.0135  0.1391
31084ION     NA48608   0.837   9.649  10.311 -0.1667 -0.0252  0.1559
31085ION     NA48609   1.492   6.939   5.305 -0.0519  0.0204 -0.0071
31086ION     NA48610   4.428  16.863   5.599 -0.1040  0.1300 -0.2069
31087ION     NA48611  16.107   7.912  11.811 -0.0869 -0.1077  0.1235
31088ION     NA48612  11.539   9.272  10.486  0.1290  0.0373  0.0409
31089ION     NA48613   8.204  14.948   6.008  0.0279  0.0741  0.1102
31090ION     NA48614   4.933  13.298   5.318 -0.0122 -0.4374 -0.0016
31091ION     NA48615   7.037   4.980   5.647 -0.1697 -0.1172  0.1572
31092ION     NA48616  11.031  10.666   5.457 -0.1661 -0.1090 -0.0444
31093ION     NA48617   0.396  15.140  10.147 -0.1583  0.2500 -0.1143
31094ION     NA48618  18.373   6.250   5.283  0.3942  0.1706 -0.1583
31095ION     NA48619   8.645   3.263  10.521  0.0078  0.1908 -0.1462
31096ION     NA48620  14.035   9.627   0.279  0.2099 -0.0284 -0.1606
31097ION     NA48621   9.138  18.169   5.721  0.1087 -0.1179  0.0721
31098ION     NA48622  12.245  13.195  11.065 -0.0138  0.0553 -0.0298
31099ION     NA48623  10.798  13.961  10.941 -0.1999 -0.0861  0.2154
31100ION     NA48624  16.912   1.834  10.552  0.0325 -0.0916 -0.0987
31101ION     NA48625  12.404  12.819   5.822  0.0012 -0.2655 -0.0615
31102ION     NA48626   9.685   3.530  11.984 -0.1887 -0.0582 -0.3001
31103ION     NA48627   3.741   5.307   5.559  0.4413 -0.2083 -0.2531
31104ION     NA48628   0.612   5.219   9.903 -0.3418  0.1716  0.3656
31105ION     NA48629   7.272   5.639  10.232 -0.0129  0.0458 -0.1954
31106ION     NA48630   8.248  14.143  12.579 -0.3029 -0.3497  0.2160
31107ION     NA48631   5.904  14.105  15.034 -0.3405 -0.1564 -0.0976
31108ION     NA48632  14.304  16.499  12.927  0.1823  0.0488  0.0755
31109ION     NA48633  14.623   4.852   0.546 -0.4595  0.1374 -0.0293
31110ION     NA48634   0.367   6.351   3.333 -0.0941  0.3496  0.3199
31111ION     NA48635   6.571   6.405  10.296  0.0208 -0.1211 -0.0223
31112ION     NA48636  13.498  15.121  11.023 -0.0316 -0.1989 -0.1329
31113ION     NA48637   1.548   8.754   1.657 -0.4410  0.2726 -0.2459
31114ION     NA48638  12.905   1.135   5.828 -0.1223 -0.0711 -0.0989
31115ION     NA48639  17.217   2.425  11.147 -0.0875  0.2530  0.2535
31116ION     NA48640   2.399   5.452  12.850  0.1241  0.1635  0.1570
31117ION     NA48641   3.295  14.295   5.437  0.1438  0.0235  0.1584
31118ION     NA48642   9.272   3.848   3.172 -0.2454 -0.2179 -0.0757
31119ION     NA48643  16.042   2.732   5.226  0.1173 -0.2720  0.3144
31120ION     NA48644  11.003   7.005   5.257 -0.0399 -0.1423 -0.2536
31121ION     NA48645   3.105  15.721  11.928 -0.0876 -0.0043  0.0438
31122ION     NA48646   7.409  12.782   5.489  0.2175  0.4836  0.0083
31123ION     NA48647  16.136  10.190  10.973  0.1109  0.0032  0.2814
31124ION     NA48648  10.904  18.321  13.031 -0.2263  0.0823  0.1969
31125ION     NA48649   7.581  12.308   1.945 -0.3045  0.1134 -0.3548
31126ION     NA48650  16.457  12.799  14.820 -0.1098 -0.2462 -0.1711
31127ION     NA48651  16.535  11.454  10.254  0.0163  0.0545  0.1777
31128ION     NA48652   4.755   8.413  10.311  0.1529 -0.2876 -0.0846
31129ION     NA48653   3.988  16.836   5.356 -0.3299 -0.1369 -0.0093
31130ION     NA48654  10.273   9.302  15.202 -0.0059  0.0484  0.2147
31131ION     NA48655   0.881   5.758   2.610  0.1785  0.2226  0.1174
31132ION     NA48656   7.148   8.922  12.396  0.0207 -0.2872  0.3331
31133ION     NA48657  15.886  11.244  10.345 -0.5428 -0.1551 -0.0312
31134ION     NA48658  11.434  16.151  10.736  0.2914 -0.0793 -0.0276
31135ION     NA48659  15.894  18.396   5.653  0.1542 -0.0223 -0.3067
31136ION     NA48660  12.604  11.815   4.805  0.2500 -0.1015 -0.1699
31137ION     NA48661  13.103   8.565   5.973 -0.0418  0.0078  0.1726
31138ION     NA48662   0.158   4.481  10.212 -0.1266 -0.3725  0.1987
31139ION     NA48663   8.669  12.405  14.394 -0.0423  0.1050  0.0129
31140ION     NA48664   2.450  13.762  10.002  0.2747  0.0098 -0.0217
31141ION     NA48665  16.554  14.074  10.381  0.1422 -0.2647  0.2496
31142ION     NA48666   7.967   6.700  10.333 -0.1627  0.0442  0.3420
31143ION     NA48667  13.323   9.527   2.021 -0.1619 -0.2609 -0.0286
31144ION     NA48668   4.017   8.174  12.285  0.0469 -0.0698  0.2996
31145ION     NA48669   2.814   8.621   3.084  0.2438  0.0209  0.0335
31146ION     NA48670   1.715   4.148   4.695  0.2231  0.0942 -0.3339
  18.41454  18.41454  15.86051
