INSANE! Membrane UpperLeaflet>loPI:POPI:DPPI:PYPI:ERGO=30.0:5.0:3.0:2.0:10.0 LowerLeaflet>loPI:POPI:DPPI:PYPI:ERGO=30.0:5.0:3.0:2.0:10.0
48670
    1loPI    C1    1  11.308   3.333  11.910 -0.1056  0.0501  0.1513
    1loPI    C2    2  11.619   3.099  11.818 -0.0899  0.1233  0.0166
    1loPI    C3    3  11.496   3.128  12.197 -0.0532 -0.0546  0.0429
    1loPI   PO4    4  11.195   3.317  11.684 -0.1810  0.2511 -0.2630
    1loPI   GL1    5  11.336   3.099  11.369 -0.2372  0.2533 -0.2958
    1loPI   GL2    6  11.550   2.834  11.421 -0.3055 -0.0248  0.2831
    1loPI   C1A    7  11.389   3.067  10.845  0.3979  0.1015  0.0363
    1loPI   C2A    8  11.350   3.097  10.389 -0.1554  0.0278 -0.0990
    1loPI   C3A    9  11.298   3.177   9.919  0.3115 -0.0210  0.2957
    1loPI   C4A   10  11.262   3.062   9.453  0.1598 -0.2380 -0.0826
    1loPI   C5A   11  11.000   2.926   9.198 -0.0706 -0.1665  0.3827
    1loPI   C6A   12  10.613   2.678   9.072 -0.1377 -0.2156 -0.3299
    1loPI   C1B   13  11.811   2.914  11.009  0.5048  0.1342 -0.1515
    1loPI   C2B   14  11.794   2.839  10.642 -0.1271  0.1070 -0.0887
    1loPI   C3B   15  11.758   2.845  10.250  0.2427  0.1103 -0.1923
    1loPI   C4B   16  11.691   2.909   9.878  0.1023 -0.2166  0.2898
    2loPI    C1   17   1.217   9.825  11.363  0.0195  0.0407  0.2025
    2loPI    C2   18   0.888   9.849  11.590 -0.2238 -0.0573 -0.1298
    2loPI    C3   19   1.175   9.585  11.680 -0.2284  0.0355  0.1681
    2loPI   PO4   20   1.229  10.018  11.252  0.3814 -0.1516  0.1245
    2loPI   GL1   21   1.400  10.165  10.914 -0.0540  0.0997  0.0943
    2loPI   GL2   22   1.083  10.098  10.745  0.0320  0.2370  0.0518
    2loPI   C1A   23   1.591  10.310  10.486  0.1847 -0.3151 -0.1276
    2loPI   C2A   24   1.636  10.414  10.072 -0.1538  0.0162 -0.0246
    2loPI   C3A   25   1.660  10.294   9.668  0.0379 -0.2137 -0.1298
    2loPI   C4A   26   1.774  10.308   9.219 -0.1028  0.3400 -0.2870
    2loPI   C5A   27   1.784   9.997   8.798 -0.2226 -0.1256 -0.3581
    2loPI   C6A   28   1.468  10.072   8.447  0.0357 -0.2384  0.1627
    2loPI   C1B   29   1.165  10.081  10.277 -0.0871 -0.1286 -0.1288
    2loPI   C2B   30   1.227  10.117   9.878 -0.0837  0.0767  0.2582
    2loPI   C3B   31   1.271  10.099   9.398  0.1456  0.2860  0.0930
    2loPI   C4B   32   1.220  10.029   8.969  0.0867  0.0434 -0.1142
    3loPI    C1   33  13.469   3.403  11.693 -0.1072  0.2177  0.1401
    3loPI    C2   34  13.684   3.649  11.923  0.2627  0.2781 -0.2584
    3loPI    C3   35  13.450   3.798  11.635 -0.3145  0.2118  0.1602
    3loPI   PO4   36  13.645   3.200  11.634 -0.0591 -0.0014  0.1642
    3loPI   GL1   37  13.916   2.981  11.322  0.3793 -0.2209 -0.1260
    3loPI   GL2   38  13.637   2.705  11.180 -0.0391  0.3932 -0.0478
    3loPI   C1A   39  13.905   3.019  10.863  0.2379 -0.3673  0.2800
    3loPI   C2A   40  13.674   2.970  10.453 -0.0349  0.2176  0.2065
    3loPI   C3A   41  13.533   2.924  10.045  0.5291 -0.1425 -0.0131
    3loPI   C4A   42  13.548   2.921   9.671 -0.1347 -0.3326  0.0592
    3loPI   C5A   43  13.834   2.721   9.421 -0.1823  0.1639 -0.1064
    3loPI   C6A   44  13.952   2.539   8.982 -0.0148  0.0120 -0.3481
    3loPI   C1B   45  13.297   2.911  10.854 -0.0699  0.3532 -0.1743
    3loPI   C2B   46  13.200   2.849  10.522 -0.2014 -0.0801 -0.2286
    3loPI   C3B   47  13.111   2.633  10.194 -0.0753  0.2497 -0.0667
    3loPI   C4B   48  13.102   2.581   9.699  0.1206  0.0731  0.0806
    4loPI    C1   49  16.391  10.245  11.472 -0.2145  0.0729  0.1617
    4loPI    C2   50  16.010  10.290  11.584 -0.1726  0.4145  0.1787
    4loPI    C3   51  16.305  10.385  11.837 -0.0755  0.2559  0.1263
    4loPI   PO4   52  16.381  10.319  11.148 -0.0863 -0.2083  0.0638
    4loPI   GL1   53  16.258  10.194  10.720  0.0213  0.1158  0.0528
    4loPI   GL2   54  16.070   9.824  10.676  0.3042  0.4192  0.0269
    4loPI   C1A   55  16.433  10.072  10.224  0.0775 -0.0580 -0.0665
    4loPI   C2A   56  16.579  10.113   9.846  0.1136 -0.1982 -0.2497
    4loPI   C3A   57  16.648  10.216   9.468 -0.0082 -0.2817 -0.2400
    4loPI   C4A   58  16.791  10.316   9.068  0.0917 -0.0673  0.2330
    4loPI   C5A   59  17.030  10.400   8.720 -0.0556  0.1203 -0.1260
    4loPI   C6A   60  17.153  10.183   8.367  0.1643 -0.0265  0.1473
    4loPI   C1B   61  15.978   9.960  10.387 -0.3280 -0.0720  0.2496
    4loPI   C2B   62  16.040   9.917   9.871  0.2842  0.0641  0.1197
    4loPI   C3B   63  16.200   9.913   9.464 -0.3135 -0.0167 -0.1994
    4loPI   C4B   64  16.358   9.984   9.026  0.3627 -0.3338 -0.0181
    5loPI    C1   65   1.370   2.876  11.653  0.1947  0.1557 -0.0882
    5loPI    C2   66   1.626   2.884  11.961 -0.0017 -0.1088  0.0860
    5loPI    C3   67   1.285   3.092  11.979 -0.0968 -0.2658  0.1246
    5loPI   PO4   68   1.499   2.898  11.408  0.2525  0.4359  0.0361
    5loPI   GL1   69   1.441   2.673  11.056  0.3293  0.1466  0.2103
    5loPI   GL2   70   1.449   2.332  10.951  0.1657 -0.2726 -0.0867
    5loPI   C1A   71   1.418   2.903  10.745  0.1607 -0.1202  0.2671
    5loPI   C2A   72   1.271   2.910  10.412 -0.2202  0.2998 -0.1155
    5loPI   C3A   73   1.301   2.945   9.958  0.1508  0.1086 -0.0369
    5loPI   C4A   74   1.306   2.904   9.547  0.0095  0.0213  0.0002
    5loPI   C5A   75   1.435   3.013   9.154 -0.1462 -0.1027 -0.0945
    5loPI   C6A   76   1.376   2.761   8.907 -0.0767 -0.4520 -0.0715
    5loPI   C1B   77   1.690   2.152  10.614  0.1740  0.1400  0.1307
    5loPI   C2B   78   1.750   2.171  10.229 -0.3419 -0.0235  0.1437
    5loPI   C3B   79   1.822   2.093   9.809 -0.0790 -0.4031 -0.1464
    5loPI   C4B   80   1.753   2.206   9.418 -0.0185  0.0658 -0.2046
    6loPI    C1   81   8.296  13.472  11.787 -0.2425  0.1273  0.0553
    6loPI    C2   82   8.411  13.566  12.159  0.2073 -0.2178  0.0124
    6loPI    C3   83   8.310  13.189  12.069  0.3090 -0.1821 -0.2629
    6loPI   PO4   84   8.040  13.688  11.738 -0.0728 -0.1572  0.0616
    6loPI   GL1   85   7.871  13.891  11.420  0.1017 -0.2203  0.1368
    6loPI   GL2   86   7.938  13.592  11.237 -0.1951  0.0163  0.2009
    6loPI   C1A   87   7.990  14.029  11.018  0.2478 -0.3734 -0.1674
    6loPI   C2A   88   7.968  14.054  10.559 -0.1759 -0.2679 -0.0804
    6loPI   C3A   89   7.931  14.055  10.114 -0.0510  0.0853  0.0939
    6loPI   C4A   90   7.959  14.021   9.579 -0.1168  0.2690 -0.1047
    6loPI   C5A   91   8.357  14.139   9.394  0.1456  0.1173  0.0498
    6loPI   C6A   92   8.624  14.419   9.181 -0.1923  0.1036  0.0326
    6loPI   C1B   93   7.916  13.539  10.714  0.2086  0.1586 -0.1068
    6loPI   C2B   94   7.868  13.494  10.202  0.0166  0.2382  0.0954
    6loPI   C3B   95   7.826  13.493   9.729 -0.3750  0.2676  0.0427
    6loPI   C4B   96   7.843  13.466   9.283 -0.0394 -0.1663 -0.1237
    7loPI    C1   97   8.010  12.383  11.595  0.0282 -0.1567 -0.0523
    7loPI    C2   98   8.182  12.300  11.947  0.0823  0.0018 -0.0405
    7loPI    C3   99   7.850  12.523  11.934  0.1063  0.0349 -0.0931
    7loPI   PO4  100   8.171  12.580  11.378  0.0948  0.1277  0.1491
    7loPI   GL1  101   8.427  12.487  11.068  0.1332  0.3155 -0.0982
    7loPI   GL2  102   8.183  12.672  10.901 -0.0612 -0.2569 -0.2730
    7loPI   C1A  103   8.544  12.397  10.700 -0.1290 -0.4881 -0.0644
    7loPI   C2A  104   8.642  12.401  10.208  0.1231 -0.2214 -0.1344
    7loPI   C3A  105   8.686  12.508   9.664  0.3870  0.1046 -0.1282
    7loPI   C4A  106   8.930  12.404   9.268  0.1609 -0.0357  0.0876
    7loPI   C5A  107   9.351  12.319   9.078 -0.0052  0.2445  0.0428
    7loPI   C6A  108   9.719  12.172   9.240 -0.0982  0.1492  0.0276
    7loPI   C1B  109   8.216  12.642  10.420  0.1324  0.2806 -0.2163
    7loPI   C2B  110   8.231  12.683   9.959  0.0235 -0.4934 -0.0915
    7loPI   C3B  111   8.264  12.624   9.522 -0.0317 -0.1357 -0.5351
    7loPI   C4B  112   8.044  12.612   9.144 -0.0941  0.0576  0.2133
    8loPI    C1  113  10.729   0.379  12.197  0.0107  0.1654  0.1404
    8loPI    C2  114  10.885   0.110  12.449 -0.0722  0.1403  0.1654
    8loPI    C3  115  10.820   0.485  12.572 -0.0094  0.1572  0.1476
    8loPI   PO4  116  10.874   0.340  11.887 -0.0412 -0.1410 -0.0459
    8loPI   GL1  117  10.701   0.345  11.470  0.3513 -0.1289 -0.1842
    8loPI   GL2  118  10.870   0.471  11.299 -0.0417  0.5539  0.0842
    8loPI   C1A  119  10.446   0.579  11.139  0.2237 -0.2042 -0.0878
    8loPI   C2A  120  10.431   0.632  10.713 -0.2056  0.0389  0.1632
    8loPI   C3A  121  10.404   0.615  10.310 -0.2048  0.0257  0.1924
    8loPI   C4A  122  10.312   0.585   9.839  0.1568 -0.0137  0.0152
    8loPI   C5A  123  10.291   0.610   9.385  0.2423  0.1593 -0.2080
    8loPI   C6A  124  10.294   0.632   9.058  0.0375  0.0294 -0.0093
    8loPI   C1B  125  10.888   0.354  10.857 -0.0283 -0.6051 -0.0553
    8loPI   C2B  126  10.860   0.347  10.383 -0.0471  0.1103 -0.0989
    8loPI   C3B  127  10.831   0.317   9.982 -0.1743 -0.2980  0.0506
    8loPI   C4B  128  10.668   0.353   9.588  0.1162 -0.0036 -0.0211
    9loPI    C1  129  11.605  11.822  11.781  0.3283 -0.1544  0.0393
    9loPI    C2  130  11.944  12.012  11.877  0.0969  0.2289  0.1175
    9loPI    C3  131  11.679  11.918  12.162  0.1124 -0.0259  0.0506
    9loPI   PO4  132  11.631  11.732  11.494 -0.0966 -0.2582 -0.1377
    9loPI   GL1  133  11.481  11.412  11.227  0.0520 -0.1529 -0.1973
    9loPI   GL2  134  11.471  11.143  11.040 -0.1548  0.0228 -0.3445
    9loPI   C1A  135  11.457  11.675  10.840  0.2469  0.0616  0.0270
    9loPI   C2A  136  11.428  11.866  10.387  0.1285  0.4302  0.3507
    9loPI   C3A  137  11.334  11.848   9.919 -0.0861  0.0255  0.0055
    9loPI   C4A  138  11.408  11.859   9.470 -0.1731  0.1488  0.0122
    9loPI   C5A  139  11.286  11.540   9.143 -0.0418 -0.0085 -0.1562
    9loPI   C6A  140  11.169  11.223   8.935 -0.3345 -0.2415  0.1454
    9loPI   C1B  141  11.428  11.146  10.623  0.1875  0.0052  0.0128
    9loPI   C2B  142  11.355  11.311  10.311 -0.0414 -0.2774  0.1473
    9loPI   C3B  143  11.394  11.247   9.891 -0.1331  0.0241 -0.0738
    9loPI   C4B  144  11.358  11.185   9.470  0.0330  0.5159 -0.0423
   10loPI    C1  145   8.366   4.130  12.278 -0.1363 -0.0649  0.0653
   10loPI    C2  146   8.263   4.441  12.507 -0.0655 -0.0943  0.1377
   10loPI    C3  147   8.637   4.301  12.517 -0.0909 -0.1662  0.0867
   10loPI   PO4  148   8.094   3.996  12.138 -0.1316  0.0583  0.1289
   10loPI   GL1  149   8.020   3.871  11.688 -0.1467 -0.0344 -0.0471
   10loPI   GL2  150   8.122   4.188  11.641  0.2209 -0.1073  0.2130
   10loPI   C1A  151   8.085   3.916  11.212 -0.2338 -0.1389 -0.0782
   10loPI   C2A  152   8.113   4.008  10.767  0.0763  0.1074  0.2338
   10loPI   C3A  153   8.129   4.133  10.276  0.0913  0.0034  0.0841
   10loPI   C4A  154   8.245   4.078   9.880  0.0208  0.2787 -0.2307
   10loPI   C5A  155   8.333   3.829   9.390 -0.3010 -0.0341  0.2230
   10loPI   C6A  156   8.283   3.597   9.002  0.0065  0.0355 -0.2460
   10loPI   C1B  157   8.100   4.439  11.315 -0.0979  0.0968  0.2213
   10loPI   C2B  158   8.107   4.479  10.875 -0.3837  0.0319  0.0010
   10loPI   C3B  159   8.079   4.606  10.434  0.2957  0.1846 -0.0217
   10loPI   C4B  160   8.277   4.597  10.037  0.1444 -0.1260  0.3358
   11loPI    C1  161   0.869  13.309  11.764  0.2174 -0.0383 -0.0403
   11loPI    C2  162   1.197  13.080  11.781  0.2685  0.0437  0.0930
   11loPI    C3  163   1.159  13.394  12.026  0.2625  0.2631 -0.1836
   11loPI   PO4  164   0.772  13.410  11.541 -0.1563 -0.4110 -0.2464
   11loPI   GL1  165   0.886  13.430  11.095  0.2893 -0.1036  0.1171
   11loPI   GL2  166   0.553  13.430  11.032 -0.0575 -0.1164 -0.1186
   11loPI   C1A  167   0.924  13.587  10.690 -0.0363 -0.1109  0.0584
   11loPI   C2A  168   1.014  13.562  10.346  0.0342 -0.0862 -0.1850
   11loPI   C3A  169   1.054  13.497   9.985  0.1063 -0.1115 -0.1598
   11loPI   C4A  170   1.069  13.542   9.566  0.3264 -0.3359  0.2142
   11loPI   C5A  171   0.990  13.410   9.091  0.3474  0.1726 -0.1890
   11loPI   C6A  172   0.535  13.518   8.904 -0.0253  0.0518 -0.0439
   11loPI   C1B  173   0.530  13.260  10.627 -0.1543  0.0137  0.0712
   11loPI   C2B  174   0.588  13.282  10.148  0.2174  0.0078  0.1556
   11loPI   C3B  175   0.680  13.228   9.765 -0.0883 -0.1303  0.2364
   11loPI   C4B  176   0.506  13.225   9.310 -0.3892 -0.3835 -0.0438
   12loPI    C1  177  12.300   2.638  11.907 -0.0132  0.0645 -0.0643
   12loPI    C2  178  12.083   2.334  12.047  0.2906 -0.2606 -0.2807
   12loPI    C3  179  12.208   2.621  12.296  0.0005 -0.3085 -0.0737
   12loPI   PO4  180  12.363   2.546  11.693 -0.3170 -0.3161 -0.1782
   12loPI   GL1  181  12.495   2.529  11.325 -0.0621 -0.1289  0.1638
   12loPI   GL2  182  12.324   2.719  11.193  0.0394  0.2887 -0.1656
   12loPI   C1A  183  12.694   2.551  10.884  0.1312 -0.0735  0.0638
   12loPI   C2A  184  12.747   2.508  10.500 -0.0400  0.0711  0.1076
   12loPI   C3A  185  12.657   2.381  10.125  0.1383  0.0894  0.0426
   12loPI   C4A  186  12.558   2.296   9.662 -0.2459  0.2807 -0.1165
   12loPI   C5A  187  12.335   2.013   9.256 -0.2566  0.0802  0.0901
   12loPI   C6A  188  11.942   1.744   9.275  0.2399 -0.3368 -0.3174
   12loPI   C1B  189  12.241   2.733  10.742  0.1161  0.2484  0.0366
   12loPI   C2B  190  12.242   2.631  10.262 -0.1691 -0.2095 -0.0056
   12loPI   C3B  191  12.197   2.552   9.846 -0.1108  0.0062 -0.0386
   12loPI   C4B  192  12.179   2.497   9.422 -0.1700 -0.0042 -0.0979
   13loPI    C1  193   5.617   4.675  12.375  0.2670  0.0822 -0.2072
   13loPI    C2  194   5.803   4.346  12.508 -0.0545 -0.0660 -0.1161
   13loPI    C3  195   5.833   4.689  12.711 -0.1176 -0.1625  0.0584
   13loPI   PO4  196   5.675   4.657  12.111  0.1434  0.0804  0.0310
   13loPI   GL1  197   5.645   4.830  11.645 -0.0808  0.3901  0.0032
   13loPI   GL2  198   5.307   4.843  11.555 -0.0283  0.0441  0.2491
   13loPI   C1A  199   5.815   4.636  11.314 -0.0886  0.2574  0.2306
   13loPI   C2A  200   5.909   4.322  10.962  0.1068  0.0710  0.0124
   13loPI   C3A  201   5.788   4.327  10.611 -0.0511 -0.0368  0.2207
   13loPI   C4A  202   5.872   4.404  10.201 -0.2205  0.3018  0.0035
   13loPI   C5A  203   5.903   4.377   9.725  0.1517 -0.2081 -0.0425
   13loPI   C6A  204   5.976   4.559   9.272 -0.1307 -0.3002 -0.1233
   13loPI   C1B  205   5.455   5.093  11.152 -0.1399  0.4229 -0.0081
   13loPI   C2B  206   5.471   5.274  10.765 -0.2019 -0.2921  0.3380
   13loPI   C3B  207   5.488   5.242  10.326 -0.0156  0.0574 -0.1823
   13loPI   C4B  208   5.562   5.170   9.873 -0.1260 -0.1392 -0.0756
   14loPI    C1  209  13.059  15.679  11.768 -0.1607 -0.2619  0.2600
   14loPI    C2  210  13.390  15.859  11.901 -0.1273  0.0855 -0.2657
   14loPI    C3  211  13.038  15.936  12.074 -0.0036  0.0701 -0.0017
   14loPI   PO4  212  12.939  15.664  11.525 -0.2809 -0.2305  0.2317
   14loPI   GL1  213  12.729  15.893  11.276 -0.1940  0.0265  0.1693
   14loPI   GL2  214  12.415  15.724  11.276  0.0250 -0.0932 -0.1643
   14loPI   C1A  215  12.913  16.220  10.983  0.2783  0.0987 -0.1224
   14loPI   C2A  216  13.004  16.293  10.637 -0.0726 -0.1308  0.2044
   14loPI   C3A  217  13.020  16.226  10.206 -0.0267 -0.1525  0.3051
   14loPI   C4A  218  12.974  16.132   9.744 -0.1355 -0.0138  0.0641
   14loPI   C5A  219  12.930  16.141   9.236 -0.0341 -0.1310 -0.2143
   14loPI   C6A  220  12.979  16.022   8.785 -0.1393  0.0536 -0.0046
   14loPI   C1B  221  12.463  15.886  10.829 -0.1695 -0.1192  0.1386
   14loPI   C2B  222  12.412  15.863  10.397  0.0423 -0.0401  0.4080
   14loPI   C3B  223  12.493  15.963   9.952  0.0786  0.0983  0.0325
   14loPI   C4B  224  12.487  15.947   9.529  0.1962  0.1177 -0.1656
   15loPI    C1  225  12.559  14.772  11.880 -0.1301  0.1070 -0.1746
   15loPI    C2  226  12.234  14.668  12.089 -0.1419 -0.0685 -0.2782
   15loPI    C3  227  12.487  14.387  11.958  0.1857  0.0825  0.0125
   15loPI   PO4  228  12.524  14.844  11.673  0.2060 -0.0674 -0.2325
   15loPI   GL1  229  12.494  14.803  11.247  0.0193 -0.1108 -0.0021
   15loPI   GL2  230  12.177  14.975  11.277 -0.0215  0.2085  0.0474
   15loPI   C1A  231  12.471  14.893  10.760  0.1607  0.1343  0.0844
   15loPI   C2A  232  12.537  14.909  10.333 -0.0797  0.1662  0.2371
   15loPI   C3A  233  12.383  14.928   9.919 -0.1606 -0.1009  0.0565
   15loPI   C4A  234  12.377  14.799   9.503  0.0672  0.0125  0.1789
   15loPI   C5A  235  12.225  14.977   9.143 -0.2315  0.2114  0.0920
   15loPI   C6A  236  12.192  14.990   8.746  0.1362  0.0112  0.0163
   15loPI   C1B  237  11.984  14.891  10.883  0.0585  0.0191  0.0268
   15loPI   C2B  238  12.042  15.028  10.463 -0.1277  0.2105 -0.2814
   15loPI   C3B  239  11.962  15.183  10.086 -0.2273  0.0763 -0.0192
   15loPI   C4B  240  12.049  15.235   9.575  0.1456  0.0149  0.1807
   16loPI    C1  241   7.908   9.263  11.867 -0.1433 -0.2214 -0.0403
   16loPI    C2  242   7.509   9.275  11.887 -0.1333 -0.0381  0.0734
   16loPI    C3  243   7.728   9.439  12.178  0.0261 -0.2914  0.0988
   16loPI   PO4  244   7.995   9.308  11.653 -0.0012  0.4621  0.2509
   16loPI   GL1  245   8.026   9.201  11.339 -0.0903 -0.0505 -0.0778
   16loPI   GL2  246   8.052   9.573  11.196 -0.1844  0.3186  0.1304
   16loPI   C1A  247   8.081   9.086  10.931 -0.0328  0.0351 -0.0502
   16loPI   C2A  248   8.064   9.038  10.520  0.0369  0.0677 -0.2605
   16loPI   C3A  249   7.919   8.984  10.110 -0.0253 -0.4522  0.0028
   16loPI   C4A  250   7.946   8.942   9.714 -0.1488 -0.1302  0.0990
   16loPI   C5A  251   7.901   8.987   9.237  0.1415 -0.2728 -0.0582
   16loPI   C6A  252   7.589   9.174   9.007  0.0810  0.0986  0.0509
   16loPI   C1B  253   7.930   9.570  10.734 -0.1233 -0.1532  0.0112
   16loPI   C2B  254   7.978   9.611  10.306 -0.0405  0.0942 -0.2546
   16loPI   C3B  255   7.917   9.548   9.968 -0.2713 -0.1353  0.2267
   16loPI   C4B  256   8.016   9.533   9.674 -0.1905  0.0573 -0.0856
   17loPI    C1  257  16.820   8.866  11.331 -0.0643 -0.1543  0.0296
   17loPI    C2  258  16.497   9.102  11.327  0.1674  0.1760  0.2813
   17loPI    C3  259  16.789   9.166  11.593  0.3857 -0.1967  0.1399
   17loPI   PO4  260  16.878   8.869  11.033 -0.1040  0.1475 -0.1860
   17loPI   GL1  261  17.055   8.966  10.718 -0.2675 -0.0946 -0.1162
   17loPI   GL2  262  17.072   9.220  10.657 -0.0679  0.1659 -0.0080
   17loPI   C1A  263  17.094   8.842  10.292  0.1423  0.1260  0.1632
   17loPI   C2A  264  17.077   8.870   9.855  0.0145  0.0090  0.0204
   17loPI   C3A  265  17.096   8.942   9.456  0.1638  0.1680  0.1404
   17loPI   C4A  266  17.035   8.895   9.049  0.1270 -0.2671 -0.0347
   17loPI   C5A  267  17.025   8.711   8.607  0.1295  0.1309 -0.2203
   17loPI   C6A  268  17.042   8.711   8.158  0.3231  0.1734 -0.2049
   17loPI   C1B  269  17.183   9.330  10.311 -0.1089 -0.4949 -0.1019
   17loPI   C2B  270  17.026   9.362   9.870 -0.1237 -0.0459 -0.1208
   17loPI   C3B  271  17.058   9.417   9.527  0.1476 -0.0213  0.1460
   17loPI   C4B  272  17.053   9.470   9.140  0.1448  0.1572 -0.1848
   18loPI    C1  273   3.968   0.618  11.402 -0.1010  0.0301 -0.0053
   18loPI    C2  274   3.705   0.442  11.647  0.0436 -0.1185  0.0450
   18loPI    C3  275   4.064   0.553  11.785  0.0596 -0.0422 -0.0568
   18loPI   PO4  276   4.053   0.390  11.155  0.1240  0.0572  0.0817
   18loPI   GL1  277   3.934   0.058  10.975  0.2585  0.1443  0.2111
   18loPI   GL2  278   3.971  -0.221  11.006 -0.1499  0.2130 -0.0957
   18loPI   C1A  279   4.067   0.176  10.520  0.0634  0.1670 -0.1737
   18loPI   C2A  280   4.099   0.212  10.084  0.0770  0.2553 -0.1831
   18loPI   C3A  281   4.171   0.225   9.604  0.3300  0.1332  0.2207
   18loPI   C4A  282   4.213   0.038   9.257 -0.2042 -0.1184  0.0627
   18loPI   C5A  283   4.165  -0.150   8.859 -0.1670  0.2705  0.1327
   18loPI   C6A  284   4.111  -0.229   8.456 -0.2069 -0.0915 -0.1823
   18loPI   C1B  285   3.928  -0.407  10.577 -0.2145 -0.0067  0.1168
   18loPI   C2B  286   4.077  -0.306  10.201  0.1358 -0.2025  0.1416
   18loPI   C3B  287   4.073  -0.321   9.800  0.1127 -0.1248  0.1073
   18loPI   C4B  288   4.150  -0.433   9.424  0.1134 -0.0828 -0.1957
   19loPI    C1  289   8.147  11.285  11.996  0.0968  0.1486 -0.0053
   19loPI    C2  290   7.815  11.422  11.821  0.0770  0.2610  0.1193
   19loPI    C3  291   7.793  11.240  12.177  0.1174  0.0339  0.0072
   19loPI   PO4  292   8.252  11.166  11.748  0.0528  0.1829  0.0610
   19loPI   GL1  293   7.983  11.194  11.424 -0.2039  0.1035  0.2399
   19loPI   GL2  294   8.122  10.843  11.348 -0.0509 -0.0762 -0.0483
   19loPI   C1A  295   8.098  11.096  10.898 -0.3711 -0.0906  0.2525
   19loPI   C2A  296   8.107  11.118  10.428  0.1170 -0.2211 -0.0287
   19loPI   C3A  297   8.084  11.133  10.180 -0.2550  0.0644  0.2047
   19loPI   C4A  298   8.109  11.101   9.796  0.3408 -0.2207  0.0173
   19loPI   C5A  299   8.001  11.021   9.336  0.0748  0.3788 -0.0377
   19loPI   C6A  300   7.608  10.934   9.072  0.1522 -0.1057 -0.1115
   19loPI   C1B  301   8.074  10.601  11.034 -0.0417 -0.0314  0.2150
   19loPI   C2B  302   8.064  10.586  10.577 -0.0426 -0.1470 -0.2293
   19loPI   C3B  303   8.103  10.568  10.137 -0.2436 -0.0663  0.1279
   19loPI   C4B  304   8.136  10.575   9.712  0.2691  0.2365 -0.1715
   20loPI    C1  305  15.967  11.968  11.017  0.0359 -0.1516  0.0069
   20loPI    C2  306  16.009  12.243  11.305 -0.1787 -0.0279 -0.0778
   20loPI    C3  307  16.176  12.302  10.946  0.0849 -0.1799  0.0171
   20loPI   PO4  308  15.700  11.736  11.078  0.1880  0.1687 -0.2744
   20loPI   GL1  309  15.640  11.420  10.870 -0.1406  0.0560 -0.1464
   20loPI   GL2  310  15.952  11.340  10.787  0.0818  0.0459 -0.0118
   20loPI   C1A  311  15.470  11.544  10.433 -0.2090 -0.0102  0.2416
   20loPI   C2A  312  15.330  11.631  10.080  0.1090 -0.1813 -0.0573
   20loPI   C3A  313  15.226  11.589   9.678  0.0930  0.1643  0.0850
   20loPI   C4A  314  15.385  11.545   9.214 -0.0174 -0.0845 -0.0956
   20loPI   C5A  315  15.366  11.593   8.834 -0.0278  0.1084  0.0400
   20loPI   C6A  316  15.675  11.468   8.460  0.0252 -0.2888 -0.2051
   20loPI   C1B  317  15.788  11.163  10.452  0.1338 -0.0086 -0.1610
   20loPI   C2B  318  15.710  11.242  10.117  0.0424 -0.2795  0.2879
   20loPI   C3B  319  15.782  11.299   9.662 -0.1102  0.1811  0.1683
   20loPI   C4B  320  15.815  11.258   9.313  0.1960 -0.2149  0.0067
   21loPI    C1  321  13.126  12.851  11.740  0.0648  0.0177 -0.0261
   21loPI    C2  322  13.041  13.215  11.881  0.0780 -0.0119  0.0589
   21loPI    C3  323  13.353  13.012  12.026  0.1114 -0.0294 -0.0363
   21loPI   PO4  324  13.077  12.871  11.397 -0.0559  0.3439 -0.2202
   21loPI   GL1  325  13.126  12.884  10.999  0.2498 -0.1297 -0.1902
   21loPI   GL2  326  13.345  13.136  11.062  0.1940  0.3549 -0.0580
   21loPI   C1A  327  12.896  12.735  10.638  0.2359 -0.2134 -0.0565
   21loPI   C2A  328  12.864  12.957  10.274 -0.1294  0.0346  0.0927
   21loPI   C3A  329  12.915  12.969   9.924  0.1904 -0.0595  0.0220
   21loPI   C4A  330  12.797  13.104   9.518  0.1183 -0.0901  0.1701
   21loPI   C5A  331  12.868  13.230   9.047  0.4199  0.2578 -0.1810
   21loPI   C6A  332  13.036  13.150   8.713 -0.0471  0.0079  0.0815
   21loPI   C1B  333  13.244  13.274  10.645  0.2777  0.1588 -0.2930
   21loPI   C2B  334  13.139  13.396  10.202 -0.0552  0.3749  0.0676
   21loPI   C3B  335  13.186  13.375   9.722 -0.0931  0.2252 -0.1871
   21loPI   C4B  336  13.293  13.317   9.298  0.4252  0.0513  0.0218
   22loPI    C1  337  11.346   6.364  11.771  0.2587  0.0780  0.0252
   22loPI    C2  338  11.214   6.252  12.132  0.2002 -0.2323 -0.0889
   22loPI    C3  339  11.537   6.487  12.101  0.0473  0.0200  0.1716
   22loPI   PO4  340  11.118   6.230  11.647 -0.1862  0.2699 -0.1655
   22loPI   GL1  341  11.123   6.167  11.199 -0.0309  0.1725  0.1778
   22loPI   GL2  342  11.315   6.428  11.132 -0.0091 -0.2070  0.1964
   22loPI   C1A  343  10.837   6.026  10.896 -0.1508  0.1014 -0.2263
   22loPI   C2A  344  10.830   6.071  10.450  0.2071 -0.0342 -0.0965
   22loPI   C3A  345  10.847   6.101  10.094 -0.2469 -0.2658 -0.0624
   22loPI   C4A  346  10.849   6.370   9.621 -0.0350 -0.0656  0.1856
   22loPI   C5A  347  10.999   6.616   9.298  0.1180  0.0366 -0.4183
   22loPI   C6A  348  10.861   6.990   9.125  0.1256  0.0661 -0.0753
   22loPI   C1B  349  11.288   6.456  10.697 -0.0664  0.2115  0.0217
   22loPI   C2B  350  11.366   6.512  10.293 -0.2341 -0.0657  0.3321
   22loPI   C3B  351  11.252   6.361   9.890 -0.1369  0.0537  0.2603
   22loPI   C4B  352  11.324   6.295   9.518  0.1015  0.1701  0.1906
   23loPI    C1  353   5.212  13.975  11.675  0.0501 -0.0023 -0.1738
   23loPI    C2  354   5.028  13.641  11.796 -0.1569  0.1131 -0.1650
   23loPI    C3  355   5.299  13.817  12.032 -0.0670 -0.0330 -0.1583
   23loPI   PO4  356   5.019  14.152  11.545 -0.0969 -0.0448 -0.2299
   23loPI   GL1  357   4.733  14.331  11.255  0.1226  0.0080 -0.1722
   23loPI   GL2  358   4.766  14.600  11.186  0.2481  0.3939 -0.0941
   23loPI   C1A  359   4.643  14.016  10.985  0.1505 -0.1077  0.1902
   23loPI   C2A  360   4.616  14.005  10.625 -0.3233 -0.2391  0.0919
   23loPI   C3A  361   4.681  13.785  10.262 -0.2079 -0.1992  0.1827
   23loPI   C4A  362   4.761  13.906   9.773  0.0341 -0.2246  0.4613
   23loPI   C5A  363   4.822  13.931   9.384  0.0242  0.2960 -0.1918
   23loPI   C6A  364   5.202  14.140   9.153  0.2992 -0.1435 -0.0537
   23loPI   C1B  365   4.727  14.771  10.722  0.1018  0.2972 -0.4650
   23loPI   C2B  366   4.713  14.703  10.354 -0.3584 -0.0101  0.1655
   23loPI   C3B  367   4.728  14.452   9.918 -0.0584 -0.2077 -0.1618
   23loPI   C4B  368   4.872  14.450   9.402 -0.1950 -0.4081  0.3416
   24loPI    C1  369  13.835  12.248  11.358 -0.4124  0.1498  0.0550
   24loPI    C2  370  13.830  11.984  11.658 -0.0094  0.1816  0.0939
   24loPI    C3  371  13.861  12.376  11.736  0.2036  0.1828  0.0110
   24loPI   PO4  372  14.001  12.107  11.140 -0.0517 -0.0182  0.3510
   24loPI   GL1  373  13.952  11.984  10.812  0.3938 -0.1108 -0.1652
   24loPI   GL2  374  14.157  12.078  10.592  0.0606  0.1322  0.2025
   24loPI   C1A  375  13.797  11.804  10.371  0.0844  0.3152  0.0042
   24loPI   C2A  376  13.775  11.887   9.982  0.1389 -0.2898 -0.1033
   24loPI   C3A  377  13.680  11.881   9.595 -0.0414 -0.0990  0.1602
   24loPI   C4A  378  13.701  11.801   9.122 -0.1010  0.0640  0.0887
   24loPI   C5A  379  13.792  11.844   8.669  0.0908 -0.0235 -0.0309
   24loPI   C6A  380  13.979  11.441   8.541  0.0331  0.0507 -0.0933
   24loPI   C1B  381  14.088  12.191  10.232 -0.0305  0.1202 -0.1722
   24loPI   C2B  382  14.112  12.316   9.783 -0.0213  0.2728 -0.2446
   24loPI   C3B  383  13.947  12.196   9.318  0.0285  0.2530 -0.3718
   24loPI   C4B  384  13.750  12.461   8.971 -0.0424  0.0964 -0.0967
   25loPI    C1  385  11.617   8.308  11.731  0.1372  0.1055 -0.0674
   25loPI    C2  386  11.961   8.407  11.908 -0.1607  0.3801  0.3763
   25loPI    C3  387  11.748   8.097  12.044  0.0247  0.0532 -0.0550
   25loPI   PO4  388  11.585   8.455  11.470  0.1130 -0.0495 -0.0353
   25loPI   GL1  389  11.674   8.539  11.109 -0.2046 -0.2300 -0.0495
   25loPI   GL2  390  11.505   8.756  11.040 -0.1257 -0.1233  0.0820
   25loPI   C1A  391  11.783   8.385  10.738 -0.2145 -0.1135 -0.1277
   25loPI   C2A  392  11.954   8.076  10.328  0.3586 -0.1537 -0.2317
   25loPI   C3A  393  11.952   8.146   9.969 -0.0742  0.0486  0.1416
   25loPI   C4A  394  11.962   8.081   9.498 -0.2709  0.1870  0.0792
   25loPI   C5A  395  11.905   8.148   9.046  0.2008 -0.0769 -0.0329
   25loPI   C6A  396  11.790   8.595   8.789 -0.1384 -0.0076 -0.0272
   25loPI   C1B  397  11.353   8.684  10.636  0.4816  0.1127 -0.0045
   25loPI   C2B  398  11.147   8.627  10.240  0.0155  0.0799  0.3280
   25loPI   C3B  399  11.076   8.552   9.946  0.0807 -0.1632  0.0315
   25loPI   C4B  400  11.160   8.648   9.512  0.1000 -0.3741 -0.1617
   26loPI    C1  401   7.847   1.829  12.108  0.0727  0.0645  0.1895
   26loPI    C2  402   7.857   1.464  12.271  0.0311 -0.0267 -0.0087
   26loPI    C3  403   8.181   1.698  12.284  0.0375 -0.0442  0.1761
   26loPI   PO4  404   7.765   1.756  11.848 -0.4701  0.0665  0.1603
   26loPI   GL1  405   7.688   1.715  11.346 -0.2063 -0.1405 -0.0973
   26loPI   GL2  406   7.868   1.527  11.334  0.0715  0.1397  0.1991
   26loPI   C1A  407   7.765   1.756  10.912 -0.0210  0.2680  0.0799
   26loPI   C2A  408   7.770   1.733  10.418 -0.0567 -0.0074  0.0102
   26loPI   C3A  409   7.610   1.684  10.038  0.3676 -0.0549 -0.2939
   26loPI   C4A  410   7.780   1.800   9.550 -0.1384  0.1374  0.0354
   26loPI   C5A  411   8.187   1.916   9.343  0.2261 -0.3792 -0.0843
   26loPI   C6A  412   8.590   2.047   9.426  0.0801  0.3928  0.2594
   26loPI   C1B  413   8.127   1.429  10.996 -0.0572  0.1768 -0.1842
   26loPI   C2B  414   8.167   1.459  10.507 -0.1438 -0.0767 -0.0980
   26loPI   C3B  415   8.178   1.434  10.048  0.0274  0.1834 -0.0294
   26loPI   C4B  416   8.163   1.460   9.582 -0.1332  0.0287  0.1147
   27loPI    C1  417   1.583  11.506  11.497  0.2085 -0.1853  0.0489
   27loPI    C2  418   1.858  11.285  11.308  0.3196 -0.1939  0.2179
   27loPI    C3  419   1.609  11.113  11.569  0.1224 -0.1942  0.0325
   27loPI   PO4  420   1.455  11.663  11.345  0.2784  0.2205  0.0261
   27loPI   GL1  421   1.654  11.894  11.089 -0.0121 -0.0424  0.0690
   27loPI   GL2  422   1.877  11.784  11.081 -0.1981 -0.2326  0.1159
   27loPI   C1A  423   1.737  11.936  10.616  0.1804 -0.0615  0.0310
   27loPI   C2A  424   1.816  11.890  10.198 -0.0495 -0.1371 -0.1397
   27loPI   C3A  425   1.900  11.935   9.764 -0.3430 -0.3845 -0.0532
   27loPI   C4A  426   2.010  11.889   9.323  0.2198  0.0729  0.0534
   27loPI   C5A  427   2.049  11.991   8.877  0.1074  0.0798 -0.4334
   27loPI   C6A  428   1.886  11.678   8.661 -0.1266 -0.0412 -0.1137
   27loPI   C1B  429   2.136  11.636  10.859 -0.0552  0.1193 -0.0681
   27loPI   C2B  430   2.210  11.628  10.484 -0.1415 -0.0325  0.0444
   27loPI   C3B  431   2.207  11.654   9.999 -0.1317  0.1982  0.0979
   27loPI   C4B  432   2.288  11.569   9.645 -0.2237  0.1405  0.0161
   28loPI    C1  433  10.014   3.009  11.772  0.0702 -0.2800  0.2031
   28loPI    C2  434  10.207   3.268  12.008 -0.0035 -0.0613  0.0274
   28loPI    C3  435  10.325   3.216  11.629 -0.0086 -0.2644  0.0523
   28loPI   PO4  436   9.835   2.976  11.666 -0.1021  0.0055  0.1127
   28loPI   GL1  437   9.700   2.887  11.339  0.1332 -0.3827  0.1470
   28loPI   GL2  438   9.372   2.903  11.311  0.3047 -0.5009 -0.1445
   28loPI   C1A  439   9.936   2.948  10.999 -0.0480 -0.0956 -0.1175
   28loPI   C2A  440  10.026   2.895  10.541  0.0956 -0.3811  0.0038
   28loPI   C3A  441  10.058   2.919  10.114 -0.0945 -0.0720 -0.1342
   28loPI   C4A  442  10.004   2.915   9.806 -0.0553  0.0022 -0.0399
   28loPI   C5A  443   9.805   2.568   9.501  0.1430  0.1423  0.0322
   28loPI   C6A  444   9.842   2.400   9.123  0.0297  0.2227  0.2921
   28loPI   C1B  445   9.463   2.748  10.925  0.0342 -0.0276 -0.1521
   28loPI   C2B  446   9.556   2.634  10.542 -0.2343  0.0338  0.1193
   28loPI   C3B  447   9.493   2.637  10.064  0.0970  0.0899 -0.2312
   28loPI   C4B  448   9.348   2.689   9.592  0.1745  0.1089  0.1087
   29loPI    C1  449  16.503   0.980  11.566  0.0640 -0.1242  0.1047
   29loPI    C2  450  16.536   1.328  11.760  0.0524 -0.1521  0.1571
   29loPI    C3  451  16.290   1.045  11.898 -0.0321 -0.1341  0.0454
   29loPI   PO4  452  16.518   1.084  11.283  0.0409  0.2057 -0.2080
   29loPI   GL1  453  16.841   1.230  11.009 -0.2959 -0.2198  0.0483
   29loPI   GL2  454  17.052   1.285  10.728  0.0555  0.2159 -0.1714
   29loPI   C1A  455  16.734   0.927  10.605 -0.1358 -0.3049  0.0761
   29loPI   C2A  456  16.558   0.997  10.305 -0.1747 -0.1755  0.1255
   29loPI   C3A  457  16.685   0.962   9.895 -0.3564  0.2469 -0.0278
   29loPI   C4A  458  16.784   1.054   9.526 -0.0910 -0.2929 -0.0072
   29loPI   C5A  459  16.865   1.111   9.078  0.3265  0.0792  0.2033
   29loPI   C6A  460  17.085   1.212   8.777  0.3300 -0.1215 -0.0885
   29loPI   C1B  461  17.082   1.225  10.296 -0.1038  0.1076  0.0172
   29loPI   C2B  462  17.238   1.267   9.848 -0.2191 -0.1910 -0.0264
   29loPI   C3B  463  17.271   1.184   9.420 -0.1010 -0.1923  0.1193
   29loPI   C4B  464  17.573   1.339   9.055  0.3417  0.2247 -0.0381
   30loPI    C1  465   6.617   6.445  11.719 -0.1393 -0.0961 -0.0742
   30loPI    C2  466   6.363   6.259  11.968 -0.1419 -0.0256 -0.0239
   30loPI    C3  467   6.524   6.611  12.071 -0.2033  0.0418 -0.1554
   30loPI   PO4  468   6.482   6.385  11.480 -0.3395 -0.1608  0.0536
   30loPI   GL1  469   6.263   6.136  11.111 -0.0613 -0.0452  0.0946
   30loPI   GL2  470   6.119   6.392  11.025  0.2732 -0.1242  0.0199
   30loPI   C1A  471   6.471   6.234  10.752 -0.2939  0.1811  0.0377
   30loPI   C2A  472   6.411   6.224  10.278  0.0813 -0.1039 -0.0300
   30loPI   C3A  473   6.501   6.119   9.944  0.2615 -0.3493  0.0744
   30loPI   C4A  474   6.557   6.139   9.509 -0.2011 -0.0767 -0.0114
   30loPI   C5A  475   6.304   6.113   9.079 -0.2486 -0.2679  0.1001
   30loPI   C6A  476   5.982   6.208   8.698  0.0963 -0.1948  0.2403
   30loPI   C1B  477   5.959   6.430  10.569  0.1242 -0.1190 -0.0478
   30loPI   C2B  478   5.957   6.419  10.156  0.1793 -0.2963 -0.1326
   30loPI   C3B  479   6.107   6.458   9.706  0.2026 -0.1952 -0.0749
   30loPI   C4B  480   6.044   6.572   9.218  0.1500 -0.3610  0.2724
   31loPI    C1  481  12.729  13.631  11.735 -0.0639 -0.1320  0.0786
   31loPI    C2  482  12.983  13.689  12.039 -0.0604 -0.1040  0.0703
   31loPI    C3  483  12.790  14.000  11.877  0.0067 -0.1069 -0.0160
   31loPI   PO4  484  12.847  13.473  11.543 -0.0931  0.2247  0.0308
   31loPI   GL1  485  12.960  13.397  11.224 -0.2088 -0.0749  0.1878
   31loPI   GL2  486  12.698  13.155  11.119  0.0561 -0.2127  0.4216
   31loPI   C1A  487  12.949  13.652  10.895 -0.0387  0.0593 -0.0686
   31loPI   C2A  488  12.970  13.879  10.454 -0.1722  0.1455  0.1706
   31loPI   C3A  489  12.950  13.849  10.018 -0.1325  0.0950 -0.1349
   31loPI   C4A  490  12.822  14.048   9.754  0.0566  0.1810  0.0941
   31loPI   C5A  491  12.835  14.103   9.303  0.2946  0.0387 -0.3117
   31loPI   C6A  492  12.746  14.054   8.905  0.0331 -0.1744  0.0418
   31loPI   C1B  493  12.712  13.208  10.710 -0.1327 -0.2594 -0.1390
   31loPI   C2B  494  12.566  13.453  10.301 -0.3708 -0.1384  0.2014
   31loPI   C3B  495  12.622  13.424   9.913  0.0682  0.0626  0.2690
   31loPI   C4B  496  12.322  13.383   9.630 -0.0174  0.1360 -0.3828
   32loPI    C1  497   3.873   6.693  11.488 -0.0499 -0.3234 -0.0727
   32loPI    C2  498   3.645   6.935  11.266  0.0856 -0.2570 -0.1405
   32loPI    C3  499   3.802   7.067  11.610  0.2493 -0.2114 -0.2316
   32loPI   PO4  500   4.093   6.610  11.320 -0.2204  0.1512  0.0250
   32loPI   GL1  501   3.983   6.412  10.945 -0.2680 -0.0697 -0.1745
   32loPI   GL2  502   3.748   6.157  10.982 -0.1118  0.0917 -0.0584
   32loPI   C1A  503   4.189   6.537  10.524  0.0414 -0.5792  0.1069
   32loPI   C2A  504   4.268   6.528  10.111  0.2351 -0.0838 -0.1011
   32loPI   C3A  505   4.224   6.592   9.716 -0.3158 -0.0549 -0.1838
   32loPI   C4A  506   4.361   6.659   9.280  0.0269 -0.0572 -0.1194
   32loPI   C5A  507   4.676   6.959   9.097 -0.2907 -0.3838  0.0838
   32loPI   C6A  508   5.077   7.134   8.897  0.2656  0.0069 -0.0070
   32loPI   C1B  509   3.747   6.294  10.524 -0.0009 -0.1317  0.3362
   32loPI   C2B  510   3.771   6.322  10.121 -0.0916 -0.1167 -0.0203
   32loPI   C3B  511   3.785   6.306   9.617 -0.0942  0.4087 -0.1044
   32loPI   C4B  512   3.937   6.332   9.207  0.0216 -0.1166 -0.1696
   33loPI    C1  513   1.288   0.184  11.612  0.2146  0.0073  0.0427
   33loPI    C2  514   1.115   0.387  11.910 -0.0958 -0.0048 -0.1242
   33loPI    C3  515   1.115  -0.013  11.914 -0.0795 -0.0049 -0.1296
   33loPI   PO4  516   1.310   0.480  11.427  0.0575  0.0404 -0.1426
   33loPI   GL1  517   1.135   0.832  11.120 -0.1167  0.0418 -0.1304
   33loPI   GL2  518   1.125   0.530  10.942  0.0597  0.2623 -0.1476
   33loPI   C1A  519   1.175   0.914  10.706  0.2025 -0.1256 -0.2735
   33loPI   C2A  520   1.201   0.899  10.255  0.1463 -0.0545 -0.0538
   33loPI   C3A  521   1.221   0.841   9.882  0.1509  0.0652 -0.0624
   33loPI   C4A  522   1.354   0.772   9.458  0.0921 -0.1709 -0.2533
   33loPI   C5A  523   1.258   0.797   9.085  0.1206  0.0266 -0.4188
   33loPI   C6A  524   1.133   0.603   8.730  0.0039  0.0193  0.0607
   33loPI   C1B  525   1.203   0.444  10.523  0.0140  0.1029 -0.1083
   33loPI   C2B  526   1.195   0.390  10.134 -0.0246 -0.1743  0.0229
   33loPI   C3B  527   1.215   0.334   9.700  0.0434 -0.1948 -0.0849
   33loPI   C4B  528   1.390   0.251   9.310  0.0178  0.1950 -0.1121
   34loPI    C1  529   0.538   2.796  11.326 -0.0735 -0.3411  0.1314
   34loPI    C2  530   0.168   2.650  11.370 -0.3170  0.2308  0.0604
   34loPI    C3  531   0.367   2.791  11.688 -0.2686  0.1769  0.0542
   34loPI   PO4  532   0.606   2.605  11.153  0.2491  0.0635 -0.1198
   34loPI   GL1  533   0.907   2.443  10.879 -0.0061  0.2641 -0.0619
   34loPI   GL2  534   0.748   2.153  10.673  0.2167  0.0062 -0.1179
   34loPI   C1A  535   1.240   2.466  10.575 -0.1414  0.2959  0.1525
   34loPI   C2A  536   1.256   2.482  10.161  0.1718  0.1610 -0.1432
   34loPI   C3A  537   1.345   2.418   9.729 -0.1858 -0.2362  0.0618
   34loPI   C4A  538   1.376   2.397   9.264 -0.1453  0.0218 -0.1561
   34loPI   C5A  539   1.334   2.240   8.747  0.0896  0.0576  0.2439
   34loPI   C6A  540   1.155   1.843   8.757 -0.2350 -0.0524  0.2756
   34loPI   C1B  541   0.761   2.222  10.294  0.0833  0.0693 -0.1128
   34loPI   C2B  542   0.862   2.203   9.914 -0.0924  0.0442  0.1104
   34loPI   C3B  543   0.936   2.217   9.512  0.0022 -0.2219  0.0624
   34loPI   C4B  544   0.944   2.057   9.151  0.1947 -0.1232  0.1333
   35loPI    C1  545   7.951  16.378  11.812 -0.1345  0.2009  0.0023
   35loPI    C2  546   8.192  16.480  12.115 -0.0222  0.0005 -0.0177
   35loPI    C3  547   7.795  16.493  12.162 -0.0053 -0.0584  0.1485
   35loPI   PO4  548   7.987  16.577  11.537  0.0379  0.1609  0.0602
   35loPI   GL1  549   7.806  16.517  11.150 -0.1315  0.1163  0.0432
   35loPI   GL2  550   7.581  16.418  10.996 -0.1178 -0.2602 -0.1546
   35loPI   C1A  551   8.073  16.658  10.784  0.0842 -0.1501 -0.0243
   35loPI   C2A  552   8.026  16.621  10.356  0.3214 -0.3310 -0.0644
   35loPI   C3A  553   7.999  16.695   9.942  0.1754 -0.4163 -0.0490
   35loPI   C4A  554   8.080  16.615   9.556 -0.0074 -0.2329  0.0411
   35loPI   C5A  555   8.335  16.524   9.131  0.0342 -0.0135 -0.0915
   35loPI   C6A  556   8.592  16.183   8.940  0.5464  0.1194  0.0201
   35loPI   C1B  557   7.521  16.390  10.667  0.3704 -0.2809 -0.0549
   35loPI   C2B  558   7.561  16.413  10.202 -0.1577 -0.2100  0.0785
   35loPI   C3B  559   7.566  16.312   9.718 -0.2095  0.2294  0.4106
   35loPI   C4B  560   7.644  16.411   9.404  0.2977 -0.2076  0.0308
   36loPI    C1  561   9.762  11.326  11.797 -0.0494  0.0531 -0.0905
   36loPI    C2  562   9.741  11.677  11.987 -0.1890  0.0927 -0.1775
   36loPI    C3  563   9.425  11.432  11.985  0.0071 -0.1717  0.1435
   36loPI   PO4  564   9.875  11.377  11.610  0.0380  0.3094 -0.4439
   36loPI   GL1  565   9.957  11.372  11.196  0.3874 -0.1019  0.0132
   36loPI   GL2  566   9.907  11.674  11.172  0.1015  0.1254  0.1584
   36loPI   C1A  567  10.060  11.013  10.864  0.0910 -0.0590  0.1129
   36loPI   C2A  568  10.352  10.864  10.584  0.2453 -0.1130  0.0245
   36loPI   C3A  569  10.166  10.976  10.169  0.1914 -0.1841  0.1760
   36loPI   C4A  570  10.003  11.018   9.793  0.0073  0.2106  0.0861
   36loPI   C5A  571   9.828  11.268   9.439 -0.2268 -0.0702  0.2251
   36loPI   C6A  572   9.922  11.478   9.111  0.1381 -0.1800 -0.1398
   36loPI   C1B  573   9.693  11.485  10.760 -0.1680  0.2846 -0.1570
   36loPI   C2B  574   9.641  11.420  10.265  0.1334 -0.3983 -0.1768
   36loPI   C3B  575   9.531  11.264   9.854  0.0504 -0.1968 -0.2731
   36loPI   C4B  576   9.344  11.331   9.469 -0.3213 -0.3014  0.1289
   37loPI    C1  577   6.764  15.251  11.675 -0.0047 -0.0988 -0.0006
   37loPI    C2  578   6.529  14.959  11.815  0.3254 -0.3758 -0.0110
   37loPI    C3  579   6.892  15.015  11.972  0.2206  0.1122  0.0729
   37loPI   PO4  580   6.725  15.228  11.404 -0.1281  0.5957  0.0348
   37loPI   GL1  581   6.429  15.064  11.047  0.2284  0.1141 -0.1655
   37loPI   GL2  582   6.139  15.106  10.903 -0.1264  0.5216 -0.1468
   37loPI   C1A  583   6.613  14.897  10.640 -0.0868 -0.0446  0.0901
   37loPI   C2A  584   6.556  14.869  10.207 -0.2047 -0.0929  0.5176
   37loPI   C3A  585   6.659  14.836   9.682 -0.1226 -0.0748  0.0467
   37loPI   C4A  586   6.690  14.756   9.315  0.0314 -0.0286 -0.1800
   37loPI   C5A  587   6.520  14.620   8.926  0.1890 -0.1327 -0.0561
   37loPI   C6A  588   6.191  14.622   8.723  0.1467  0.1993 -0.1727
   37loPI   C1B  589   6.160  15.129  10.443 -0.2260 -0.0556 -0.1132
   37loPI   C2B  590   6.163  15.062  10.015  0.1220 -0.1031 -0.0169
   37loPI   C3B  591   6.186  15.165   9.607 -0.2747 -0.0352  0.2908
   37loPI   C4B  592   6.340  15.083   9.127 -0.1741 -0.2111  0.0808
   38loPI    C1  593   8.919   0.653  11.917  0.0321 -0.0575  0.0952
   38loPI    C2  594   8.899   1.049  11.867 -0.1642 -0.0774  0.0030
   38loPI    C3  595   8.704   0.876  12.170 -0.2253 -0.1225 -0.0618
   38loPI   PO4  596   8.912   0.561  11.634  0.4152  0.0507  0.0313
   38loPI   GL1  597   8.804   0.645  11.373 -0.3817  0.1717 -0.0294
   38loPI   GL2  598   8.733   0.345  11.178 -0.0681  0.0949 -0.0294
   38loPI   C1A  599   8.681   0.672  10.846  0.1561  0.0109  0.1033
   38loPI   C2A  600   8.543   0.637  10.460 -0.0379  0.2368 -0.1042
   38loPI   C3A  601   8.566   0.598   9.940 -0.2984 -0.0602  0.0182
   38loPI   C4A  602   8.613   0.746   9.590 -0.2944  0.1106 -0.2604
   38loPI   C5A  603   8.936   0.595   9.334 -0.4205  0.0692  0.3149
   38loPI   C6A  604   9.275   0.524   9.021  0.3671 -0.2302  0.0011
   38loPI   C1B  605   8.523   0.166  10.794  0.1017  0.1317 -0.2059
   38loPI   C2B  606   8.514   0.165  10.274  0.0808  0.0101 -0.0695
   38loPI   C3B  607   8.527   0.109   9.842 -0.0939 -0.0315 -0.2702
   38loPI   C4B  608   8.584   0.242   9.404 -0.1677 -0.0434 -0.0986
   39loPI    C1  609  17.082   0.033  11.756 -0.1092 -0.0162  0.0287
   39loPI    C2  610  16.748   0.069  11.539 -0.1335 -0.0654  0.0580
   39loPI    C3  611  16.728   0.062  11.939 -0.1005 -0.0994  0.0591
   39loPI   PO4  612  17.158  -0.155  11.608 -0.2402  0.1632  0.0033
   39loPI   GL1  613  17.192  -0.432  11.296  0.0617 -0.1841  0.1666
   39loPI   GL2  614  17.053  -0.800  11.089 -0.0912 -0.1035 -0.1538
   39loPI   C1A  615  17.001  -0.308  10.854  0.1278  0.1296  0.2071
   39loPI   C2A  616  17.059  -0.282  10.470  0.1330  0.0148 -0.0989
   39loPI   C3A  617  17.078  -0.281   9.988 -0.1498 -0.3376 -0.1594
   39loPI   C4A  618  17.108  -0.260   9.537  0.0943 -0.2168  0.1174
   39loPI   C5A  619  17.333  -0.186   9.199 -0.3102 -0.2243  0.2908
   39loPI   C6A  620  17.785  -0.178   8.815 -0.2968 -0.2905  0.2139
   39loPI   C1B  621  17.153  -0.804  10.599 -0.1590 -0.2483  0.2616
   39loPI   C2B  622  17.110  -0.734  10.165 -0.0738  0.0443  0.0293
   39loPI   C3B  623  17.127  -0.890   9.789  0.0487 -0.0528 -0.5734
   39loPI   C4B  624  17.079  -0.731   9.363  0.0097 -0.1681  0.0441
   40loPI    C1  625  12.449  16.845  11.762  0.0448  0.0173 -0.0944
   40loPI    C2  626  12.789  16.899  11.965  0.0449 -0.0233 -0.0837
   40loPI    C3  627  12.440  16.889  12.159  0.0429 -0.0382 -0.0882
   40loPI   PO4  628  12.539  16.626  11.565  0.1008  0.1561 -0.0085
   40loPI   GL1  629  12.499  16.337  11.274 -0.0529  0.1648 -0.3438
   40loPI   GL2  630  12.285  16.224  11.140  0.1627 -0.0145 -0.2000
   40loPI   C1A  631  12.508  16.411  10.800 -0.2165 -0.1561 -0.0319
   40loPI   C2A  632  12.537  16.361  10.401 -0.3804  0.1156  0.0607
   40loPI   C3A  633  12.646  16.459   9.934 -0.2058 -0.2364  0.1810
   40loPI   C4A  634  12.447  16.431   9.518  0.0129  0.1037  0.0038
   40loPI   C5A  635  12.510  16.338   9.140  0.1279  0.0068 -0.0085
   40loPI   C6A  636  12.770  16.544   8.804  0.1340  0.0080  0.1467
   40loPI   C1B  637  12.116  16.186  10.648 -0.0613 -0.2145  0.1728
   40loPI   C2B  638  12.081  16.236  10.269  0.1053 -0.4599  0.4466
   40loPI   C3B  639  12.046  16.230   9.878 -0.0837  0.0603 -0.3991
   40loPI   C4B  640  11.969  16.234   9.459  0.0172 -0.0926 -0.0387
   41loPI    C1  641   0.564   1.033  11.845 -0.2158  0.1267 -0.0409
   41loPI    C2  642   0.540   1.221  12.197 -0.0267 -0.1264  0.1107
   41loPI    C3  643   0.218   1.041  12.044 -0.1578  0.1458  0.0599
   41loPI   PO4  644   0.614   1.201  11.655  0.1954 -0.1997 -0.0004
   41loPI   GL1  645   0.713   1.139  11.211  0.4073  0.0027 -0.0058
   41loPI   GL2  646   0.355   1.158  11.053 -0.1830  0.0902  0.2132
   41loPI   C1A  647   0.752   1.160  10.804 -0.0672  0.1523 -0.1300
   41loPI   C2A  648   0.698   1.184  10.434 -0.0953  0.1528 -0.3428
   41loPI   C3A  649   0.759   1.131   9.988 -0.3847 -0.0219 -0.1408
   41loPI   C4A  650   0.826   1.162   9.547  0.0873  0.2149 -0.0643
   41loPI   C5A  651   0.752   1.106   9.031 -0.0492 -0.3792 -0.2935
   41loPI   C6A  652   0.994   1.181   8.624 -0.0488 -0.3847  0.2173
   41loPI   C1B  653   0.351   0.925  10.673  0.0250  0.1450 -0.1305
   41loPI   C2B  654   0.346   0.935  10.201 -0.1359 -0.0623 -0.0463
   41loPI   C3B  655   0.378   0.933   9.762 -0.1606 -0.0415  0.1668
   41loPI   C4B  656   0.446   0.842   9.341  0.0820  0.1892 -0.0467
   42loPI    C1  657   0.679   2.309  11.608 -0.2865  0.2918 -0.0330
   42loPI    C2  658   0.286   2.238  11.629 -0.2219 -0.0685  0.0160
   42loPI    C3  659   0.500   2.277  11.965 -0.2061  0.0758 -0.0104
   42loPI   PO4  660   0.745   2.148  11.428 -0.3728  0.2360  0.2400
   42loPI   GL1  661   0.478   1.836  11.264  0.0458  0.1442 -0.0880
   42loPI   GL2  662   0.455   2.112  11.048  0.2633 -0.0210 -0.0333
   42loPI   C1A  663   0.656   1.604  10.954  0.1175 -0.0110  0.0113
   42loPI   C2A  664   0.703   1.712  10.531 -0.0514  0.1009  0.1934
   42loPI   C3A  665   0.761   1.770  10.140 -0.1948  0.2933  0.5511
   42loPI   C4A  666   0.896   1.719   9.684  0.0792 -0.0815  0.3795
   42loPI   C5A  667   0.932   1.600   9.231  0.0343 -0.2533  0.2015
   42loPI   C6A  668   0.598   1.810   8.881 -0.0040  0.2894 -0.0671
   42loPI   C1B  669   0.277   2.088  10.638 -0.1010  0.1734 -0.1257
   42loPI   C2B  670   0.296   1.993  10.260  0.0271  0.1144  0.1495
   42loPI   C3B  671   0.358   1.913   9.827 -0.2014 -0.1391  0.2035
   42loPI   C4B  672   0.508   1.934   9.360 -0.1208 -0.3133  0.1231
   43loPI    C1  673  12.196   1.626  12.044  0.0139 -0.0164  0.1490
   43loPI    C2  674  12.588   1.600  12.119  0.0393 -0.1164 -0.0124
   43loPI    C3  675  12.326   1.434  12.371  0.0843  0.1985  0.2486
   43loPI   PO4  676  12.183   1.544  11.821  0.3255 -0.1442 -0.3354
   43loPI   GL1  677  12.188   1.534  11.391  0.1305 -0.0054 -0.0775
   43loPI   GL2  678  11.898   1.395  11.414  0.1124 -0.2661 -0.2003
   43loPI   C1A  679  12.212   1.716  11.028 -0.0017  0.0737 -0.0105
   43loPI   C2A  680  12.168   1.656  10.576  0.0470  0.0681  0.2167
   43loPI   C3A  681  12.178   1.628  10.184 -0.3485  0.2954 -0.1271
   43loPI   C4A  682  12.209   1.543   9.663 -0.1406  0.1838  0.3128
   43loPI   C5A  683  12.248   1.332   9.232  0.1321  0.2316  0.2036
   43loPI   C6A  684  12.313   0.844   9.168  0.2131 -0.3080 -0.1720
   43loPI   C1B  685  11.714   1.402  10.945  0.0818  0.1730 -0.0500
   43loPI   C2B  686  11.744   1.415  10.479  0.2544 -0.2726  0.0644
   43loPI   C3B  687  11.717   1.283   9.966  0.1222 -0.1097 -0.1126
   43loPI   C4B  688  11.667   1.378   9.545  0.4298  0.2923  0.1795
   44loPI    C1  689  10.981  16.436  11.978 -0.0032 -0.0477  0.1641
   44loPI    C2  690  11.272  16.272  12.198 -0.0390 -0.3657 -0.0201
   44loPI    C3  691  11.100  16.613  12.317  0.4979 -0.0997  0.0235
   44loPI   PO4  692  10.919  16.280  11.816 -0.0944 -0.0577 -0.2350
   44loPI   GL1  693  10.883  16.272  11.370 -0.0027 -0.2160 -0.2674
   44loPI   GL2  694  11.001  16.380  11.144  0.0691  0.0534 -0.1692
   44loPI   C1A  695  10.745  15.979  11.007  0.0006 -0.1738 -0.1043
   44loPI   C2A  696  10.740  15.982  10.536 -0.0328  0.1158 -0.1499
   44loPI   C3A  697  10.774  16.025  10.126  0.0094 -0.1767  0.2636
   44loPI   C4A  698  10.637  16.023   9.722  0.0139 -0.2242 -0.3438
   44loPI   C5A  699  10.614  16.079   9.287 -0.2868 -0.0230 -0.1043
   44loPI   C6A  700  10.687  16.325   9.083 -0.0467 -0.0118  0.1118
   44loPI   C1B  701  10.763  16.461  10.756  0.1854  0.2114 -0.0161
   44loPI   C2B  702  10.777  16.542  10.362 -0.1177 -0.1147  0.2439
   44loPI   C3B  703  10.786  16.533   9.855  0.1470  0.0832 -0.0657
   44loPI   C4B  704  10.751  16.666   9.427  0.3085  0.1216 -0.0895
   45loPI    C1  705  10.426   7.045  11.982 -0.3040  0.0687  0.3805
   45loPI    C2  706  10.709   6.970  12.255  0.1377 -0.0500 -0.0945
   45loPI    C3  707  10.653   7.344  12.123  0.0915 -0.0308 -0.0207
   45loPI   PO4  708  10.457   6.854  11.730 -0.1127  0.1544 -0.0321
   45loPI   GL1  709  10.284   6.678  11.321  0.0015  0.0331  0.0434
   45loPI   GL2  710   9.987   6.684  11.186 -0.2268 -0.3232 -0.0249
   45loPI   C1A  711  10.367   6.429  11.020 -0.3162  0.4029  0.2308
   45loPI   C2A  712  10.399   6.245  10.594 -0.0734  0.1753  0.0104
   45loPI   C3A  713  10.394   6.270  10.141 -0.0137  0.1676  0.0701
   45loPI   C4A  714  10.318   6.585   9.769  0.1330  0.0953 -0.0189
   45loPI   C5A  715  10.432   6.427   9.315 -0.0974  0.0530 -0.0218
   45loPI   C6A  716  10.458   6.491   8.904 -0.1354 -0.3036  0.1651
   45loPI   C1B  717  10.080   6.635  10.721 -0.1648 -0.1246  0.0766
   45loPI   C2B  718  10.165   6.672  10.343  0.1788 -0.0800  0.2845
   45loPI   C3B  719   9.933   6.662  10.098 -0.1874  0.0510  0.1125
   45loPI   C4B  720   9.561   6.854  10.075 -0.0052 -0.0749 -0.0490
   46loPI    C1  721   0.464  12.785  11.417 -0.1009  0.0589 -0.1810
   46loPI    C2  722   0.474  13.005  11.750 -0.1265  0.0413 -0.1687
   46loPI    C3  723   0.139  12.811  11.647 -0.0688 -0.0872 -0.1177
   46loPI   PO4  724   0.612  12.935  11.255 -0.2064  0.2127  0.2610
   46loPI   GL1  725   0.784  12.958  10.932 -0.1049 -0.0797  0.1861
   46loPI   GL2  726   0.957  13.058  10.718 -0.1977 -0.0076 -0.0711
   46loPI   C1A  727   0.585  12.755  10.557  0.1025  0.0737  0.3345
   46loPI   C2A  728   0.602  12.759  10.063  0.1796  0.2172  0.0108
   46loPI   C3A  729   0.590  12.687   9.624  0.0775 -0.0447  0.2069
   46loPI   C4A  730   0.364  12.732   9.211 -0.0144 -0.0136 -0.2279
   46loPI   C5A  731   0.249  12.460   8.861 -0.4404  0.1862 -0.1005
   46loPI   C6A  732   0.575  12.322   8.516  0.1715 -0.1187  0.1185
   46loPI   C1B  733   1.008  13.030  10.233  0.0510 -0.0079 -0.0269
   46loPI   C2B  734   1.082  12.960   9.832  0.0794  0.2086  0.3720
   46loPI   C3B  735   1.156  13.068   9.464 -0.0535 -0.0691 -0.0840
   46loPI   C4B  736   0.896  12.921   9.144  0.2217  0.1729  0.1955
   47loPI    C1  737  12.786   4.367  11.777  0.1613  0.0188  0.2482
   47loPI    C2  738  12.665   3.986  11.797  0.2884 -0.0602 -0.3231
   47loPI    C3  739  13.028   4.088  11.930  0.1348 -0.0744  0.1221
   47loPI   PO4  740  12.721   4.391  11.563 -0.1251  0.1429 -0.1873
   47loPI   GL1  741  12.591   4.087  11.342 -0.3455 -0.0329  0.0441
   47loPI   GL2  742  12.712   3.852  11.225 -0.3050  0.0701  0.1030
   47loPI   C1A  743  12.569   4.259  10.898 -0.1088  0.1924  0.0815
   47loPI   C2A  744  12.723   4.361  10.509  0.0761  0.0194 -0.0757
   47loPI   C3A  745  12.719   4.159  10.078  0.1464 -0.2266  0.1226
   47loPI   C4A  746  12.641   3.860   9.649  0.2708  0.1317 -0.0990
   47loPI   C5A  747  12.508   3.609   9.327 -0.2305  0.2233 -0.1340
   47loPI   C6A  748  12.075   3.480   9.303 -0.1157  0.0124 -0.1355
   47loPI   C1B  749  12.514   3.749  10.815 -0.1307 -0.0168  0.0376
   47loPI   C2B  750  12.463   3.853  10.418  0.0758  0.1201  0.1972
   47loPI   C3B  751  12.349   3.789  10.034 -0.0582  0.1867 -0.2580
   47loPI   C4B  752  12.198   3.583   9.845 -0.2907  0.0593  0.3165
   48loPI    C1  753   5.100   9.613  11.696  0.0994  0.1666  0.1113
   48loPI    C2  754   5.418   9.423  11.546 -0.1280 -0.0405 -0.1197
   48loPI    C3  755   5.209   9.257  11.843 -0.0731  0.0549 -0.0270
   48loPI   PO4  756   4.976   9.619  11.431  0.0523  0.4652  0.1652
   48loPI   GL1  757   5.092   9.414  11.037 -0.0862  0.0370  0.0244
   48loPI   GL2  758   5.368   9.522  11.057 -0.1365 -0.0324  0.0138
   48loPI   C1A  759   4.914   9.369  10.589 -0.1175  0.0190  0.1320
   48loPI   C2A  760   4.789   9.448  10.199 -0.0655  0.0554 -0.1287
   48loPI   C3A  761   4.790   9.389   9.788  0.0572 -0.0508 -0.2541
   48loPI   C4A  762   4.825   9.444   9.417  0.1873 -0.2800  0.0979
   48loPI   C5A  763   5.004   9.365   9.011  0.0169 -0.0370  0.3183
   48loPI   C6A  764   5.250   9.200   8.626 -0.1109  0.0910 -0.0673
   48loPI   C1B  765   5.311   9.692  10.667 -0.1541  0.3389  0.2858
   48loPI   C2B  766   5.309   9.720  10.161  0.0847 -0.0835  0.0043
   48loPI   C3B  767   5.200   9.651   9.789 -0.1600  0.2111 -0.1679
   48loPI   C4B  768   5.277   9.663   9.310  0.2312  0.0389  0.0334
   49loPI    C1  769  16.867  10.299  10.972 -0.3269 -0.2844  0.1381
   49loPI    C2  770  17.033  10.156  11.307  0.1396  0.0940  0.0795
   49loPI    C3  771  16.815  10.491  11.320 -0.1079 -0.0633  0.0517
   49loPI   PO4  772  17.020  10.337  10.780 -0.2895 -0.2688  0.0691
   49loPI   GL1  773  17.218  10.555  10.518  0.0017  0.0322  0.3365
   49loPI   GL2  774  17.518  10.654  10.650  0.0788 -0.0193  0.1611
   49loPI   C1A  775  17.345  10.580  10.101 -0.1914 -0.2805 -0.0979
   49loPI   C2A  776  17.578  10.737   9.812  0.3679  0.2418  0.0216
   49loPI   C3A  777  17.619  10.680   9.434  0.0161 -0.1107  0.0384
   49loPI   C4A  778  17.815  10.629   8.978 -0.0679  0.0463  0.2619
   49loPI   C5A  779  17.764  10.682   8.593 -0.0128 -0.1106 -0.1712
   49loPI   C6A  780  17.559  10.542   8.350  0.2195  0.0800 -0.3955
   49loPI   C1B  781  17.523  10.994  10.368 -0.0566 -0.2982 -0.0513
   49loPI   C2B  782  17.564  11.207   9.978  0.1913  0.1695 -0.0782
   49loPI   C3B  783  17.621  11.164   9.586  0.1511 -0.2365  0.1336
   49loPI   C4B  784  17.827  11.088   9.213  0.1852 -0.0690 -0.0949
   50loPI    C1  785   6.033   3.115  11.697  0.0796 -0.1377 -0.1218
   50loPI    C2  786   6.182   3.486  11.709  0.0586 -0.1357  0.1114
   50loPI    C3  787   5.863   3.391  11.930  0.0203 -0.2744 -0.0020
   50loPI   PO4  788   5.974   3.033  11.449 -0.1126 -0.1027 -0.0529
   50loPI   GL1  789   5.924   3.275  11.062  0.1215 -0.2685  0.0794
   50loPI   GL2  790   6.192   3.471  11.201  0.1223  0.0591 -0.0622
   50loPI   C1A  791   5.835   3.333  10.605 -0.1205 -0.1810 -0.2286
   50loPI   C2A  792   5.809   3.412  10.258 -0.1589  0.1792  0.3378
   50loPI   C3A  793   5.872   3.322   9.918 -0.1792  0.1388  0.0157
   50loPI   C4A  794   5.864   3.230   9.437  0.2719 -0.0731  0.2169
   50loPI   C5A  795   5.469   3.265   9.157 -0.1527  0.0024  0.0641
   50loPI   C6A  796   5.464   3.439   8.702  0.1081  0.1444 -0.0352
   50loPI   C1B  797   6.321   3.505  10.815  0.0336 -0.1345 -0.0663
   50loPI   C2B  798   6.266   3.543  10.365 -0.0058  0.1742  0.1691
   50loPI   C3B  799   6.317   3.573   9.952  0.0119  0.0572 -0.3103
   50loPI   C4B  800   6.430   3.738   9.526 -0.0771  0.2139  0.0477
   51loPI    C1  801  10.118  16.475  11.862 -0.0214  0.1443  0.0408
   51loPI    C2  802  10.460  16.554  12.054  0.0849  0.0785 -0.1201
   51loPI    C3  803  10.197  16.848  11.985  0.0527  0.1058  0.1110
   51loPI   PO4  804  10.199  16.333  11.642 -0.2591  0.2341 -0.1152
   51loPI   GL1  805  10.187  16.175  11.215 -0.1442  0.0521 -0.1518
   51loPI   GL2  806  10.479  16.451  11.201 -0.1578 -0.2724  0.1350
   51loPI   C1A  807  10.322  16.197  10.723  0.1528  0.1977  0.1749
   51loPI   C2A  808  10.315  16.266  10.309 -0.2768  0.1136 -0.2511
   51loPI   C3A  809  10.221  16.366   9.862  0.0194  0.0257  0.1546
   51loPI   C4A  810  10.194  16.259   9.436  0.1784  0.0512  0.0397
   51loPI   C5A  811  10.199  16.349   8.959 -0.1704 -0.2467  0.0719
   51loPI   C6A  812  10.063  16.720   8.795 -0.0714 -0.3170  0.0733
   51loPI   C1B  813  10.364  16.691  10.990  0.0091 -0.0131  0.0725
   51loPI   C2B  814  10.348  16.703  10.560  0.1555 -0.1534  0.0741
   51loPI   C3B  815  10.331  16.819  10.081  0.1241 -0.3253 -0.0200
   51loPI   C4B  816  10.265  16.838   9.674  0.2480 -0.0675  0.1275
   52loPI    C1  817  11.090  15.446  12.076 -0.0002 -0.0773 -0.0484
   52loPI    C2  818  10.868  15.766  11.987  0.0343 -0.1051 -0.2384
   52loPI    C3  819  10.948  15.679  12.368 -0.3343 -0.1318 -0.1627
   52loPI   PO4  820  11.189  15.418  11.813  0.4555  0.0498 -0.1420
   52loPI   GL1  821  10.935  15.337  11.390 -0.2487 -0.1833 -0.3951
   52loPI   GL2  822  11.168  15.068  11.433 -0.0902 -0.3590  0.0247
   52loPI   C1A  823  10.632  15.448  11.103  0.2412  0.0561  0.0724
   52loPI   C2A  824  10.673  15.476  10.702 -0.0066  0.1026 -0.1990
   52loPI   C3A  825  10.771  15.483  10.332  0.0879 -0.0260  0.0290
   52loPI   C4A  826  10.711  15.556   9.890 -0.1111  0.0883 -0.1094
   52loPI   C5A  827  10.658  15.604   9.416 -0.1649 -0.0506  0.0301
   52loPI   C6A  828  10.788  15.681   8.931 -0.0455 -0.1038  0.3179
   52loPI   C1B  829  11.173  15.182  10.923  0.0083  0.1436 -0.0481
   52loPI   C2B  830  11.144  15.167  10.420  0.0123  0.1756  0.1036
   52loPI   C3B  831  11.116  15.288  10.027 -0.2492 -0.0969  0.2686
   52loPI   C4B  832  11.153  15.399   9.560  0.0645 -0.0314  0.0975
   53loPI    C1  833  13.529  14.572  11.822 -0.0135 -0.1232  0.2583
   53loPI    C2  834  13.775  14.259  11.868 -0.0937 -0.1701  0.3721
   53loPI    C3  835  13.889  14.623  11.989  0.1832 -0.0671 -0.1693
   53loPI   PO4  836  13.474  14.581  11.567 -0.1673  0.0158  0.4635
   53loPI   GL1  837  13.581  14.565  11.154 -0.1351 -0.1637  0.0783
   53loPI   GL2  838  13.286  14.719  11.096 -0.1207  0.0865 -0.0274
   53loPI   C1A  839  13.770  14.555  10.746 -0.2058 -0.1449 -0.1111
   53loPI   C2A  840  13.785  14.540  10.302  0.0132  0.2703  0.3300
   53loPI   C3A  841  13.774  14.625   9.902  0.0356  0.0374 -0.2126
   53loPI   C4A  842  13.720  14.548   9.466 -0.1624 -0.2963 -0.1834
   53loPI   C5A  843  13.678  14.415   8.989  0.2547 -0.2560  0.3377
   53loPI   C6A  844  13.721  14.375   8.542 -0.2172  0.2316  0.0048
   53loPI   C1B  845  13.384  14.887  10.719 -0.0900  0.1904 -0.0095
   53loPI   C2B  846  13.344  14.919  10.245 -0.0442  0.0416 -0.0126
   53loPI   C3B  847  13.361  14.809   9.768  0.2464  0.0907 -0.1562
   53loPI   C4B  848  13.368  14.833   9.299  0.2815 -0.0288 -0.3539
   54loPI    C1  849   0.233  10.242  11.074  0.0603 -0.0954 -0.2193
   54loPI    C2  850   0.458  10.564  11.148 -0.0991 -0.0139 -0.0829
   54loPI    C3  851   0.400  10.291  11.434 -0.0200 -0.1298 -0.1770
   54loPI   PO4  852   0.297  10.158  10.835 -0.1131 -0.0497 -0.1652
   54loPI   GL1  853   0.234  10.071  10.440  0.0137  0.0439 -0.1461
   54loPI   GL2  854  -0.094  10.042  10.383  0.0135  0.2539  0.0068
   54loPI   C1A  855   0.264  10.085  10.040  0.0414  0.2160 -0.1646
   54loPI   C2A  856   0.235  10.135   9.555 -0.0204 -0.0643 -0.1167
   54loPI   C3A  857   0.297  10.240   9.164 -0.1206 -0.0893  0.0606
   54loPI   C4A  858   0.275  10.240   8.834  0.0158  0.0619  0.0101
   54loPI   C5A  859   0.382   9.988   8.508 -0.1897 -0.2597  0.1031
   54loPI   C6A  860   0.433   9.536   8.468  0.1667 -0.1186  0.0369
   54loPI   C1B  861  -0.237  10.245  10.094 -0.0021  0.2359  0.0972
   54loPI   C2B  862  -0.152  10.463   9.646  0.1485 -0.2618  0.1167
   54loPI   C3B  863  -0.058  10.558   9.223 -0.0303  0.0783 -0.0449
   54loPI   C4B  864   0.100  10.831   8.981  0.0483  0.0069  0.2270
   55loPI    C1  865  11.949   5.685  11.564 -0.1903  0.0878 -0.1824
   55loPI    C2  866  12.235   5.621  11.836  0.0097  0.0965 -0.3876
   55loPI    C3  867  11.880   5.441  11.873  0.0038  0.1676 -0.0738
   55loPI   PO4  868  11.945   5.682  11.351  0.1316  0.0559 -0.1351
   55loPI   GL1  869  11.800   5.496  11.013 -0.3051  0.2406  0.0427
   55loPI   GL2  870  11.540   5.371  11.024 -0.0234 -0.0888  0.1918
   55loPI   C1A  871  11.750   5.707  10.610 -0.1076 -0.0598 -0.0288
   55loPI   C2A  872  11.775   5.611  10.214 -0.0391  0.0118  0.2694
   55loPI   C3A  873  11.798   5.547   9.765 -0.0840 -0.1048  0.0687
   55loPI   C4A  874  11.968   5.422   9.403 -0.1042 -0.1268  0.2607
   55loPI   C5A  875  11.881   5.457   8.918 -0.1012 -0.0396 -0.1692
   55loPI   C6A  876  11.843   5.403   8.504 -0.3226  0.0932  0.3793
   55loPI   C1B  877  11.377   5.339  10.642 -0.0740 -0.0135  0.1085
   55loPI   C2B  878  11.335   5.289  10.217  0.2475  0.0862  0.1222
   55loPI   C3B  879  11.328   5.230   9.768  0.0401 -0.2271 -0.0848
   55loPI   C4B  880  11.523   5.265   9.350 -0.0105  0.2022  0.0586
   56loPI    C1  881  13.594  10.569  11.229 -0.3238 -0.3100  0.0884
   56loPI    C2  882  13.469  10.932  11.340  0.1904 -0.0942 -0.0095
   56loPI    C3  883  13.459  10.628  11.600  0.1249  0.0838  0.1983
   56loPI   PO4  884  13.909  10.586  11.224  0.1396  0.0416  0.0023
   56loPI   GL1  885  14.111  10.567  10.827  0.3312 -0.0678  0.0807
   56loPI   GL2  886  14.100  10.869  10.734 -0.0865 -0.0024 -0.2203
   56loPI   C1A  887  13.882  10.410  10.524  0.2285 -0.1959  0.0272
   56loPI   C2A  888  13.905  10.427  10.069  0.1252 -0.0265  0.0711
   56loPI   C3A  889  13.938  10.383   9.651  0.1633 -0.1514  0.0717
   56loPI   C4A  890  13.846  10.356   9.272 -0.1216  0.2301  0.4245
   56loPI   C5A  891  13.607  10.496   8.928  0.0210 -0.1957 -0.0458
   56loPI   C6A  892  13.469  10.355   8.564 -0.0587  0.3931 -0.1501
   56loPI   C1B  893  13.897  10.916  10.324  0.1759  0.2283 -0.0940
   56loPI   C2B  894  13.737  10.868   9.906 -0.4037  0.3314  0.2101
   56loPI   C3B  895  13.845  10.871   9.445  0.1115 -0.0188  0.4637
   56loPI   C4B  896  14.017  10.822   9.083  0.1273  0.2198 -0.3747
   57loPI    C1  897   7.720   6.149  11.868 -0.0474 -0.1752 -0.1620
   57loPI    C2  898   7.476   6.031  11.573  0.0345 -0.0785 -0.2694
   57loPI    C3  899   7.391   5.939  11.953 -0.2406  0.0689 -0.2927
   57loPI   PO4  900   7.775   6.432  11.821 -0.3488 -0.2675 -0.0206
   57loPI   GL1  901   7.787   6.523  11.403 -0.0843 -0.0400  0.0128
   57loPI   GL2  902   7.771   6.809  11.196  0.1152  0.0603 -0.1270
   57loPI   C1A  903   7.900   6.407  10.965 -0.1767 -0.1728 -0.2890
   57loPI   C2A  904   7.859   6.404  10.432 -0.1572 -0.0520  0.4337
   57loPI   C3A  905   7.825   6.396   9.988 -0.1385 -0.2547  0.0507
   57loPI   C4A  906   7.884   6.431   9.588  0.0027 -0.0709  0.0825
   57loPI   C5A  907   7.929   6.285   9.106  0.1380 -0.0981 -0.0765
   57loPI   C6A  908   8.191   6.515   8.775 -0.0865  0.1331 -0.2684
   57loPI   C1B  909   7.806   6.920  10.797 -0.0473 -0.1483  0.0466
   57loPI   C2B  910   7.791   6.991  10.303 -0.1347 -0.0704 -0.3623
   57loPI   C3B  911   7.881   6.888   9.916  0.2164 -0.2071  0.2431
   57loPI   C4B  912   7.727   6.904   9.480 -0.1370 -0.0186  0.1808
   58loPI    C1  913   6.483  13.521  11.706  0.0168 -0.0757 -0.1506
   58loPI    C2  914   6.549  13.230  11.973  0.1838  0.1056  0.0091
   58loPI    C3  915   6.220  13.456  12.001  0.0944 -0.0138 -0.0671
   58loPI   PO4  916   6.498  13.483  11.449  0.1782 -0.0563  0.0055
   58loPI   GL1  917   6.432  13.157  11.200 -0.0773 -0.3292  0.1795
   58loPI   GL2  918   6.455  12.923  11.048  0.0531  0.0447 -0.1365
   58loPI   C1A  919   6.379  13.333  10.711  0.3717 -0.0184 -0.1554
   58loPI   C2A  920   6.377  13.258  10.233 -0.1314  0.1333 -0.1281
   58loPI   C3A  921   6.455  13.223   9.830 -0.1188 -0.0363 -0.2667
   58loPI   C4A  922   6.494  13.196   9.445 -0.0369  0.1873  0.0451
   58loPI   C5A  923   6.661  13.133   9.099 -0.2028 -0.0105  0.1891
   58loPI   C6A  924   6.716  13.509   8.752 -0.1018 -0.1884  0.1655
   58loPI   C1B  925   6.377  12.794  10.546 -0.0742  0.0079  0.1631
   58loPI   C2B  926   6.341  12.734  10.172 -0.2234 -0.1188  0.0933
   58loPI   C3B  927   6.488  12.736   9.803 -0.0434 -0.0233 -0.2382
   58loPI   C4B  928   6.327  12.690   9.464  0.0350  0.1558 -0.1689
   59loPI    C1  929   4.002   3.848  11.865  0.0384  0.0348  0.1392
   59loPI    C2  930   3.958   3.602  12.177  0.1609 -0.0648  0.0791
   59loPI    C3  931   4.212   3.910  12.199  0.1069 -0.0222  0.1073
   59loPI   PO4  932   4.062   3.765  11.700 -0.1321 -0.0034  0.0859
   59loPI   GL1  933   4.244   3.743  11.342 -0.2279  0.2281  0.0529
   59loPI   GL2  934   4.264   3.488  11.234  0.2204 -0.2087 -0.0646
   59loPI   C1A  935   4.375   4.028  11.011  0.1524  0.0754  0.0243
   59loPI   C2A  936   4.476   4.214  10.706 -0.1816 -0.1119  0.0218
   59loPI   C3A  937   4.514   4.204  10.343  0.1341 -0.1507  0.3370
   59loPI   C4A  938   4.579   4.245   9.979 -0.2609  0.3965 -0.3226
   59loPI   C5A  939   4.685   4.093   9.626  0.0629 -0.2421  0.1141
   59loPI   C6A  940   4.556   3.957   9.197  0.1393 -0.1125  0.0050
   59loPI   C1B  941   4.380   3.575  10.824  0.0857 -0.0851  0.1304
   59loPI   C2B  942   4.585   3.613  10.399 -0.1786 -0.0052 -0.2289
   59loPI   C3B  943   4.611   3.683   9.967 -0.0134 -0.3058 -0.0254
   59loPI   C4B  944   4.539   3.526   9.587  0.1109 -0.2643  0.2500
   60loPI    C1  945  10.844   3.026  12.064 -0.0591  0.2886 -0.2158
   60loPI    C2  946  10.612   3.229  12.319 -0.1892  0.0059 -0.1047
   60loPI    C3  947  11.010   3.247  12.353 -0.2066 -0.1534  0.2210
   60loPI   PO4  948  10.747   3.004  11.886  0.2477 -0.3257 -0.2642
   60loPI   GL1  949  10.864   2.922  11.483 -0.1347 -0.0254  0.0682
   60loPI   GL2  950  10.815   3.215  11.406  0.5173  0.0900  0.0375
   60loPI   C1A  951  10.887   2.890  11.056 -0.1887  0.0666 -0.3800
   60loPI   C2A  952  10.806   2.878  10.598 -0.1576 -0.1746 -0.1594
   60loPI   C3A  953  10.876   2.925  10.184  0.2017 -0.0355  0.0461
   60loPI   C4A  954  10.861   2.929   9.746 -0.0458 -0.0349 -0.1547
   60loPI   C5A  955  10.626   3.101   9.433  0.0642 -0.0710  0.0826
   60loPI   C6A  956  10.267   3.080   9.307  0.3247  0.2047  0.1415
   60loPI   C1B  957  10.509   3.227  11.105  0.0113 -0.1446 -0.4608
   60loPI   C2B  958  10.383   3.209  10.701 -0.4540 -0.0184  0.1030
   60loPI   C3B  959  10.441   3.161  10.332  0.0915  0.0349  0.2133
   60loPI   C4B  960  10.419   3.202   9.872  0.0853  0.1626 -0.0671
   61loPI    C1  961   3.360   6.784  11.634  0.3468  0.0415 -0.1149
   61loPI    C2  962   3.256   6.459  11.843 -0.2848  0.3621  0.0953
   61loPI    C3  963   3.542   6.703  11.981  0.0496  0.0121  0.0375
   61loPI   PO4  964   3.212   6.734  11.429  0.1548  0.5975 -0.1727
   61loPI   GL1  965   3.119   6.626  10.970  0.1482 -0.3001 -0.0442
   61loPI   GL2  966   3.358   6.592  10.950 -0.0465 -0.1884 -0.1094
   61loPI   C1A  967   2.938   6.932  10.686  0.1259 -0.0246  0.5278
   61loPI   C2A  968   2.923   6.904  10.204 -0.1211 -0.1227 -0.0403
   61loPI   C3A  969   3.040   6.897   9.838  0.0194 -0.0715  0.0069
   61loPI   C4A  970   2.904   6.809   9.476  0.0118 -0.0687 -0.2889
   61loPI   C5A  971   2.871   6.829   9.080  0.2305  0.0268 -0.0257
   61loPI   C6A  972   2.797   6.894   8.576  0.0731  0.0178 -0.0965
   61loPI   C1B  973   3.333   6.592  10.444 -0.0773 -0.0793 -0.1431
   61loPI   C2B  974   3.413   6.586  10.055  0.0239 -0.2267  0.3778
   61loPI   C3B  975   3.368   6.545   9.592 -0.1587  0.4552  0.0301
   61loPI   C4B  976   3.189   6.480   9.219  0.4459 -0.1196  0.2778
   62loPI    C1  977   3.545   4.630  11.642 -0.1129 -0.1712  0.1423
   62loPI    C2  978   3.666   5.002  11.560 -0.2814 -0.1602 -0.0670
   62loPI    C3  979   3.838   4.796  11.857 -0.4238  0.2121  0.2833
   62loPI   PO4  980   3.515   4.409  11.385 -0.5029  0.0377 -0.0031
   62loPI   GL1  981   3.733   4.278  10.956  0.2201  0.0949 -0.1352
   62loPI   GL2  982   3.944   4.468  10.961  0.1549  0.1182 -0.0138
   62loPI   C1A  983   3.542   4.193  10.539 -0.0524  0.2153 -0.1297
   62loPI   C2A  984   3.586   4.297  10.154 -0.3573  0.0097 -0.2501
   62loPI   C3A  985   3.606   4.173   9.735  0.0937 -0.4303 -0.0240
   62loPI   C4A  986   3.691   4.195   9.319 -0.1005 -0.2278 -0.1306
   62loPI   C5A  987   3.810   4.486   8.964 -0.1393 -0.2175 -0.0169
   62loPI   C6A  988   4.071   4.677   8.645  0.1902 -0.2459  0.0479
   62loPI   C1B  989   4.021   4.389  10.535 -0.2933  0.3581  0.1323
   62loPI   C2B  990   4.136   4.477  10.156  0.0833 -0.2832  0.0771
   62loPI   C3B  991   4.092   4.390   9.776  0.4614 -0.0314  0.0536
   62loPI   C4B  992   4.191   4.284   9.280 -0.1234  0.1407  0.1061
   63loPI    C1  993  14.388   9.710  11.181  0.0171 -0.1436  0.0277
   63loPI    C2  994  14.472   9.517  10.841  0.0200  0.0804 -0.1003
   63loPI    C3  995  14.094   9.616  10.927 -0.0695 -0.5255  0.2606
   63loPI   PO4  996  14.613   9.914  11.136 -0.1557  0.0139 -0.1083
   63loPI   GL1  997  14.732  10.126  10.775 -0.1440 -0.3598 -0.0206
   63loPI   GL2  998  14.794   9.839  10.685 -0.0711  0.0498  0.0710
   63loPI   C1A  999  14.738  10.224  10.300 -0.2978 -0.4451 -0.0352
   63loPI   C2A 1000  14.762  10.229   9.964 -0.0693 -0.2392  0.1596
   63loPI   C3A 1001  14.785  10.359   9.544  0.0150  0.0442 -0.4217
   63loPI   C4A 1002  14.609  10.161   9.224 -0.0277  0.2567  0.1038
   63loPI   C5A 1003  14.280  10.178   9.023  0.0440  0.0788  0.0038
   63loPI   C6A 1004  13.865  10.082   8.768  0.1022 -0.0750  0.0207
   63loPI   C1B 1005  14.681   9.692  10.304 -0.1333  0.1546  0.1266
   63loPI   C2B 1006  14.737   9.694   9.904  0.2549  0.5831  0.1737
   63loPI   C3B 1007  14.759   9.708   9.484  0.1156  0.3335  0.2394
   63loPI   C4B 1008  14.788   9.791   8.956  0.0036 -0.0837 -0.0743
   64loPI    C1 1009  16.766   4.804  11.481 -0.2525 -0.2114 -0.2525
   64loPI    C2 1010  16.885   4.529  11.745  0.2034  0.0088 -0.2197
   64loPI    C3 1011  16.676   4.846  11.869  0.3325  0.0621 -0.1357
   64loPI   PO4 1012  16.625   4.607  11.289  0.1773 -0.0071  0.0257
   64loPI   GL1 1013  16.410   4.621  10.881  0.1039  0.1111 -0.2016
   64loPI   GL2 1014  16.735   4.615  10.662  0.5124  0.2411  0.2951
   64loPI   C1A 1015  16.300   4.647  10.461 -0.2181  0.2352 -0.2500
   64loPI   C2A 1016  16.343   4.475  10.013  0.3060  0.2108 -0.1224
   64loPI   C3A 1017  16.454   4.453   9.590  0.0127 -0.1172 -0.1977
   64loPI   C4A 1018  16.480   4.556   9.172  0.2015  0.0917 -0.1242
   64loPI   C5A 1019  16.290   4.735   8.861 -0.0062  0.1819  0.2701
   64loPI   C6A 1020  15.958   4.746   8.604 -0.1656 -0.0247  0.2362
   64loPI   C1B 1021  16.795   4.700  10.237  0.0594  0.0134 -0.3706
   64loPI   C2B 1022  16.849   4.635   9.760  0.0109  0.1768 -0.1194
   64loPI   C3B 1023  16.932   4.555   9.364 -0.2387 -0.0576 -0.0990
   64loPI   C4B 1024  16.913   4.614   8.983 -0.1095  0.0024  0.1006
   65loPI    C1 1025   9.592  10.351  11.548  0.0294  0.0357  0.0960
   65loPI    C2 1026   9.388  10.170  11.840 -0.1449 -0.0586 -0.0819
   65loPI    C3 1027   9.598  10.501  11.919 -0.0196 -0.2002  0.1938
   65loPI   PO4 1028   9.440  10.263  11.344  0.2377  0.1592 -0.0737
   65loPI   GL1 1029   9.325  10.419  10.972  0.0590 -0.0545 -0.0550
   65loPI   GL2 1030   9.019  10.474  11.081  0.2570 -0.1733  0.0476
   65loPI   C1A 1031   9.335  10.256  10.594  0.0103 -0.5677  0.0182
   65loPI   C2A 1032   9.391  10.363  10.241 -0.2235  0.2277  0.1598
   65loPI   C3A 1033   9.423  10.156   9.773  0.1545 -0.2037  0.0317
   65loPI   C4A 1034   9.467  10.381   9.366  0.1735 -0.1734 -0.0493
   65loPI   C5A 1035   9.691  10.541   9.021 -0.0440 -0.0898 -0.1499
   65loPI   C6A 1036   9.977  10.455   8.670  0.2098 -0.2238  0.2267
   65loPI   C1B 1037   8.924  10.478  10.618 -0.0283 -0.0175  0.0525
   65loPI   C2B 1038   8.928  10.554  10.137 -0.1598 -0.2350 -0.0651
   65loPI   C3B 1039   9.014  10.553   9.672  0.2502  0.1547  0.4208
   65loPI   C4B 1040   8.996  10.382   9.204  0.1054 -0.2649  0.0542
   66loPI    C1 1041   9.997   7.061  11.744  0.0375  0.1015  0.0498
   66loPI    C2 1042   9.743   7.251  11.988 -0.2589  0.1764 -0.3086
   66loPI    C3 1043  10.102   7.409  11.910 -0.2053  0.2060 -0.0112
   66loPI   PO4 1044   9.839   6.922  11.573  0.2042 -0.2104 -0.0335
   66loPI   GL1 1045   9.569   7.022  11.117 -0.1620 -0.0123 -0.1054
   66loPI   GL2 1046   9.346   7.251  11.173 -0.2659 -0.0030  0.0544
   66loPI   C1A 1047   9.593   6.685  10.907  0.0240 -0.2328 -0.0426
   66loPI   C2A 1048   9.594   6.618  10.523 -0.0091  0.0360 -0.0113
   66loPI   C3A 1049   9.527   6.361  10.131  0.1643  0.0921  0.0759
   66loPI   C4A 1050   9.719   6.421   9.704  0.1004  0.0115  0.1476
   66loPI   C5A 1051   9.947   6.635   9.382 -0.3014  0.1419  0.0048
   66loPI   C6A 1052   9.897   6.867   8.959  0.2432 -0.1345 -0.2345
   66loPI   C1B 1053   9.267   7.158  10.704 -0.3168  0.4986  0.0163
   66loPI   C2B 1054   9.225   7.135  10.252  0.2277  0.2178  0.1885
   66loPI   C3B 1055   9.154   7.111   9.779 -0.1108  0.1045 -0.1624
   66loPI   C4B 1056   9.082   7.076   9.360 -0.2039 -0.0256  0.2445
   67loPI    C1 1057   8.780  10.318  11.807  0.0588 -0.0373  0.0337
   67loPI    C2 1058   9.058  10.520  12.012  0.1113 -0.1788  0.1034
   67loPI    C3 1059   8.794  10.291  12.206 -0.1213  0.0370  0.0457
   67loPI   PO4 1060   8.941  10.259  11.577  0.0462 -0.0383 -0.2136
   67loPI   GL1 1061   8.677   9.965  11.313  0.2332 -0.0226  0.1726
   67loPI   GL2 1062   9.005  10.010  11.087 -0.1441  0.0163 -0.0735
   67loPI   C1A 1063   8.490   9.825  10.964  0.1098  0.0399 -0.0572
   67loPI   C2A 1064   8.426   9.837  10.592 -0.2015  0.3350  0.0623
   67loPI   C3A 1065   8.459   9.785  10.101  0.3496  0.1022  0.1129
   67loPI   C4A 1066   8.475   9.782   9.624  0.0535 -0.2520 -0.0275
   67loPI   C5A 1067   8.367   9.837   9.201 -0.2101  0.0632 -0.2589
   67loPI   C6A 1068   8.149  10.141   8.962  0.3779  0.1131 -0.0945
   67loPI   C1B 1069   8.913   9.986  10.741 -0.0908 -0.0838 -0.1424
   67loPI   C2B 1070   8.954  10.071  10.368  0.0265 -0.1069  0.2590
   67loPI   C3B 1071   8.905  10.066   9.895 -0.2670 -0.2763  0.0126
   67loPI   C4B 1072   8.923  10.049   9.570 -0.0151 -0.0825  0.1177
   68loPI    C1 1073   9.443   7.945  11.662  0.0444 -0.0263 -0.1771
   68loPI    C2 1074   9.552   8.305  11.526  0.0492  0.0322 -0.0208
   68loPI    C3 1075   9.530   8.239  11.920 -0.1956 -0.0653 -0.0487
   68loPI   PO4 1076   9.454   7.844  11.496  0.2357 -0.1602  0.0803
   68loPI   GL1 1077   9.570   7.666  11.090 -0.0198 -0.0394  0.0891
   68loPI   GL2 1078   9.354   7.585  10.820 -0.2719  0.3537 -0.1071
   68loPI   C1A 1079   9.859   7.814  10.807 -0.0942  0.1037 -0.0265
   68loPI   C2A 1080   9.920   7.792  10.330 -0.3709 -0.1357 -0.2892
   68loPI   C3A 1081   9.720   7.927   9.956 -0.0509 -0.0139  0.1557
   68loPI   C4A 1082   9.616   7.869   9.498 -0.0240  0.0235  0.1962
   68loPI   C5A 1083   9.399   7.948   9.169 -0.2376  0.1003  0.1071
   68loPI   C6A 1084   9.218   7.867   8.767  0.2895  0.1248  0.0696
   68loPI   C1B 1085   9.441   7.587  10.476 -0.0093 -0.3877 -0.0931
   68loPI   C2B 1086   9.229   7.602  10.132 -0.2147  0.0260 -0.1555
   68loPI   C3B 1087   9.103   7.564   9.579  0.0914  0.0903  0.0759
   68loPI   C4B 1088   8.966   7.518   9.144 -0.1719  0.0186  0.0114
   69loPI    C1 1089   3.419  13.450  11.559 -0.0786  0.0521 -0.0483
   69loPI    C2 1090   3.461  13.213  11.879  0.1135 -0.0253 -0.1290
   69loPI    C3 1091   3.721  13.510  11.814  0.0323  0.0366 -0.1749
   69loPI   PO4 1092   3.381  13.303  11.407 -0.2749  0.0047 -0.1270
   69loPI   GL1 1093   3.140  13.156  11.004  0.0677  0.1894  0.1914
   69loPI   GL2 1094   2.810  12.933  11.102 -0.0361  0.1670 -0.0102
   69loPI   C1A 1095   3.170  13.128  10.580 -0.3420  0.0500 -0.2039
   69loPI   C2A 1096   3.284  13.164  10.138 -0.0764 -0.0194 -0.4696
   69loPI   C3A 1097   3.334  13.193   9.713  0.2437 -0.2557  0.0463
   69loPI   C4A 1098   3.195  13.174   9.289  0.1202  0.0123 -0.4014
   69loPI   C5A 1099   2.832  13.234   9.022 -0.0014  0.2042 -0.0026
   69loPI   C6A 1100   2.723  13.103   8.632 -0.1633  0.1457 -0.1332
   69loPI   C1B 1101   2.717  12.920  10.670 -0.1536  0.2554  0.1653
   69loPI   C2B 1102   2.809  12.977  10.225 -0.1130  0.1603 -0.1217
   69loPI   C3B 1103   2.827  12.930   9.814 -0.0680  0.1177  0.1603
   69loPI   C4B 1104   2.812  12.833   9.297  0.1716  0.0959  0.2525
   70loPI    C1 1105  10.760  12.193  11.637 -0.0558 -0.0684  0.0931
   70loPI    C2 1106  10.865  12.526  11.443 -0.1326  0.0178  0.1985
   70loPI    C3 1107  10.930  12.495  11.837 -0.1106 -0.0985  0.1859
   70loPI   PO4 1108  10.438  12.161  11.503  0.0281  0.1163 -0.0342
   70loPI   GL1 1109  10.114  12.460  11.272  0.0250 -0.0114  0.2182
   70loPI   GL2 1110  10.018  12.160  11.188  0.0343  0.2448 -0.0445
   70loPI   C1A 1111  10.141  12.660  10.710 -0.5634 -0.0011  0.0624
   70loPI   C2A 1112  10.149  12.696  10.310  0.0594  0.0675  0.0764
   70loPI   C3A 1113  10.110  12.662   9.930 -0.0373  0.1828  0.0005
   70loPI   C4A 1114  10.030  12.654   9.454  0.1430 -0.2023 -0.0961
   70loPI   C5A 1115  10.143  12.391   9.201  0.2004  0.0857  0.1978
   70loPI   C6A 1116  10.149  11.993   9.237 -0.1994  0.1875 -0.0350
   70loPI   C1B 1117  10.014  12.174  10.839 -0.0819 -0.2671 -0.0926
   70loPI   C2B 1118  10.044  12.038  10.432  0.1319  0.0072  0.0380
   70loPI   C3B 1119  10.034  11.944  10.029 -0.0195  0.4259  0.2508
   70loPI   C4B 1120   9.932  12.150   9.656  0.0536  0.3279 -0.0838
   71loPI    C1 1121   6.426   7.459  12.022  0.0956 -0.1666 -0.2954
   71loPI    C2 1122   6.284   7.090  12.076  0.1807 -0.1444  0.1096
   71loPI    C3 1123   6.066   7.406  12.188  0.2146 -0.0811 -0.0023
   71loPI   PO4 1124   6.622   7.449  11.771 -0.1254 -0.0176  0.0933
   71loPI   GL1 1125   6.610   7.433  11.407 -0.1162 -0.2980 -0.0480
   71loPI   GL2 1126   6.884   7.544  11.249 -0.0689 -0.1404 -0.0634
   71loPI   C1A 1127   6.444   7.797  11.197  0.0590  0.0715 -0.2506
   71loPI   C2A 1128   6.562   7.838  10.764 -0.0626  0.0105 -0.2241
   71loPI   C3A 1129   6.627   7.733  10.426  0.1488  0.0658 -0.1972
   71loPI   C4A 1130   6.551   7.786  10.023 -0.3076 -0.1515 -0.2994
   71loPI   C5A 1131   6.581   7.806   9.536 -0.0130  0.0515  0.0954
   71loPI   C6A 1132   6.835   7.841   9.197 -0.0084  0.0895  0.1125
   71loPI   C1B 1133   6.977   7.451  10.778 -0.2300  0.2873 -0.0185
   71loPI   C2B 1134   6.940   7.363  10.318 -0.1224 -0.0452 -0.1971
   71loPI   C3B 1135   6.953   7.418   9.917 -0.2018 -0.0433  0.0269
   71loPI   C4B 1136   6.989   7.459   9.490 -0.1857 -0.3236  0.1250
   72loPI    C1 1137  13.748  16.138  11.809 -0.1696  0.0604  0.0285
   72loPI    C2 1138  14.128  16.016  11.803 -0.2906 -0.3263 -0.0211
   72loPI    C3 1139  13.901  15.948  12.126 -0.2966 -0.0210  0.0421
   72loPI   PO4 1140  13.676  16.064  11.540 -0.1491 -0.1856  0.0341
   72loPI   GL1 1141  13.727  15.958  11.149  0.0675 -0.0760  0.0855
   72loPI   GL2 1142  13.456  15.868  10.958 -0.1286 -0.1750 -0.0475
   72loPI   C1A 1143  13.952  15.806  10.772 -0.0420 -0.0605 -0.1428
   72loPI   C2A 1144  13.906  15.615  10.293 -0.2097 -0.2777 -0.1112
   72loPI   C3A 1145  13.977  15.502   9.935  0.1342 -0.1234 -0.1016
   72loPI   C4A 1146  13.927  15.543   9.517  0.0252  0.1191  0.1034
   72loPI   C5A 1147  13.816  15.612   9.159  0.1651  0.3338  0.0026
   72loPI   C6A 1148  13.895  15.963   8.957  0.1162 -0.2295 -0.4324
   72loPI   C1B 1149  13.543  15.964  10.534 -0.3401  0.1424  0.0644
   72loPI   C2B 1150  13.456  15.947  10.122 -0.0124 -0.1778 -0.2560
   72loPI   C3B 1151  13.520  15.813   9.735  0.0493 -0.2554  0.0132
   72loPI   C4B 1152  13.355  15.861   9.293 -0.1257 -0.0483  0.0769
   73loPI    C1 1153   9.958   7.817  11.713 -0.1307  0.0963 -0.0122
   73loPI    C2 1154  10.004   8.212  11.760  0.2011  0.0316  0.2434
   73loPI    C3 1155   9.959   7.976  12.080 -0.3479 -0.1034  0.0766
   73loPI   PO4 1156  10.164   7.755  11.508 -0.0115  0.0126 -0.1629
   73loPI   GL1 1157  10.261   7.744  11.119  0.3194  0.1041  0.0338
   73loPI   GL2 1158  10.218   8.107  10.942 -0.0491 -0.0554 -0.0062
   73loPI   C1A 1159  10.287   7.644  10.637  0.2980  0.0471  0.0451
   73loPI   C2A 1160  10.351   7.533  10.239 -0.0595  0.3163  0.2366
   73loPI   C3A 1161  10.168   7.595   9.884  0.4108 -0.0717 -0.0881
   73loPI   C4A 1162  10.077   7.706   9.517 -0.0731 -0.1084  0.1352
   73loPI   C5A 1163  10.025   7.863   9.118  0.0964  0.0985 -0.1462
   73loPI   C6A 1164   9.754   7.858   8.770  0.1551  0.2100  0.2099
   73loPI   C1B 1165  10.273   8.169  10.509 -0.0433  0.1280  0.0435
   73loPI   C2B 1166  10.263   8.076  10.116  0.0840 -0.4209  0.0712
   73loPI   C3B 1167  10.103   8.130   9.757  0.0619 -0.1589  0.0360
   73loPI   C4B 1168  10.215   8.213   9.422  0.1645 -0.0036  0.1101
   74loPI    C1 1169  16.194  10.741  11.268  0.0233 -0.0410 -0.0041
   74loPI    C2 1170  16.086  10.821  11.645 -0.0092 -0.0579 -0.0098
   74loPI    C3 1171  16.472  10.771  11.554  0.0128  0.1027 -0.0078
   74loPI   PO4 1172  16.165  10.942  11.106 -0.0801  0.2235 -0.0972
   74loPI   GL1 1173  16.101  10.869  10.654 -0.1780 -0.0857  0.1764
   74loPI   GL2 1174  16.190  10.657  10.664 -0.3574  0.1058  0.1939
   74loPI   C1A 1175  16.159  10.956  10.246  0.3226  0.0363 -0.1442
   74loPI   C2A 1176  16.110  10.968   9.799  0.2257  0.0797  0.0119
   74loPI   C3A 1177  16.268  11.069   9.416 -0.2332  0.0172 -0.1788
   74loPI   C4A 1178  16.388  11.195   9.038 -0.2931 -0.2073  0.0333
   74loPI   C5A 1179  16.657  11.097   8.666  0.0254  0.1577 -0.0191
   74loPI   C6A 1180  16.848  11.099   8.231 -0.0960 -0.0049 -0.4004
   74loPI   C1B 1181  16.073  10.448  10.340  0.1138  0.0115  0.3070
   74loPI   C2B 1182  16.115  10.422   9.947 -0.6244 -0.1166  0.1619
   74loPI   C3B 1183  16.142  10.418   9.536 -0.1326 -0.2907  0.0623
   74loPI   C4B 1184  16.315  10.525   9.237  0.1284  0.0948 -0.0226
   75loPI    C1 1185  11.491  14.662  11.650  0.0601  0.2631  0.0415
   75loPI    C2 1186  11.672  14.725  12.001 -0.0260 -0.1174  0.1590
   75loPI    C3 1187  11.303  14.866  11.939 -0.0058 -0.0385  0.2156
   75loPI   PO4 1188  11.625  14.743  11.471 -0.0327  0.1978  0.1437
   75loPI   GL1 1189  11.367  14.687  11.156 -0.4686 -0.0951  0.0745
   75loPI   GL2 1190  11.018  14.732  11.139 -0.1298 -0.0062 -0.0572
   75loPI   C1A 1191  11.515  14.915  10.701  0.0379  0.0975  0.0768
   75loPI   C2A 1192  11.564  14.894  10.252 -0.2892  0.0816  0.0191
   75loPI   C3A 1193  11.554  15.035   9.877 -0.1759 -0.1742  0.1404
   75loPI   C4A 1194  11.632  14.999   9.410 -0.1116  0.1706 -0.2445
   75loPI   C5A 1195  11.771  15.141   9.120 -0.0913  0.1281 -0.3279
   75loPI   C6A 1196  11.621  15.122   8.658  0.0213  0.2149  0.0434
   75loPI   C1B 1197  11.071  14.634  10.650 -0.1730 -0.2333 -0.1784
   75loPI   C2B 1198  11.093  14.723  10.241 -0.0834  0.2970  0.1675
   75loPI   C3B 1199  11.073  14.668   9.854  0.0881  0.1211  0.1091
   75loPI   C4B 1200  11.163  14.893   9.537  0.1353 -0.2351 -0.0249
   76loPI    C1 1201  12.375   5.362  11.429  0.1369  0.1495 -0.3501
   76loPI    C2 1202  12.573   5.015  11.439 -0.1305 -0.0003 -0.0742
   76loPI    C3 1203  12.650   5.298  11.711 -0.3519 -0.0939  0.0887
   76loPI   PO4 1204  12.256   5.314  11.149 -0.2246  0.0098  0.1141
   76loPI   GL1 1205  12.337   5.380  10.795 -0.2721  0.2795 -0.1435
   76loPI   GL2 1206  12.709   5.279  10.884  0.1057  0.0527  0.2075
   76loPI   C1A 1207  12.214   5.449  10.465  0.1886  0.1766 -0.1583
   76loPI   C2A 1208  12.197   5.335  10.082  0.1101 -0.1175  0.2606
   76loPI   C3A 1209  12.278   5.223   9.695 -0.3752 -0.0950 -0.0908
   76loPI   C4A 1210  12.370   5.138   9.289 -0.1476 -0.1213  0.1657
   76loPI   C5A 1211  12.415   5.428   8.959  0.0396 -0.1167  0.0615
   76loPI   C6A 1212  12.571   5.817   8.911 -0.0539  0.0558 -0.0581
   76loPI   C1B 1213  12.661   5.181  10.447  0.0090  0.0988  0.0402
   76loPI   C2B 1214  12.662   5.175  10.074 -0.0187 -0.2072 -0.1446
   76loPI   C3B 1215  12.744   5.202   9.674  0.1547  0.0210 -0.0123
   76loPI   C4B 1216  12.814   4.855   9.387  0.0221  0.1282 -0.0664
   77loPI    C1 1217  10.725   9.982  11.677  0.0603 -0.0771  0.0378
   77loPI    C2 1218  10.584  10.355  11.700  0.0036 -0.0919 -0.0635
   77loPI    C3 1219  10.607  10.129  12.029 -0.1783 -0.0778 -0.0401
   77loPI   PO4 1220  10.573   9.922  11.402 -0.3779  0.3082  0.0497
   77loPI   GL1 1221  10.350   9.735  11.086 -0.2433  0.4078  0.5164
   77loPI   GL2 1222  10.567   9.334  10.961  0.0117 -0.0904  0.1085
   77loPI   C1A 1223  10.275  10.068  10.839  0.1885  0.1842  0.3528
   77loPI   C2A 1224  10.261  10.015  10.363  0.0650  0.2076  0.1071
   77loPI   C3A 1225  10.349  10.150   9.931  0.0951 -0.0053  0.2022
   77loPI   C4A 1226  10.300  10.121   9.491  0.1297 -0.2959  0.0034
   77loPI   C5A 1227  10.116  10.142   9.131  0.0201  0.0507 -0.1067
   77loPI   C6A 1228   9.810   9.962   8.873 -0.3346 -0.0980 -0.0915
   77loPI   C1B 1229  10.456   9.539  10.514 -0.1631 -0.0328  0.1683
   77loPI   C2B 1230  10.460   9.498  10.082  0.0957 -0.0614 -0.3290
   77loPI   C3B 1231  10.298   9.681   9.719  0.0567 -0.1420  0.0049
   77loPI   C4B 1232  10.168   9.673   9.334  0.1450 -0.2755  0.2650
   78loPI    C1 1233  11.450   7.761  11.745  0.1423 -0.0942  0.1541
   78loPI    C2 1234  11.351   7.703  12.129  0.3229  0.3917  0.2822
   78loPI    C3 1235  11.211   8.022  11.932  0.0483  0.0276 -0.1315
   78loPI   PO4 1236  11.382   7.659  11.535 -0.0721  0.2509 -0.1887
   78loPI   GL1 1237  11.030   7.546  11.310 -0.0547 -0.1167  0.0100
   78loPI   GL2 1238  10.690   7.475  11.175  0.2039 -0.0918 -0.0058
   78loPI   C1A 1239  11.150   7.537  10.891 -0.3316 -0.1815 -0.0627
   78loPI   C2A 1240  11.155   7.661  10.459  0.1857 -0.0869  0.0307
   78loPI   C3A 1241  11.194   7.452   9.974 -0.0094  0.0420 -0.0208
   78loPI   C4A 1242  11.055   7.539   9.568  0.2456 -0.2345 -0.3610
   78loPI   C5A 1243  10.807   7.454   9.258 -0.1139 -0.0128  0.1691
   78loPI   C6A 1244  10.435   7.530   9.242 -0.4031  0.5477  0.3364
   78loPI   C1B 1245  10.686   7.446  10.770  0.0678  0.2345 -0.0662
   78loPI   C2B 1246  10.785   7.303  10.428 -0.4078  0.1990 -0.1119
   78loPI   C3B 1247  10.730   7.318  10.024 -0.2072 -0.0899  0.0364
   78loPI   C4B 1248  10.578   7.352   9.689 -0.2631  0.1261  0.0106
   79loPI    C1 1249   0.657  15.030  11.239  0.1695 -0.2573 -0.0416
   79loPI    C2 1250   0.877  14.918  11.553 -0.0464  0.2750  0.3136
   79loPI    C3 1251   0.487  14.994  11.599 -0.1742 -0.0398 -0.1767
   79loPI   PO4 1252   0.701  14.838  11.092 -0.0778 -0.1850  0.0582
   79loPI   GL1 1253   0.459  14.816  10.741 -0.0846 -0.2467 -0.0637
   79loPI   GL2 1254   0.184  14.881  10.784 -0.2036 -0.1937 -0.0059
   79loPI   C1A 1255   0.561  14.851  10.358  0.2110 -0.1848 -0.2591
   79loPI   C2A 1256   0.642  14.849   9.966 -0.2802  0.1400  0.1897
   79loPI   C3A 1257   0.609  14.821   9.536 -0.4482 -0.1540 -0.1949
   79loPI   C4A 1258   0.660  14.859   9.155  0.2194  0.2798  0.0896
   79loPI   C5A 1259   0.328  14.765   8.765 -0.1648  0.1292 -0.1006
   79loPI   C6A 1260   0.359  14.927   8.339  0.0596 -0.2060  0.1031
   79loPI   C1B 1261   0.146  15.159  10.466  0.2194 -0.1588  0.1384
   79loPI   C2B 1262   0.180  15.116  10.071 -0.2367  0.0506 -0.1987
   79loPI   C3B 1263   0.205  15.146   9.614  0.1736  0.1232  0.2772
   79loPI   C4B 1264   0.104  15.021   9.187 -0.0853 -0.4555  0.0665
   80loPI    C1 1265   1.057  15.960  11.669 -0.2036 -0.5198 -0.1318
   80loPI    C2 1266   1.426  15.956  11.823 -0.1569 -0.1574 -0.2256
   80loPI    C3 1267   1.120  16.090  12.043 -0.0969  0.3203 -0.4204
   80loPI   PO4 1268   1.080  15.726  11.502 -0.2451  0.0394  0.2614
   80loPI   GL1 1269   1.332  15.719  11.109 -0.1473 -0.1979  0.0374
   80loPI   GL2 1270   1.642  15.841  11.004 -0.2816 -0.2096 -0.1265
   80loPI   C1A 1271   1.136  15.646  10.705 -0.1191  0.0474  0.2145
   80loPI   C2A 1272   1.079  15.601  10.322  0.2015 -0.0356 -0.3349
   80loPI   C3A 1273   1.164  15.527   9.947  0.0600  0.3555  0.0795
   80loPI   C4A 1274   1.257  15.577   9.634  0.0946 -0.1242 -0.1623
   80loPI   C5A 1275   1.189  15.505   9.221 -0.0973  0.0740  0.2121
   80loPI   C6A 1276   0.965  15.422   8.811  0.2193 -0.0319  0.3211
   80loPI   C1B 1277   1.604  15.875  10.555 -0.1115 -0.1529 -0.2297
   80loPI   C2B 1278   1.658  15.850  10.065 -0.0731 -0.0505 -0.2993
   80loPI   C3B 1279   1.688  15.845   9.652 -0.1141 -0.3172 -0.2901
   80loPI   C4B 1280   1.660  15.785   9.280 -0.1272  0.1190  0.3494
   81loPI    C1 1281   6.846   0.481  11.569  0.2639  0.1938 -0.1407
   81loPI    C2 1282   6.667   0.769  11.781  0.1119 -0.0340  0.0459
   81loPI    C3 1283   6.928   0.524  11.958  0.1180 -0.1140 -0.0728
   81loPI   PO4 1284   6.817   0.450  11.273 -0.1032 -0.2485 -0.2110
   81loPI   GL1 1285   6.771   0.188  10.922  0.0146 -0.0437 -0.3284
   81loPI   GL2 1286   7.141   0.137  10.947 -0.1055 -0.0292  0.1099
   81loPI   C1A 1287   6.685   0.287  10.569 -0.0788 -0.0366  0.1279
   81loPI   C2A 1288   6.766   0.212  10.143  0.1382 -0.0420  0.0847
   81loPI   C3A 1289   6.796   0.190   9.663  0.0018  0.0951  0.0079
   81loPI   C4A 1290   6.897   0.206   9.298 -0.2058 -0.2203  0.1198
   81loPI   C5A 1291   6.946   0.420   8.967 -0.0310 -0.1338  0.0281
   81loPI   C6A 1292   7.247   0.366   8.609 -0.3392 -0.2128  0.0029
   81loPI   C1B 1293   7.260   0.264  10.513 -0.0671  0.3037  0.0981
   81loPI   C2B 1294   7.232   0.185  10.036 -0.0564 -0.0819  0.1293
   81loPI   C3B 1295   7.270   0.429   9.648  0.0982  0.0535  0.3315
   81loPI   C4B 1296   7.326   0.620   9.259 -0.4411 -0.3332 -0.2507
   82loPI    C1 1297   0.576  16.385  11.899 -0.2569  0.3152 -0.0123
   82loPI    C2 1298   0.462  16.611  12.208 -0.0706  0.1877  0.1528
   82loPI    C3 1299   0.805  16.407  12.226 -0.1613  0.0127 -0.0556
   82loPI   PO4 1300   0.556  16.458  11.658 -0.4669  0.0336  0.0360
   82loPI   GL1 1301   0.608  16.812  11.340 -0.1875  0.0562 -0.3748
   82loPI   GL2 1302   0.372  17.064  11.432  0.1557  0.1673  0.0152
   82loPI   C1A 1303   0.708  16.852  10.970  0.2907  0.0891 -0.1487
   82loPI   C2A 1304   0.643  16.974  10.490 -0.3283 -0.2656 -0.2154
   82loPI   C3A 1305   0.698  16.976  10.056  0.2686  0.3722  0.2946
   82loPI   C4A 1306   0.830  16.823   9.629 -0.1161 -0.3144 -0.0439
   82loPI   C5A 1307   0.875  16.943   9.222  0.1446 -0.3088  0.1508
   82loPI   C6A 1308   1.003  17.323   8.964  0.0967 -0.0611 -0.1477
   82loPI   C1B 1309   0.278  17.215  10.967 -0.2281  0.0839  0.1257
   82loPI   C2B 1310   0.250  17.192  10.598  0.0137  0.1556  0.1811
   82loPI   C3B 1311   0.289  17.229  10.171 -0.1639  0.0736 -0.3509
   82loPI   C4B 1312   0.304  17.129   9.642 -0.2869  0.0947 -0.0276
   83loPI    C1 1313   4.856   1.633  11.470 -0.1472  0.1184 -0.0293
   83loPI    C2 1314   4.514   1.457  11.579 -0.1148  0.0476 -0.0411
   83loPI    C3 1315   4.692   1.718  11.825 -0.0121 -0.1542  0.1018
   83loPI   PO4 1316   4.822   1.737  11.283 -0.1335  0.0285 -0.1984
   83loPI   GL1 1317   4.697   1.568  10.803  0.0248 -0.2392 -0.1115
   83loPI   GL2 1318   4.898   1.740  10.809 -0.2404 -0.0174  0.2296
   83loPI   C1A 1319   4.421   1.497  10.479  0.2715  0.1193 -0.3739
   83loPI   C2A 1320   4.512   1.546  10.080  0.1598  0.2843 -0.0270
   83loPI   C3A 1321   4.499   1.502   9.631  0.0497 -0.2204  0.0505
   83loPI   C4A 1322   4.515   1.449   9.193 -0.1799  0.1870  0.0365
   83loPI   C5A 1323   4.204   1.525   8.813  0.1015  0.0435 -0.1376
   83loPI   C6A 1324   3.844   1.560   8.650  0.0105  0.0603 -0.1957
   83loPI   C1B 1325   4.929   1.686  10.369 -0.2029 -0.1459  0.0297
   83loPI   C2B 1326   5.003   1.764   9.909 -0.0738  0.2162 -0.1465
   83loPI   C3B 1327   4.913   1.785   9.419  0.1646  0.0602  0.1206
   83loPI   C4B 1328   4.993   1.688   9.001 -0.1212  0.0616  0.1706
   84loPI    C1 1329   9.986  15.396  11.887  0.0669  0.1946  0.0991
   84loPI    C2 1330  10.224  15.087  11.977 -0.1778 -0.0815 -0.1805
   84loPI    C3 1331  10.021  15.274  12.266 -0.0592 -0.2082 -0.0134
   84loPI   PO4 1332   9.914  15.420  11.695 -0.0077  0.1005 -0.0470
   84loPI   GL1 1333   9.998  15.591  11.307  0.0424  0.1429 -0.2512
   84loPI   GL2 1334  10.194  15.674  11.302  0.2518 -0.1907 -0.0801
   84loPI   C1A 1335   9.762  15.523  10.994  0.1296 -0.0303  0.0349
   84loPI   C2A 1336   9.763  15.522  10.548 -0.0044 -0.0233  0.0199
   84loPI   C3A 1337   9.720  15.474  10.017 -0.0560 -0.2898 -0.2489
   84loPI   C4A 1338   9.657  15.537   9.589 -0.0601  0.1580 -0.0057
   84loPI   C5A 1339   9.466  15.259   9.293  0.1321  0.0850 -0.1266
   84loPI   C6A 1340   9.575  14.765   9.199 -0.0508  0.1073  0.0597
   84loPI   C1B 1341  10.238  15.621  10.859  0.0474  0.1233  0.0893
   84loPI   C2B 1342  10.213  15.710  10.488  0.1752 -0.1000  0.1064
   84loPI   C3B 1343  10.237  15.816  10.048 -0.3097  0.1527 -0.0812
   84loPI   C4B 1344  10.093  15.804   9.624 -0.0472 -0.0740  0.2076
   85loPI    C1 1345  16.543   3.367  11.577  0.0010 -0.0358 -0.0481
   85loPI    C2 1346  16.183   3.500  11.691 -0.0209 -0.1003 -0.0419
   85loPI    C3 1347  16.482   3.481  11.956  0.0284  0.0935 -0.0824
   85loPI   PO4 1348  16.539   3.512  11.291  0.1721  0.3136 -0.0197
   85loPI   GL1 1349  16.762   3.342  10.941 -0.2497 -0.4355 -0.0176
   85loPI   GL2 1350  16.933   3.099  10.925 -0.0963 -0.3834  0.1507
   85loPI   C1A 1351  16.651   3.191  10.566  0.0622  0.1272 -0.0747
   85loPI   C2A 1352  16.710   2.959  10.175  0.4145 -0.1806  0.0740
   85loPI   C3A 1353  16.724   3.124   9.756  0.0264 -0.0932 -0.1674
   85loPI   C4A 1354  16.818   3.118   9.398  0.1035  0.0847 -0.0254
   85loPI   C5A 1355  16.582   3.161   9.028  0.1873 -0.1026  0.0643
   85loPI   C6A 1356  16.687   2.906   8.624  0.2664 -0.0176 -0.2871
   85loPI   C1B 1357  17.099   2.904  10.528 -0.1489  0.0274 -0.0459
   85loPI   C2B 1358  17.141   2.736  10.127 -0.0084 -0.0170  0.1469
   85loPI   C3B 1359  17.131   2.822   9.663 -0.0194  0.2667  0.0417
   85loPI   C4B 1360  17.270   2.756   9.173  0.1735  0.2824 -0.0125
   86loPI    C1 1361   9.885   8.723  11.557 -0.1213 -0.1714  0.0225
   86loPI    C2 1362   9.505   8.836  11.500 -0.0852 -0.0601  0.0005
   86loPI    C3 1363   9.633   8.745  11.867 -0.1569 -0.1866 -0.0052
   86loPI   PO4 1364   9.923   8.606  11.362  0.0327 -0.0383  0.1446
   86loPI   GL1 1365   9.712   8.534  11.048  0.0000 -0.1151  0.3149
   86loPI   GL2 1366   9.935   8.480  10.845 -0.3355 -0.0062  0.0532
   86loPI   C1A 1367   9.400   8.735  10.874  0.1788  0.1254  0.0551
   86loPI   C2A 1368   9.365   8.724  10.329 -0.3068  0.0315  0.3899
   86loPI   C3A 1369   9.265   8.662   9.904 -0.0575  0.1625  0.1407
   86loPI   C4A 1370   9.195   8.587   9.523  0.0250  0.0408  0.0263
   86loPI   C5A 1371   9.006   8.774   9.170  0.2294  0.0090  0.0141
   86loPI   C6A 1372   8.866   8.848   8.716 -0.2286  0.3023 -0.0254
   86loPI   C1B 1373   9.802   8.416  10.541  0.1929 -0.1865  0.2243
   86loPI   C2B 1374   9.796   8.434  10.031  0.3392 -0.0612 -0.2528
   86loPI   C3B 1375   9.627   8.347   9.699  0.3000 -0.3777 -0.0006
   86loPI   C4B 1376   9.730   8.326   9.351 -0.2007  0.1814  0.4529
   87loPI    C1 1377   8.111   3.463  12.064  0.1180 -0.2865  0.1292
   87loPI    C2 1378   8.433   3.647  12.213 -0.0493  0.1865 -0.0743
   87loPI    C3 1379   8.155   3.499  12.460 -0.0322  0.4284  0.0937
   87loPI   PO4 1380   8.212   3.440  11.797 -0.0422  0.0113  0.3125
   87loPI   GL1 1381   8.064   3.479  11.385  0.0431  0.3227 -0.0863
   87loPI   GL2 1382   8.492   3.587  11.434 -0.0365 -0.3048  0.1319
   87loPI   C1A 1383   7.974   3.494  10.947 -0.0959  0.0956 -0.2361
   87loPI   C2A 1384   8.054   3.523  10.591 -0.3502 -0.1081  0.2548
   87loPI   C3A 1385   8.171   3.608  10.209 -0.0637  0.3921  0.2284
   87loPI   C4A 1386   8.265   3.579   9.843  0.1028  0.0419 -0.1689
   87loPI   C5A 1387   8.298   3.339   9.484  0.2032 -0.2560 -0.3349
   87loPI   C6A 1388   8.454   3.036   9.158  0.2208 -0.0492  0.0416
   87loPI   C1B 1389   8.425   3.700  10.964  0.0522  0.0911  0.1701
   87loPI   C2B 1390   8.498   3.724  10.554  0.0046 -0.2940 -0.3075
   87loPI   C3B 1391   8.594   3.817  10.109 -0.1859  0.0446 -0.0851
   87loPI   C4B 1392   8.707   3.801   9.663  0.1582 -0.1741 -0.0672
   88loPI    C1 1393  16.577   9.718  11.419  0.1675  0.1796 -0.1268
   88loPI    C2 1394  16.971   9.661  11.460  0.0799 -0.2088  0.2513
   88loPI    C3 1395  16.774   9.891  11.721  0.0219 -0.1815  0.1838
   88loPI   PO4 1396  16.611   9.858  11.141  0.1559  0.0994 -0.1447
   88loPI   GL1 1397  16.560   9.797  10.804 -0.0226  0.2813  0.1235
   88loPI   GL2 1398  16.720   9.952  10.617  0.0187  0.2051 -0.2276
   88loPI   C1A 1399  16.397   9.575  10.421 -0.0525 -0.0470  0.0158
   88loPI   C2A 1400  16.349   9.566  10.030 -0.2174 -0.0780 -0.0518
   88loPI   C3A 1401  16.611   9.627   9.735 -0.1786  0.2068 -0.2915
   88loPI   C4A 1402  16.670   9.728   9.305 -0.4992 -0.1421 -0.1948
   88loPI   C5A 1403  16.670   9.511   8.880  0.2124  0.1319 -0.0492
   88loPI   C6A 1404  16.785   9.167   8.683 -0.1912 -0.0660  0.2485
   88loPI   C1B 1405  16.814   9.771  10.151  0.1357  0.0189 -0.4297
   88loPI   C2B 1406  17.118   9.884   9.760 -0.1888 -0.2004  0.0066
   88loPI   C3B 1407  17.098   9.971   9.323  0.2847  0.2026  0.0957
   88loPI   C4B 1408  17.033   9.876   8.895  0.0066  0.1585  0.0071
   89loPI    C1 1409   2.776  15.527  11.828 -0.1361 -0.2666 -0.1453
   89loPI    C2 1410   3.056  15.447  11.554 -0.1001 -0.0545 -0.1722
   89loPI    C3 1411   3.142  15.415  11.944  0.0613  0.3167 -0.1731
   89loPI   PO4 1412   2.561  15.470  11.737  0.3034 -0.3570  0.1360
   89loPI   GL1 1413   2.543  15.386  11.284  0.3048  0.1860  0.2136
   89loPI   GL2 1414   2.683  15.624  11.246  0.2576  0.2113 -0.0716
   89loPI   C1A 1415   2.436  15.337  10.866  0.0916 -0.1078  0.0450
   89loPI   C2A 1416   2.366  15.318  10.468  0.5036 -0.0552  0.2844
   89loPI   C3A 1417   2.528  15.345  10.017 -0.1500  0.0237  0.2650
   89loPI   C4A 1418   2.475  15.204   9.570 -0.0576 -0.0513 -0.1546
   89loPI   C5A 1419   2.452  15.210   9.103  0.0753 -0.1332  0.0667
   89loPI   C6A 1420   2.198  15.085   8.929 -0.1515  0.4050 -0.2871
   89loPI   C1B 1421   2.566  15.801  10.849 -0.1828  0.0589  0.1923
   89loPI   C2B 1422   2.467  15.807  10.369 -0.2839  0.0890 -0.1137
   89loPI   C3B 1423   2.523  15.815   9.906  0.1826  0.0369  0.0886
   89loPI   C4B 1424   2.520  15.717   9.474  0.2210  0.1727 -0.0661
   90loPI    C1 1425   6.439  11.380  11.773  0.2164 -0.0499 -0.3066
   90loPI    C2 1426   6.430  10.986  11.706 -0.0885 -0.1026  0.0097
   90loPI    C3 1427   6.501  11.124  12.074  0.0512  0.1419 -0.1059
   90loPI   PO4 1428   6.279  11.471  11.495  0.0692 -0.1988 -0.1021
   90loPI   GL1 1429   6.316  11.509  11.185  0.1791  0.0975  0.0237
   90loPI   GL2 1430   6.351  11.114  11.179 -0.0075 -0.1219 -0.0920
   90loPI   C1A 1431   6.254  11.679  10.787  0.2020 -0.0849  0.1942
   90loPI   C2A 1432   6.387  11.757  10.448  0.0087 -0.1395 -0.1327
   90loPI   C3A 1433   6.370  11.789  10.053  0.2290 -0.1769  0.0897
   90loPI   C4A 1434   6.335  11.710   9.524  0.1650 -0.1328 -0.1112
   90loPI   C5A 1435   6.405  11.476   9.213 -0.0869  0.2565  0.0526
   90loPI   C6A 1436   6.547  11.032   9.177 -0.2288 -0.0005  0.1295
   90loPI   C1B 1437   6.255  11.209  10.711 -0.1021 -0.0163 -0.0146
   90loPI   C2B 1438   6.333  11.243  10.301 -0.2398  0.1072  0.2650
   90loPI   C3B 1439   6.270  11.202   9.819  0.1545 -0.1204 -0.1158
   90loPI   C4B 1440   6.171  10.947   9.497 -0.4202 -0.1836  0.1634
   91loPI    C1 1441  14.582  15.668  11.818 -0.0542  0.0470 -0.1806
   91loPI    C2 1442  14.235  15.480  11.753  0.0211 -0.0710 -0.2456
   91loPI    C3 1443  14.529  15.295  11.953  0.0494  0.0257 -0.1974
   91loPI   PO4 1444  14.619  15.788  11.647  0.1448  0.0324 -0.0193
   91loPI   GL1 1445  14.625  15.844  11.263  0.3653 -0.1578  0.0695
   91loPI   GL2 1446  14.769  15.635  11.056 -0.0395 -0.2051 -0.1968
   91loPI   C1A 1447  14.363  15.965  10.948 -0.0482  0.1177  0.0787
   91loPI   C2A 1448  14.320  15.938  10.492  0.0970  0.1073  0.0100
   91loPI   C3A 1449  14.431  15.783   9.997  0.1651 -0.0114  0.0036
   91loPI   C4A 1450  14.336  15.781   9.510 -0.0604 -0.0313  0.0657
   91loPI   C5A 1451  14.400  15.728   9.045 -0.1313  0.2034 -0.2263
   91loPI   C6A 1452  14.193  15.531   8.777  0.1489 -0.1084  0.6674
   91loPI   C1B 1453  14.710  15.673  10.701 -0.0228  0.0352  0.4547
   91loPI   C2B 1454  14.860  15.567  10.233  0.0059  0.2052 -0.0886
   91loPI   C3B 1455  14.836  15.573   9.787  0.2221  0.0635 -0.1688
   91loPI   C4B 1456  14.811  15.470   9.412  0.0167 -0.1392 -0.0761
   92loPI    C1 1457   8.110  14.687  11.891 -0.0286 -0.1255 -0.0998
   92loPI    C2 1458   8.431  14.547  11.697  0.1086 -0.1343  0.1295
   92loPI    C3 1459   8.347  14.415  12.065 -0.0956 -0.0487  0.1148
   92loPI   PO4 1460   7.934  14.722  11.633  0.0510 -0.2250  0.1246
   92loPI   GL1 1461   7.874  14.564  11.265  0.0838  0.2038  0.0835
   92loPI   GL2 1462   7.632  14.290  11.274  0.1851  0.0394 -0.0650
   92loPI   C1A 1463   7.995  14.605  10.831 -0.1519  0.0178 -0.4571
   92loPI   C2A 1464   7.951  14.491  10.405  0.1431 -0.2654  0.0075
   92loPI   C3A 1465   7.867  14.556  10.032  0.0420  0.1680 -0.0594
   92loPI   C4A 1466   7.938  14.464   9.703 -0.2528  0.2367 -0.0621
   92loPI   C5A 1467   7.871  14.397   9.262  0.2700  0.2570 -0.0164
   92loPI   C6A 1468   8.111  14.355   8.920  0.1016 -0.0379  0.0743
   92loPI   C1B 1469   7.549  14.331  10.827 -0.1321 -0.2518 -0.0865
   92loPI   C2B 1470   7.470  14.374  10.279 -0.1149 -0.0380 -0.1103
   92loPI   C3B 1471   7.410  14.403   9.891 -0.1120 -0.1971  0.0717
   92loPI   C4B 1472   7.488  14.269   9.464  0.5225  0.1040 -0.0525
   93loPI    C1 1473  17.129   6.659  11.298 -0.0936  0.1138  0.2423
   93loPI    C2 1474  17.518   6.660  11.392 -0.0221  0.2039 -0.0436
   93loPI    C3 1475  17.285   6.356  11.507  0.1287  0.1561  0.1411
   93loPI   PO4 1476  17.138   6.772  11.018  0.2541  0.1729  0.1264
   93loPI   GL1 1477  17.462   6.821  10.752 -0.1337  0.1705 -0.1840
   93loPI   GL2 1478  17.259   6.926  10.551 -0.1657 -0.0633  0.0351
   93loPI   C1A 1479  17.724   6.874  10.413  0.1703  0.0199 -0.2669
   93loPI   C2A 1480  17.766   6.821   9.991  0.0824 -0.0793  0.0435
   93loPI   C3A 1481  17.883   6.794   9.587 -0.1838  0.2744 -0.0495
   93loPI   C4A 1482  17.854   6.722   9.066 -0.0685  0.3791 -0.2677
   93loPI   C5A 1483  17.947   6.462   8.672  0.0579  0.0786 -0.3928
   93loPI   C6A 1484  17.961   6.074   8.551  0.1444 -0.3714  0.0635
   93loPI   C1B 1485  17.320   7.075  10.182  0.1419 -0.0711 -0.1260
   93loPI   C2B 1486  17.446   7.163   9.748 -0.0515  0.2597 -0.0113
   93loPI   C3B 1487  17.569   7.118   9.326 -0.0950  0.0104 -0.0223
   93loPI   C4B 1488  17.611   7.099   8.938  0.0933  0.0490 -0.0940
   94loPI    C1 1489  10.265   1.784  12.259  0.0968  0.3121  0.2416
   94loPI    C2 1490  10.058   1.545  12.504 -0.1003  0.0878 -0.1345
   94loPI    C3 1491  10.314   1.813  12.655  0.0456 -0.2838  0.2999
   94loPI   PO4 1492  10.261   1.607  12.032  0.1486 -0.2726 -0.2628
   94loPI   GL1 1493  10.009   1.491  11.601 -0.2235 -0.1082  0.1052
   94loPI   GL2 1494  10.301   1.670  11.545  0.0143  0.0304  0.1945
   94loPI   C1A 1495   9.904   1.361  11.237  0.1953  0.1220  0.4791
   94loPI   C2A 1496  10.005   1.271  10.831 -0.1814 -0.0562  0.2346
   94loPI   C3A 1497   9.974   1.426  10.308  0.2583  0.2686 -0.1326
   94loPI   C4A 1498   9.912   1.376   9.900 -0.2257  0.0682  0.2424
   94loPI   C5A 1499   9.943   1.383   9.505 -0.0334 -0.1534 -0.0933
   94loPI   C6A 1500  10.268   1.277   9.128 -0.1287  0.0151 -0.2409
   94loPI   C1B 1501  10.411   1.631  11.115  0.0918 -0.0655 -0.1434
   94loPI   C2B 1502  10.486   1.627  10.688  0.0952  0.1907 -0.2682
   94loPI   C3B 1503  10.438   1.578  10.295  0.0586 -0.0658  0.3263
   94loPI   C4B 1504  10.354   1.643   9.965  0.1061  0.0528  0.2354
   95loPI    C1 1505   6.016  12.401  11.966  0.0663  0.0119 -0.0527
   95loPI    C2 1506   5.840  12.673  12.199  0.2300 -0.0886  0.1919
   95loPI    C3 1507   5.926  12.311  12.344  0.1556 -0.2197 -0.0852
   95loPI   PO4 1508   5.921  12.466  11.703 -0.1003  0.0537 -0.2516
   95loPI   GL1 1509   5.888  12.599  11.353 -0.0334  0.0368 -0.2367
   95loPI   GL2 1510   6.012  12.730  11.129 -0.0179  0.0517  0.2067
   95loPI   C1A 1511   5.614  12.512  11.010 -0.1099  0.0564  0.2525
   95loPI   C2A 1512   5.406  12.514  10.601  0.1052 -0.0737  0.3536
   95loPI   C3A 1513   5.433  12.392  10.200 -0.1571 -0.0623  0.0320
   95loPI   C4A 1514   5.427  12.174   9.862 -0.1241 -0.0013 -0.2046
   95loPI   C5A 1515   5.403  12.149   9.406 -0.0693  0.2758 -0.0276
   95loPI   C6A 1516   5.472  12.381   8.982  0.1898  0.1818 -0.3742
   95loPI   C1B 1517   5.965  12.650  10.704 -0.5050 -0.0409 -0.0794
   95loPI   C2B 1518   5.868  12.527  10.245  0.1797 -0.1260 -0.1606
   95loPI   C3B 1519   6.016  12.553   9.881  0.0731 -0.1749 -0.3643
   95loPI   C4B 1520   5.808  12.448   9.482  0.0741  0.0795 -0.1092
   96loPI    C1 1521   5.990   1.472  11.708  0.0004  0.1694 -0.0178
   96loPI    C2 1522   6.334   1.676  11.688  0.1062  0.0120  0.1597
   96loPI    C3 1523   6.072   1.752  11.982 -0.0138  0.1335  0.0234
   96loPI   PO4 1524   5.870   1.507  11.514  0.1887 -0.0782  0.1046
   96loPI   GL1 1525   6.036   1.384  11.101 -0.0385 -0.1404 -0.1414
   96loPI   GL2 1526   6.337   1.379  11.244  0.2898  0.2414  0.0632
   96loPI   C1A 1527   6.101   1.398  10.688  0.1982 -0.1774  0.0584
   96loPI   C2A 1528   6.277   1.467  10.269 -0.2617 -0.0482  0.1615
   96loPI   C3A 1529   6.338   1.470   9.824 -0.1919  0.1780 -0.1864
   96loPI   C4A 1530   6.241   1.485   9.485 -0.3885  0.0322  0.1801
   96loPI   C5A 1531   6.093   1.379   9.009 -0.1798 -0.1855  0.0737
   96loPI   C6A 1532   6.087   0.951   8.889  0.0298  0.0956  0.0477
   96loPI   C1B 1533   6.504   1.139  10.885 -0.0035  0.2744  0.0275
   96loPI   C2B 1534   6.660   1.198  10.479  0.4136 -0.0561  0.1329
   96loPI   C3B 1535   6.657   1.224  10.108  0.0376  0.1248 -0.2174
   96loPI   C4B 1536   6.714   1.169   9.611  0.1637 -0.1290 -0.0779
   97loPI    C1 1537  11.513   0.862  12.213  0.0910 -0.2151 -0.0344
   97loPI    C2 1538  11.179   0.646  12.172  0.0868 -0.2219  0.0351
   97loPI    C3 1539  11.219   0.896  12.481  0.1574 -0.2416  0.0421
   97loPI   PO4 1540  11.580   0.885  11.930 -0.0451  0.3385  0.0908
   97loPI   GL1 1541  11.535   1.036  11.523  0.2231 -0.1151 -0.1326
   97loPI   GL2 1542  11.403   1.382  11.371  0.1640 -0.1388  0.2175
   97loPI   C1A 1543  11.299   1.044  11.084  0.3357 -0.0528  0.0703
   97loPI   C2A 1544  11.281   1.088  10.738 -0.1198  0.3895  0.2456
   97loPI   C3A 1545  11.259   1.047  10.251  0.2744 -0.0759  0.3339
   97loPI   C4A 1546  11.235   1.159   9.832  0.0322  0.0294 -0.1593
   97loPI   C5A 1547  11.157   1.235   9.516  0.1290  0.3083 -0.0529
   97loPI   C6A 1548  11.267   1.056   9.144 -0.2223  0.0466  0.3334
   97loPI   C1B 1549  11.234   1.582  11.132  0.1950 -0.4927  0.1101
   97loPI   C2B 1550  11.277   1.612  10.676 -0.2143  0.0155 -0.0703
   97loPI   C3B 1551  11.296   1.537  10.241 -0.0775 -0.0747 -0.0178
   97loPI   C4B 1552  11.251   1.629   9.762 -0.0885  0.0028 -0.4360
   98loPI    C1 1553   4.825   8.415  11.566 -0.0753 -0.0542 -0.0411
   98loPI    C2 1554   4.802   8.103  11.316  0.0499 -0.0427 -0.0678
   98loPI    C3 1555   4.896   8.045  11.701  0.1650 -0.0290 -0.0937
   98loPI   PO4 1556   4.896   8.585  11.293  0.0945 -0.0646 -0.3011
   98loPI   GL1 1557   4.713   8.347  10.885 -0.1288  0.3173 -0.4910
   98loPI   GL2 1558   5.006   8.241  10.903  0.0890  0.0943  0.1798
   98loPI   C1A 1559   4.725   8.332  10.447  0.0963 -0.0789  0.0931
   98loPI   C2A 1560   4.852   8.276  10.152  0.1068 -0.1472 -0.0555
   98loPI   C3A 1561   4.669   8.382   9.770 -0.1505  0.1875 -0.0580
   98loPI   C4A 1562   4.657   8.333   9.377  0.1398  0.0901 -0.0411
   98loPI   C5A 1563   4.986   8.462   9.118  0.3083 -0.0212 -0.3807
   98loPI   C6A 1564   5.243   8.826   9.093 -0.2252 -0.0670 -0.1000
   98loPI   C1B 1565   5.146   8.041  10.607  0.0111  0.0855  0.3805
   98loPI   C2B 1566   5.284   8.107  10.147  0.1923  0.0121  0.1085
   98loPI   C3B 1567   5.167   8.145   9.688  0.0142 -0.1268  0.3662
   98loPI   C4B 1568   5.162   8.049   9.275  0.1074  0.2228  0.2507
   99loPI    C1 1569  14.421   6.663  11.243  0.0178 -0.0996  0.2194
   99loPI    C2 1570  14.345   7.055  11.266  0.0545 -0.0935  0.2351
   99loPI    C3 1571  14.145   6.799  11.499 -0.1264 -0.1058  0.0686
   99loPI   PO4 1572  14.434   6.602  11.029 -0.1355  0.2983 -0.1019
   99loPI   GL1 1573  14.569   6.513  10.729 -0.2606 -0.1001 -0.0292
   99loPI   GL2 1574  15.006   6.591  10.750  0.3683  0.1797  0.1786
   99loPI   C1A 1575  14.542   6.776  10.391 -0.0064 -0.0946  0.1162
   99loPI   C2A 1576  14.629   6.769   9.976  0.1099  0.3158  0.3156
   99loPI   C3A 1577  14.686   7.105   9.687  0.4114  0.1128 -0.1314
   99loPI   C4A 1578  14.569   7.275   9.235  0.0669  0.0544 -0.1380
   99loPI   C5A 1579  14.276   7.397   8.941 -0.1596  0.0563 -0.0575
   99loPI   C6A 1580  13.795   7.291   8.902 -0.1484  0.1733  0.2831
   99loPI   C1B 1581  15.022   6.670  10.354  0.1715 -0.0926  0.1883
   99loPI   C2B 1582  15.128   6.548   9.986 -0.0798 -0.1068  0.2379
   99loPI   C3B 1583  15.202   6.438   9.541  0.1362 -0.1447 -0.1000
   99loPI   C4B 1584  15.191   6.243   9.261  0.0064 -0.2264 -0.1184
  100loPI    C1 1585   4.436   8.016  11.598  0.2749 -0.0458  0.0789
  100loPI    C2 1586   4.466   7.988  11.996 -0.3368 -0.0989  0.1313
  100loPI    C3 1587   4.398   8.343  11.825 -0.2844 -0.1088  0.0896
  100loPI   PO4 1588   4.389   7.842  11.456  0.1662  0.1146  0.3627
  100loPI   GL1 1589   4.260   7.785  11.033 -0.1193 -0.1542  0.1426
  100loPI   GL2 1590   4.180   7.471  10.905  0.2139 -0.2704  0.1927
  100loPI   C1A 1591   4.614   7.893  10.825  0.0284  0.2965 -0.3365
  100loPI   C2A 1592   4.700   7.764  10.382  0.1246  0.0977 -0.1913
  100loPI   C3A 1593   4.689   7.883   9.911 -0.3663  0.1263  0.1711
  100loPI   C4A 1594   4.721   7.876   9.558 -0.0020  0.0443 -0.2517
  100loPI   C5A 1595   4.679   7.864   9.216 -0.1607  0.1476  0.2782
  100loPI   C6A 1596   4.388   8.007   8.944  0.0019  0.2691  0.1589
  100loPI   C1B 1597   4.312   7.542  10.522 -0.3311  0.2911 -0.2233
  100loPI   C2B 1598   4.311   7.550  10.036  0.0371  0.0764  0.0319
  100loPI   C3B 1599   4.291   7.604   9.673 -0.2170 -0.0480 -0.0157
  100loPI   C4B 1600   4.163   7.684   9.268  0.0823  0.2163 -0.3348
  101loPI    C1 1601   2.281   4.663  11.417 -0.0966  0.1602 -0.0234
  101loPI    C2 1602   1.932   4.641  11.611 -0.1105  0.1185 -0.0529
  101loPI    C3 1603   2.247   4.815  11.785 -0.0863 -0.0370  0.0605
  101loPI   PO4 1604   2.211   4.647  11.157 -0.0824  0.1720 -0.0282
  101loPI   GL1 1605   2.095   4.843  10.746  0.1182  0.0917  0.1636
  101loPI   GL2 1606   1.928   5.122  10.781  0.0347  0.1910 -0.1528
  101loPI   C1A 1607   2.237   4.617  10.353 -0.1369  0.0299 -0.0615
  101loPI   C2A 1608   2.261   4.441   9.875 -0.0365 -0.0157  0.2938
  101loPI   C3A 1609   2.388   4.515   9.491  0.0031  0.0045 -0.2548
  101loPI   C4A 1610   2.310   4.510   9.099  0.2384  0.1677 -0.1164
  101loPI   C5A 1611   2.454   4.585   8.759  0.3065 -0.0208 -0.0227
  101loPI   C6A 1612   2.752   4.847   8.669 -0.0170  0.1008 -0.0565
  101loPI   C1B 1613   1.688   5.043  10.303 -0.4203  0.0383  0.2326
  101loPI   C2B 1614   1.805   4.933   9.926  0.2051 -0.0847 -0.2174
  101loPI   C3B 1615   1.911   4.722   9.619 -0.2151  0.4345  0.1657
  101loPI   C4B 1616   1.896   4.752   9.249  0.1086  0.4291  0.1096
  102loPI    C1 1617   2.441  10.664  11.696 -0.0875 -0.1653  0.0953
  102loPI    C2 1618   2.776  10.708  11.911  0.0126 -0.0256 -0.0864
  102loPI    C3 1619   2.466  10.504  12.062  0.0315  0.1824  0.2432
  102loPI   PO4 1620   2.582  10.616  11.437  0.1580  0.0681 -0.1444
  102loPI   GL1 1621   2.486  10.588  10.970 -0.5792  0.0982  0.1671
  102loPI   GL2 1622   2.766  10.722  10.996 -0.3852  0.0668 -0.2151
  102loPI   C1A 1623   2.093  10.580  10.587 -0.0409 -0.4439  0.3496
  102loPI   C2A 1624   2.123  10.636  10.142  0.0633  0.2060  0.1846
  102loPI   C3A 1625   2.187  10.555   9.710  0.2308  0.2005  0.1356
  102loPI   C4A 1626   2.179  10.546   9.330 -0.1411 -0.0612 -0.0157
  102loPI   C5A 1627   2.454  10.674   9.099  0.0557 -0.1678 -0.1915
  102loPI   C6A 1628   2.601  10.611   8.697 -0.0044  0.0195 -0.2352
  102loPI   C1B 1629   2.597  10.857  10.559 -0.2133  0.1630  0.1503
  102loPI   C2B 1630   2.575  10.833  10.165 -0.4205  0.1002  0.0290
  102loPI   C3B 1631   2.604  10.817   9.806 -0.1262 -0.0472  0.1900
  102loPI   C4B 1632   2.816  10.784   9.436 -0.3341 -0.1097  0.2180
  103loPI    C1 1633   8.999  13.607  11.959  0.1458  0.0556  0.2025
  103loPI    C2 1634   8.823  13.275  12.096  0.0445  0.0468  0.0525
  103loPI    C3 1635   9.222  13.292  12.066  0.0359 -0.1807 -0.2419
  103loPI   PO4 1636   8.862  13.715  11.783 -0.0915  0.2120  0.0991
  103loPI   GL1 1637   8.699  13.483  11.397 -0.1340  0.1651  0.1024
  103loPI   GL2 1638   8.422  13.653  11.285 -0.1295 -0.5182 -0.2034
  103loPI   C1A 1639   8.884  13.317  11.024 -0.1331  0.0430 -0.0062
  103loPI   C2A 1640   8.888  13.326  10.550 -0.0862 -0.0551  0.1672
  103loPI   C3A 1641   8.722  13.528  10.157  0.1628 -0.1321  0.1442
  103loPI   C4A 1642   8.708  13.494   9.764 -0.0835 -0.1894  0.0444
  103loPI   C5A 1643   8.816  13.752   9.380 -0.3448 -0.0864  0.0853
  103loPI   C6A 1644   8.965  13.572   8.985 -0.3130  0.1850 -0.2069
  103loPI   C1B 1645   8.357  13.743  10.841  0.0526 -0.0109 -0.0932
  103loPI   C2B 1646   8.343  13.785  10.460  0.0195 -0.2701  0.0477
  103loPI   C3B 1647   8.318  13.763   9.979  0.0433  0.1033 -0.0812
  103loPI   C4B 1648   8.297  13.645   9.501 -0.2586  0.1129 -0.0126
  104loPI    C1 1649   6.126  12.917  11.843  0.0020  0.0766  0.0228
  104loPI    C2 1650   6.340  12.769  11.540  0.0641  0.2502 -0.0193
  104loPI    C3 1651   6.480  12.746  11.914 -0.1367 -0.2117  0.0340
  104loPI   PO4 1652   6.078  13.182  11.616  0.1511 -0.0931 -0.1267
  104loPI   GL1 1653   5.916  13.349  11.226 -0.1267 -0.1759 -0.1774
  104loPI   GL2 1654   6.174  13.575  11.116 -0.0245  0.2960 -0.1779
  104loPI   C1A 1655   5.975  13.166  10.937 -0.1577 -0.0290 -0.1742
  104loPI   C2A 1656   5.934  13.106  10.538  0.1167  0.3653  0.3023
  104loPI   C3A 1657   5.909  13.059  10.050 -0.0664 -0.2697  0.2407
  104loPI   C4A 1658   5.962  12.971   9.648 -0.0148 -0.1795  0.0076
  104loPI   C5A 1659   5.918  13.070   9.273  0.0769 -0.1541 -0.1639
  104loPI   C6A 1660   6.179  13.305   9.086  0.1707  0.1950  0.1586
  104loPI   C1B 1661   5.981  13.729  10.780 -0.2179 -0.1307  0.1479
  104loPI   C2B 1662   5.975  13.574  10.431  0.0304 -0.2539 -0.0312
  104loPI   C3B 1663   6.096  13.596  10.018 -0.1067 -0.2012 -0.0163
  104loPI   C4B 1664   5.920  13.485   9.619 -0.0739 -0.1197 -0.1399
  105loPI    C1 1665   0.099   5.884  11.167 -0.1917  0.1228  0.0388
  105loPI    C2 1666   0.102   5.857  11.566  0.0018  0.3074  0.0517
  105loPI    C3 1667  -0.175   5.661  11.355 -0.0494  0.1396  0.2705
  105loPI   PO4 1668   0.236   5.807  11.065 -0.1617 -0.0343  0.1756
  105loPI   GL1 1669   0.208   5.670  10.622 -0.0724 -0.0663  0.0439
  105loPI   GL2 1670   0.314   5.969  10.611  0.1116  0.0710  0.1656
  105loPI   C1A 1671   0.227   5.607  10.179 -0.1787 -0.1741  0.2481
  105loPI   C2A 1672   0.231   5.588   9.729 -0.2857  0.0939  0.2142
  105loPI   C3A 1673   0.450   5.717   9.338  0.2643 -0.2351  0.2110
  105loPI   C4A 1674   0.335   5.835   8.949  0.3175  0.2210 -0.1152
  105loPI   C5A 1675   0.275   5.670   8.476  0.3418 -0.2617 -0.1423
  105loPI   C6A 1676  -0.167   5.721   8.391  0.0376  0.0439 -0.1435
  105loPI   C1B 1677   0.584   5.951  10.167 -0.1473  0.0034  0.0503
  105loPI   C2B 1678   0.788   5.985   9.761 -0.2804  0.2769 -0.0845
  105loPI   C3B 1679   1.014   5.888   9.504 -0.1693  0.2524  0.2483
  105loPI   C4B 1680   0.946   5.839   9.053  0.0715  0.0824  0.0405
  106loPI    C1 1681  10.696   6.027  11.471 -0.0079 -0.1683 -0.0150
  106loPI    C2 1682  10.341   6.185  11.569  0.0567 -0.1827  0.2509
  106loPI    C3 1683  10.658   6.423  11.515 -0.0041 -0.1648 -0.0436
  106loPI   PO4 1684  10.551   5.752  11.525 -0.0420  0.1575  0.2152
  106loPI   GL1 1685  10.477   5.530  11.228  0.0229  0.0602 -0.0111
  106loPI   GL2 1686  10.371   5.901  11.110  0.1625  0.0829  0.0281
  106loPI   C1A 1687  10.539   5.227  10.836 -0.0848 -0.0527  0.3366
  106loPI   C2A 1688  10.490   5.258  10.424  0.2062 -0.3714  0.2180
  106loPI   C3A 1689  10.485   5.195  10.083  0.2120  0.0192 -0.0225
  106loPI   C4A 1690  10.469   5.291   9.641 -0.3425 -0.1022  0.0905
  106loPI   C5A 1691  10.526   5.057   9.290 -0.1261  0.0838 -0.1927
  106loPI   C6A 1692  10.721   4.702   9.138  0.1584 -0.0925 -0.1885
  106loPI   C1B 1693  10.453   5.770  10.735 -0.1696  0.0405 -0.0636
  106loPI   C2B 1694  10.439   5.739  10.338  0.0726  0.2657  0.2415
  106loPI   C3B 1695  10.485   5.756   9.868  0.0277  0.1603  0.3577
  106loPI   C4B 1696  10.449   5.870   9.450  0.0600  0.0858 -0.1095
  107loPI    C1 1697  15.828  13.368  11.200 -0.2983 -0.1637  0.1726
  107loPI    C2 1698  16.216  13.455  11.248 -0.2077 -0.2855 -0.2911
  107loPI    C3 1699  15.961  13.506  11.551  0.1023  0.1567 -0.0939
  107loPI   PO4 1700  15.784  13.500  10.950  0.0132  0.0112  0.3472
  107loPI   GL1 1701  15.500  13.428  10.600  0.2185 -0.0576 -0.2867
  107loPI   GL2 1702  15.104  13.499  10.586  0.5592  0.1249 -0.2855
  107loPI   C1A 1703  15.519  13.716  10.254  0.0469  0.0701  0.3190
  107loPI   C2A 1704  15.491  13.851   9.807 -0.0783 -0.1343 -0.1782
  107loPI   C3A 1705  15.441  13.749   9.424 -0.2235 -0.0905  0.2524
  107loPI   C4A 1706  15.510  13.691   9.060 -0.0872 -0.1302 -0.0323
  107loPI   C5A 1707  15.343  13.323   8.954  0.1129  0.0056  0.2798
  107loPI   C6A 1708  15.333  13.144   8.567 -0.0611 -0.0008  0.0126
  107loPI   C1B 1709  15.062  13.572  10.076  0.1695  0.0968 -0.0427
  107loPI   C2B 1710  15.031  13.570   9.681 -0.0666 -0.2146  0.0550
  107loPI   C3B 1711  14.971  13.678   9.218  0.2108  0.0075  0.1230
  107loPI   C4B 1712  14.727  13.862   8.804 -0.1092  0.0484  0.3871
  108loPI    C1 1713   2.472   6.958  11.829  0.1277  0.2465  0.2819
  108loPI    C2 1714   2.313   6.615  11.960  0.1587  0.0338 -0.2171
  108loPI    C3 1715   2.267   6.950  12.172 -0.1199 -0.2185  0.1323
  108loPI   PO4 1716   2.443   6.923  11.547 -0.3028 -0.0975 -0.0354
  108loPI   GL1 1717   2.590   7.119  11.162 -0.3030  0.1432 -0.0107
  108loPI   GL2 1718   2.425   6.872  11.007  0.1730 -0.1343 -0.1306
  108loPI   C1A 1719   2.558   7.227  10.692  0.0390 -0.1870 -0.1076
  108loPI   C2A 1720   2.508   7.218  10.305 -0.0450 -0.2963 -0.0125
  108loPI   C3A 1721   2.571   7.193   9.952  0.0118 -0.0036  0.2594
  108loPI   C4A 1722   2.502   7.157   9.618  0.3114  0.3336 -0.0285
  108loPI   C5A 1723   2.414   7.177   9.194  0.0237  0.0584  0.2036
  108loPI   C6A 1724   2.798   7.343   8.842 -0.0779 -0.0543 -0.1069
  108loPI   C1B 1725   2.421   6.783  10.603 -0.0866 -0.1951  0.0279
  108loPI   C2B 1726   2.465   6.730  10.196  0.1194 -0.0434 -0.2194
  108loPI   C3B 1727   2.549   6.689   9.772 -0.2096  0.1377  0.0702
  108loPI   C4B 1728   2.382   6.658   9.328  0.1048 -0.3063 -0.0516
  109loPI    C1 1729   4.893   4.265  12.077  0.1491 -0.0024 -0.1444
  109loPI    C2 1730   4.672   4.011  12.292  0.2427 -0.1313 -0.1993
  109loPI    C3 1731   4.801   4.352  12.456 -0.0035 -0.0499 -0.1697
  109loPI   PO4 1732   5.032   4.068  11.937 -0.1396  0.3487 -0.3226
  109loPI   GL1 1733   4.943   4.075  11.444 -0.0081  0.3954  0.3018
  109loPI   GL2 1734   4.728   4.161  11.358  0.0926 -0.0845 -0.1599
  109loPI   C1A 1735   5.208   3.920  11.149  0.0758  0.1505  0.3751
  109loPI   C2A 1736   5.398   4.164  10.848 -0.0971 -0.1104  0.0159
  109loPI   C3A 1737   5.423   4.146  10.332 -0.1295 -0.1941  0.0730
  109loPI   C4A 1738   5.481   4.122   9.858 -0.2183  0.1303 -0.2452
  109loPI   C5A 1739   5.622   4.077   9.303 -0.2028  0.1910 -0.1063
  109loPI   C6A 1740   5.522   3.987   8.932  0.3324  0.1457 -0.1208
  109loPI   C1B 1741   4.891   4.290  10.909 -0.1739  0.2334  0.3255
  109loPI   C2B 1742   5.097   4.465  10.549  0.1758 -0.0130 -0.3915
  109loPI   C3B 1743   5.044   4.502  10.141 -0.3072  0.2819  0.1977
  109loPI   C4B 1744   5.053   4.418   9.766  0.2009  0.0841  0.2588
  110loPI    C1 1745   6.221   0.342  11.739 -0.0514  0.0824 -0.0153
  110loPI    C2 1746   6.513   0.161  11.942 -0.0935 -0.0240 -0.0489
  110loPI    C3 1747   6.165   0.242  12.122 -0.0572  0.0686 -0.0198
  110loPI   PO4 1748   6.332   0.575  11.502  0.0878 -0.0273  0.2237
  110loPI   GL1 1749   6.278   0.765  11.091  0.4596  0.0224  0.1080
  110loPI   GL2 1750   6.041   0.894  10.964 -0.4515 -0.2801 -0.2171
  110loPI   C1A 1751   6.457   0.657  10.806  0.2985 -0.1381  0.1320
  110loPI   C2A 1752   6.580   0.714  10.331 -0.0721  0.1991  0.0105
  110loPI   C3A 1753   6.721   0.797   9.917  0.1963  0.1051  0.0063
  110loPI   C4A 1754   6.863   0.703   9.425 -0.3214 -0.2312 -0.2839
  110loPI   C5A 1755   6.637   0.789   9.085  0.1513 -0.3815  0.0069
  110loPI   C6A 1756   6.558   0.706   8.659  0.2977 -0.3366  0.1102
  110loPI   C1B 1757   6.140   0.968  10.502 -0.0162 -0.1962 -0.0626
  110loPI   C2B 1758   6.243   1.007  10.132  0.4896 -0.0187  0.1116
  110loPI   C3B 1759   6.314   0.870   9.724  0.1532  0.1535 -0.2321
  110loPI   C4B 1760   6.296   0.990   9.348  0.1606  0.2541  0.0595
  111loPI    C1 1761  14.948   4.318  11.631 -0.0601  0.1131  0.0890
  111loPI    C2 1762  14.651   4.096  11.782  0.0401 -0.1464 -0.0893
  111loPI    C3 1763  15.031   3.980  11.828  0.0910 -0.0358 -0.2233
  111loPI   PO4 1764  14.818   4.379  11.315 -0.0689  0.1559  0.1847
  111loPI   GL1 1765  14.907   4.434  10.890  0.0216  0.0331 -0.1151
  111loPI   GL2 1766  14.977   4.730  10.997  0.0029  0.0224 -0.0737
  111loPI   C1A 1767  14.917   4.265  10.437 -0.1426  0.1352  0.4115
  111loPI   C2A 1768  14.660   4.048  10.208 -0.1436  0.4405 -0.1217
  111loPI   C3A 1769  14.594   3.838   9.833  0.2817  0.1781  0.0544
  111loPI   C4A 1770  14.456   3.778   9.464  0.2961  0.2576 -0.3328
  111loPI   C5A 1771  14.475   3.953   9.106  0.1832  0.0253  0.2568
  111loPI   C6A 1772  14.155   3.841   8.753 -0.1510 -0.1343 -0.2012
  111loPI   C1B 1773  15.041   4.756  10.531 -0.0133  0.0733  0.3762
  111loPI   C2B 1774  14.911   4.636  10.108  0.0265 -0.2560  0.1711
  111loPI   C3B 1775  14.821   4.334   9.876 -0.0681  0.0128 -0.1798
  111loPI   C4B 1776  14.687   4.318   9.413 -0.3365 -0.4345  0.1161
  112loPI    C1 1777   1.920   9.220  11.225  0.2423  0.1625  0.0083
  112loPI    C2 1778   1.794   9.068  11.573  0.1313 -0.2181 -0.1925
  112loPI    C3 1779   2.057   9.369  11.570 -0.1786  0.0680  0.2228
  112loPI   PO4 1780   1.691   9.230  11.088  0.2611 -0.4459 -0.3200
  112loPI   GL1 1781   1.720   9.252  10.654  0.5355 -0.3794 -0.2316
  112loPI   GL2 1782   1.963   9.040  10.690  0.1067 -0.4728 -0.3231
  112loPI   C1A 1783   1.565   9.348  10.249  0.0075  0.1122  0.3665
  112loPI   C2A 1784   1.609   9.220   9.834 -0.0456  0.2036  0.3202
  112loPI   C3A 1785   1.551   9.424   9.431 -0.2855  0.1814  0.0612
  112loPI   C4A 1786   1.797   9.447   9.068 -0.1683 -0.1153 -0.0520
  112loPI   C5A 1787   1.735   9.164   8.720  0.0480  0.0259 -0.3307
  112loPI   C6A 1788   1.507   8.911   8.544  0.0295  0.0584  0.2896
  112loPI   C1B 1789   1.978   9.044  10.213  0.0207 -0.2526  0.2051
  112loPI   C2B 1790   2.081   9.068   9.783 -0.1867  0.2059  0.0261
  112loPI   C3B 1791   2.038   9.090   9.368 -0.0492 -0.0977  0.0702
  112loPI   C4B 1792   2.208   9.121   8.961 -0.1814 -0.0765 -0.1558
  113loPI    C1 1793   7.341   3.138  11.866 -0.1523 -0.0604 -0.1518
  113loPI    C2 1794   7.255   3.015  12.236 -0.1211  0.1789 -0.0629
  113loPI    C3 1795   6.985   3.224  12.027 -0.0457  0.2598 -0.0798
  113loPI   PO4 1796   7.425   2.886  11.710 -0.1750 -0.1880  0.1091
  113loPI   GL1 1797   7.397   2.647  11.438  0.1016  0.3022  0.1574
  113loPI   GL2 1798   7.222   2.416  11.275 -0.0985  0.1413  0.1049
  113loPI   C1A 1799   7.616   2.668  11.058  0.2867  0.0425 -0.0791
  113loPI   C2A 1800   7.691   2.686  10.666  0.2113  0.1667 -0.1603
  113loPI   C3A 1801   7.702   2.726  10.187  0.0224  0.1729  0.0400
  113loPI   C4A 1802   7.746   2.869   9.765 -0.0560 -0.0297  0.1943
  113loPI   C5A 1803   7.694   2.786   9.414 -0.1585  0.2000 -0.0557
  113loPI   C6A 1804   7.456   2.712   9.153  0.1300  0.0538 -0.0781
  113loPI   C1B 1805   7.191   2.468  10.841  0.1036 -0.0730 -0.0555
  113loPI   C2B 1806   7.265   2.547  10.420 -0.0435 -0.2689 -0.0525
  113loPI   C3B 1807   7.272   2.519  10.016 -0.0158 -0.2836  0.0231
  113loPI   C4B 1808   7.207   2.597   9.549  0.0111 -0.0800 -0.0401
  114loPI    C1 1809   1.360  14.901  11.704  0.2467 -0.0990  0.2060
  114loPI    C2 1810   1.154  14.560  11.746  0.1333 -0.0557  0.0165
  114loPI    C3 1811   1.069  14.876  11.977 -0.1080  0.0054 -0.1521
  114loPI   PO4 1812   1.371  14.905  11.404 -0.1603 -0.0440  0.2039
  114loPI   GL1 1813   1.247  14.943  10.960  0.1946  0.0330  0.0371
  114loPI   GL2 1814   1.523  14.764  10.980  0.0753 -0.0253  0.2680
  114loPI   C1A 1815   1.085  15.119  10.632 -0.2033 -0.1494  0.2837
  114loPI   C2A 1816   0.991  15.094  10.308  0.1404  0.0961  0.3348
  114loPI   C3A 1817   1.155  15.032   9.835  0.0412 -0.0668 -0.2938
  114loPI   C4A 1818   1.152  15.009   9.365  0.0437 -0.1500  0.4464
  114loPI   C5A 1819   1.154  15.001   9.009 -0.0743 -0.0576  0.2169
  114loPI   C6A 1820   1.552  15.036   8.718  0.2580 -0.0680 -0.1891
  114loPI   C1B 1821   1.543  14.817  10.553 -0.0272  0.0287  0.0212
  114loPI   C2B 1822   1.529  14.865  10.096 -0.0698 -0.2589 -0.3013
  114loPI   C3B 1823   1.581  14.805   9.629  0.0940 -0.1068 -0.1421
  114loPI   C4B 1824   1.647  14.803   9.164 -0.3738 -0.0960 -0.2154
  115loPI    C1 1825   1.232   2.066  11.570  0.1628 -0.3571 -0.1178
  115loPI    C2 1826   1.339   1.898  11.917  0.0342  0.0582  0.1304
  115loPI    C3 1827   0.964   2.028  11.864  0.0266 -0.0884 -0.2036
  115loPI   PO4 1828   1.396   1.891  11.383 -0.2238 -0.4163 -0.3917
  115loPI   GL1 1829   1.488   1.852  10.972  0.1101 -0.0231  0.0566
  115loPI   GL2 1830   1.750   1.700  10.808  0.0635  0.2279  0.3234
  115loPI   C1A 1831   1.236   1.959  10.588 -0.0625 -0.0538  0.3739
  115loPI   C2A 1832   1.204   1.957  10.125  0.1943 -0.0983 -0.0486
  115loPI   C3A 1833   1.385   1.947   9.725 -0.3313  0.1529  0.2300
  115loPI   C4A 1834   1.412   1.823   9.212  0.0707  0.1462 -0.2527
  115loPI   C5A 1835   1.765   2.082   8.966 -0.1131 -0.1806  0.1256
  115loPI   C6A 1836   1.779   2.418   8.673 -0.1177 -0.0122  0.1261
  115loPI   C1B 1837   1.804   1.674  10.322 -0.2919 -0.1835 -0.2594
  115loPI   C2B 1838   1.737   1.591   9.957 -0.1498  0.1481 -0.0032
  115loPI   C3B 1839   1.754   1.628   9.555  0.2400  0.0574 -0.2569
  115loPI   C4B 1840   1.812   1.558   9.149 -0.0347  0.1626  0.4527
  116loPI    C1 1841  15.808   8.433  11.343  0.1239  0.1904 -0.1860
  116loPI    C2 1842  16.147   8.225  11.294  0.0596  0.0640 -0.0983
  116loPI    C3 1843  15.957   8.218  11.646  0.0917  0.3247 -0.0743
  116loPI   PO4 1844  15.879   8.586  11.081 -0.0795 -0.1711 -0.1925
  116loPI   GL1 1845  16.105   8.555  10.630  0.0907  0.0811  0.2035
  116loPI   GL2 1846  16.347   8.592  10.505 -0.1003 -0.1796 -0.1410
  116loPI   C1A 1847  15.958   8.801  10.326  0.1263  0.1160  0.0399
  116loPI   C2A 1848  15.974   8.822   9.977 -0.1224  0.0065  0.0236
  116loPI   C3A 1849  16.013   8.809   9.593 -0.2540 -0.2484  0.0527
  116loPI   C4A 1850  16.134   8.963   9.286 -0.0866  0.0237  0.4312
  116loPI   C5A 1851  16.214   9.062   8.869  0.1637 -0.1515 -0.5920
  116loPI   C6A 1852  16.340   9.291   8.451  0.5083  0.0026 -0.0508
  116loPI   C1B 1853  16.403   8.598  10.052  0.0774  0.1801  0.0717
  116loPI   C2B 1854  16.465   8.647   9.541  0.1456  0.0976  0.1465
  116loPI   C3B 1855  16.565   8.702   9.025  0.0134  0.2524 -0.1656
  116loPI   C4B 1856  16.448   8.662   8.659 -0.1081 -0.2012  0.0410
  117loPI    C1 1857   6.763   5.250  11.908  0.0161 -0.0640  0.0289
  117loPI    C2 1858   6.651   4.979  12.181  0.0542 -0.0374  0.0713
  117loPI    C3 1859   6.995   5.179  12.227 -0.0360  0.1113  0.1069
  117loPI   PO4 1860   6.757   5.126  11.667 -0.0215  0.1472 -0.0303
  117loPI   GL1 1861   6.971   5.163  11.274 -0.4434 -0.0667 -0.1699
  117loPI   GL2 1862   7.230   5.102  11.216 -0.1074  0.0814 -0.0945
  117loPI   C1A 1863   6.859   5.414  10.952 -0.0331  0.2826  0.0767
  117loPI   C2A 1864   6.886   5.461  10.581  0.2715  0.2857  0.2540
  117loPI   C3A 1865   6.879   5.447  10.190  0.1235 -0.3375  0.0419
  117loPI   C4A 1866   6.935   5.359   9.734 -0.0667 -0.0927  0.1963
  117loPI   C5A 1867   7.024   5.433   9.286  0.3205 -0.3406 -0.0984
  117loPI   C6A 1868   7.215   5.665   8.960  0.1223  0.0677  0.2234
  117loPI   C1B 1869   7.266   5.139  10.802 -0.1139 -0.0635  0.0782
  117loPI   C2B 1870   7.291   5.250  10.354  0.3053  0.0395 -0.1568
  117loPI   C3B 1871   7.271   5.168   9.977 -0.0614 -0.2594 -0.1180
  117loPI   C4B 1872   7.369   5.099   9.573  0.0521  0.0891  0.0178
  118loPI    C1 1873  10.559  17.231  11.952  0.2146  0.1918 -0.1025
  118loPI    C2 1874  10.807  16.968  12.124  0.2008  0.2445 -0.0013
  118loPI    C3 1875  10.506  17.128  12.334 -0.0286  0.0467 -0.1731
  118loPI   PO4 1876  10.505  17.116  11.721 -0.1455 -0.2473 -0.2292
  118loPI   GL1 1877  10.630  17.056  11.302  0.0954  0.0608  0.0364
  118loPI   GL2 1878  10.819  16.826  11.182  0.2572  0.2560  0.2480
  118loPI   C1A 1879  10.522  17.329  11.061  0.1066  0.0357 -0.0877
  118loPI   C2A 1880  10.424  17.326  10.694 -0.0238 -0.0044  0.3585
  118loPI   C3A 1881  10.350  17.351  10.193  0.0707 -0.2259  0.0381
  118loPI   C4A 1882  10.270  17.326   9.795 -0.1553 -0.1887 -0.3054
  118loPI   C5A 1883  10.183  17.329   9.363  0.0056 -0.1642  0.1088
  118loPI   C6A 1884   9.847  17.096   9.128  0.0564 -0.1298 -0.0766
  118loPI   C1B 1885  10.806  17.022  10.787 -0.2024  0.0880 -0.0610
  118loPI   C2B 1886  10.858  17.049  10.342 -0.0105  0.3101  0.0754
  118loPI   C3B 1887  10.768  17.012   9.890  0.1406 -0.3783  0.0491
  118loPI   C4B 1888  10.718  17.148   9.466 -0.1962  0.1837 -0.0108
  119loPI    C1 1889   2.675   3.347  11.754 -0.1793 -0.1692  0.0090
  119loPI    C2 1890   2.731   2.969  11.874  0.1860 -0.0691  0.1665
  119loPI    C3 1891   2.584   3.240  12.129  0.1444 -0.0521  0.1245
  119loPI   PO4 1892   2.702   3.304  11.411 -0.0071 -0.2528 -0.2342
  119loPI   GL1 1893   2.788   3.019  11.065 -0.0334 -0.3003 -0.0806
  119loPI   GL2 1894   3.105   3.148  10.996 -0.1185 -0.0744  0.2450
  119loPI   C1A 1895   2.637   3.071  10.718 -0.1711  0.1519  0.0580
  119loPI   C2A 1896   2.684   3.189  10.265  0.1925 -0.1096  0.0605
  119loPI   C3A 1897   2.644   3.210   9.941 -0.0175  0.0068  0.0384
  119loPI   C4A 1898   2.639   3.109   9.577  0.0083  0.2554 -0.1708
  119loPI   C5A 1899   2.745   3.166   9.242 -0.3192  0.1779 -0.1453
  119loPI   C6A 1900   2.904   3.204   8.847  0.0423  0.0265 -0.0804
  119loPI   C1B 1901   3.084   3.376  10.482  0.1705 -0.0433 -0.2026
  119loPI   C2B 1902   3.104   3.410  10.068  0.1520 -0.3594  0.0498
  119loPI   C3B 1903   3.095   3.388   9.647 -0.2137 -0.0969  0.2223
  119loPI   C4B 1904   3.238   3.474   9.233  0.1283  0.1837  0.1602
  120loPI    C1 1905  16.578   5.438  11.086 -0.1110 -0.2588 -0.1387
  120loPI    C2 1906  16.297   5.347  11.357  0.1471  0.0985  0.2634
  120loPI    C3 1907  16.468   5.057  11.139 -0.3176 -0.1539  0.2221
  120loPI   PO4 1908  16.523   5.664  10.921 -0.0772 -0.0105  0.2373
  120loPI   GL1 1909  16.414   6.015  10.570  0.1683  0.1622  0.1859
  120loPI   GL2 1910  16.559   6.137  10.530 -0.1678 -0.0108 -0.0918
  120loPI   C1A 1911  16.375   5.653  10.310  0.2155  0.1166 -0.3526
  120loPI   C2A 1912  16.293   5.428   9.918 -0.1709 -0.0189 -0.3314
  120loPI   C3A 1913  16.541   5.499   9.516  0.1199  0.3184  0.0534
  120loPI   C4A 1914  16.785   5.506   9.160  0.1281  0.0362  0.0839
  120loPI   C5A 1915  16.961   5.355   8.816  0.1629  0.0363 -0.3015
  120loPI   C6A 1916  16.724   5.012   8.592  0.0485 -0.0508 -0.0009
  120loPI   C1B 1917  16.649   6.236  10.060 -0.1498 -0.2857 -0.0421
  120loPI   C2B 1918  16.816   6.122   9.695 -0.2484 -0.0032  0.2511
  120loPI   C3B 1919  16.799   6.157   9.282 -0.0211 -0.0086 -0.0058
  120loPI   C4B 1920  16.884   6.412   8.932 -0.2761 -0.0147  0.1018
  121loPI    C1 1921  11.146   3.845  11.815  0.0277 -0.1332  0.1298
  121loPI    C2 1922  11.077   3.719  12.189 -0.1135 -0.1157  0.1103
  121loPI    C3 1923  11.447   3.823  12.078 -0.0558 -0.2008  0.2208
  121loPI   PO4 1924  10.883   3.984  11.785  0.0687 -0.2113  0.1654
  121loPI   GL1 1925  10.686   4.316  11.510  0.1111  0.2284 -0.0992
  121loPI   GL2 1926  11.002   4.178  11.358  0.0988 -0.2453  0.1636
  121loPI   C1A 1927  10.588   4.209  11.109  0.0756 -0.1145 -0.1708
  121loPI   C2A 1928  10.543   4.150  10.556 -0.1609  0.1745 -0.3455
  121loPI   C3A 1929  10.511   4.147  10.123  0.2626 -0.1956  0.1075
  121loPI   C4A 1930  10.502   4.171   9.669  0.0240  0.0128  0.1897
  121loPI   C5A 1931  10.746   4.131   9.253 -0.1109  0.1301 -0.1458
  121loPI   C6A 1932  11.115   4.106   8.921  0.1580  0.1749  0.0971
  121loPI   C1B 1933  11.107   4.080  10.941  0.0775 -0.3866  0.0483
  121loPI   C2B 1934  10.998   3.995  10.467 -0.1146 -0.1852 -0.0897
  121loPI   C3B 1935  10.968   3.959  10.090 -0.1742  0.3220  0.2188
  121loPI   C4B 1936  10.933   3.869   9.583 -0.2821 -0.1339  0.2204
  122loPI    C1 1937  11.703  13.300  11.809 -0.1144  0.1151  0.0970
  122loPI    C2 1938  11.744  12.976  12.040  0.0708 -0.0095 -0.1072
  122loPI    C3 1939  11.679  13.334  12.207  0.0804 -0.1166  0.1302
  122loPI   PO4 1940  11.598  13.217  11.595  0.2290 -0.1092  0.1350
  122loPI   GL1 1941  11.534  13.157  11.215 -0.0615  0.0862 -0.1260
  122loPI   GL2 1942  11.476  13.412  11.129 -0.2081  0.0448  0.0799
  122loPI   C1A 1943  11.885  13.024  10.908  0.3577 -0.0614 -0.1342
  122loPI   C2A 1944  11.900  13.055  10.505 -0.1139 -0.0109  0.2171
  122loPI   C3A 1945  11.942  13.030  10.100  0.1122 -0.1493 -0.1477
  122loPI   C4A 1946  11.897  13.081   9.706 -0.2107 -0.0729  0.1711
  122loPI   C5A 1947  11.943  13.011   9.250 -0.2661  0.1274  0.0567
  122loPI   C6A 1948  11.639  12.746   8.985 -0.0977  0.1389 -0.2420
  122loPI   C1B 1949  11.662  13.430  10.680 -0.0469 -0.0344 -0.1059
  122loPI   C2B 1950  11.677  13.440  10.294 -0.1111 -0.1792 -0.0731
  122loPI   C3B 1951  11.506  13.316   9.936 -0.0152 -0.3847  0.2549
  122loPI   C4B 1952  11.460  13.367   9.524  0.0186 -0.0112  0.1204
  123loPI    C1 1953  14.710   3.554  11.346 -0.1268 -0.1078 -0.0719
  123loPI    C2 1954  14.804   3.551  11.734  0.0104  0.0587 -0.1024
  123loPI    C3 1955  14.471   3.369  11.607 -0.0927  0.0981  0.1075
  123loPI   PO4 1956  14.774   3.858  11.341  0.2958 -0.0604  0.0918
  123loPI   GL1 1957  14.882   3.922  10.912 -0.1377  0.1445  0.0854
  123loPI   GL2 1958  14.538   4.113  10.954 -0.2690  0.1908 -0.3290
  123loPI   C1A 1959  14.846   3.715  10.500  0.1591  0.0555  0.1057
  123loPI   C2A 1960  14.838   3.548  10.101 -0.2806 -0.0746  0.1305
  123loPI   C3A 1961  14.882   3.464   9.581 -0.0450  0.3523 -0.1355
  123loPI   C4A 1962  14.841   3.483   9.185  0.1689 -0.0360 -0.0257
  123loPI   C5A 1963  14.939   3.201   8.903  0.0473  0.0818  0.0323
  123loPI   C6A 1964  15.127   2.938   8.979  0.0309 -0.1819 -0.0158
  123loPI   C1B 1965  14.379   3.893  10.663 -0.0059  0.1199 -0.0571
  123loPI   C2B 1966  14.388   3.568  10.316  0.1288  0.4173 -0.1632
  123loPI   C3B 1967  14.421   3.359   9.841 -0.5571 -0.2349 -0.0226
  123loPI   C4B 1968  14.327   3.292   9.422 -0.0393  0.4182  0.0032
  124loPI    C1 1969  13.542   2.380  11.941  0.0329 -0.0601 -0.0890
  124loPI    C2 1970  13.328   2.124  12.162 -0.0324 -0.0086 -0.0924
  124loPI    C3 1971  13.713   2.192  12.251 -0.1041  0.1412  0.1118
  124loPI   PO4 1972  13.427   2.263  11.651 -0.0257  0.2536 -0.2978
  124loPI   GL1 1973  13.484   2.182  11.197 -0.0365  0.2722  0.1581
  124loPI   GL2 1974  13.677   2.246  10.953 -0.2545 -0.2544 -0.1331
  124loPI   C1A 1975  13.194   2.303  10.829  0.3045  0.1295 -0.1817
  124loPI   C2A 1976  13.096   2.144  10.448  0.1181 -0.2056 -0.2718
  124loPI   C3A 1977  13.104   2.116  10.007  0.4066  0.3267 -0.0973
  124loPI   C4A 1978  13.082   2.050   9.571  0.3139  0.2596  0.0069
  124loPI   C5A 1979  12.839   2.076   9.212 -0.0782  0.2309 -0.3677
  124loPI   C6A 1980  12.648   1.972   8.813  0.0031  0.1618  0.0293
  124loPI   C1B 1981  13.572   2.486  10.595 -0.1587  0.0081 -0.0809
  124loPI   C2B 1982  13.516   2.422  10.118 -0.3798 -0.0064 -0.1180
  124loPI   C3B 1983  13.602   2.228   9.720  0.2596  0.3125 -0.1323
  124loPI   C4B 1984  13.517   2.363   9.381  0.1373 -0.1704  0.0627
  125loPI    C1 1985  13.813   5.527  11.423 -0.2564  0.0459 -0.2694
  125loPI    C2 1986  13.941   5.448  11.794 -0.0989  0.2670 -0.2747
  125loPI    C3 1987  13.761   5.162  11.579 -0.1163  0.1138 -0.0596
  125loPI   PO4 1988  14.026   5.676  11.227  0.0734 -0.2828  0.1736
  125loPI   GL1 1989  14.165   5.452  10.932 -0.1288 -0.0342 -0.2495
  125loPI   GL2 1990  14.088   5.635  10.725 -0.0192  0.1763  0.0322
  125loPI   C1A 1991  14.433   5.152  10.661  0.1632 -0.3088  0.1032
  125loPI   C2A 1992  14.506   5.060  10.240  0.0278  0.0686 -0.0404
  125loPI   C3A 1993  14.505   4.715   9.863  0.1355 -0.3991  0.0562
  125loPI   C4A 1994  14.246   4.601   9.476 -0.0265  0.2388  0.0517
  125loPI   C5A 1995  14.193   4.700   9.021  0.0723 -0.1263  0.3157
  125loPI   C6A 1996  14.031   4.871   8.649  0.2140  0.1653  0.2115
  125loPI   C1B 1997  14.246   5.571  10.397  0.2834 -0.0328  0.0124
  125loPI   C2B 1998  14.093   5.523   9.914 -0.0742  0.1185 -0.2987
  125loPI   C3B 1999  14.280   5.211   9.583 -0.1393 -0.1718  0.0002
  125loPI   C4B 2000  14.556   4.992   9.388  0.1043  0.1168 -0.1777
  126loPI    C1 2001   8.658   8.313  11.770  0.0523 -0.0076  0.0178
  126loPI    C2 2002   8.607   8.700  11.857  0.1422  0.0374 -0.1265
  126loPI    C3 2003   8.691   8.440  12.149 -0.1612  0.0846  0.0069
  126loPI   PO4 2004   8.447   8.197  11.582  0.0507 -0.0434  0.1893
  126loPI   GL1 2005   8.335   8.274  11.252  0.0622 -0.1164 -0.2573
  126loPI   GL2 2006   8.081   8.113  11.021  0.0647 -0.2765  0.0558
  126loPI   C1A 2007   8.512   8.298  10.811  0.2054  0.3237  0.1737
  126loPI   C2A 2008   8.436   8.128  10.371  0.0369 -0.2274 -0.0315
  126loPI   C3A 2009   8.339   8.153   9.934  0.2409 -0.1640 -0.0421
  126loPI   C4A 2010   8.312   8.196   9.448  0.1732 -0.1966  0.0297
  126loPI   C5A 2011   8.380   8.333   9.048  0.0639 -0.0643 -0.0614
  126loPI   C6A 2012   8.576   8.454   8.666 -0.2426 -0.1686 -0.2875
  126loPI   C1B 2013   8.069   8.113  10.623  0.1056  0.0560 -0.1069
  126loPI   C2B 2014   7.922   7.935  10.173 -0.0096  0.3297 -0.2097
  126loPI   C3B 2015   7.973   7.935   9.709 -0.1397 -0.1347 -0.2955
  126loPI   C4B 2016   8.177   7.636   9.327  0.0692 -0.2523  0.0467
  127loPI    C1 2017   3.006  15.943  11.614  0.1282  0.1937 -0.1052
  127loPI    C2 2018   3.312  15.882  11.865 -0.1039 -0.1249  0.1080
  127loPI    C3 2019   3.106  16.224  11.879  0.1486  0.0310  0.0616
  127loPI   PO4 2020   3.119  15.981  11.374  0.0463  0.0889 -0.2240
  127loPI   GL1 2021   3.114  16.183  11.078 -0.2808 -0.3007 -0.3146
  127loPI   GL2 2022   3.041  16.534  10.986  0.1038  0.0666  0.0891
  127loPI   C1A 2023   3.044  16.044  10.635 -0.0545  0.0556  0.2006
  127loPI   C2A 2024   2.898  16.032  10.262  0.2269  0.2022  0.2279
  127loPI   C3A 2025   3.020  16.001   9.880  0.1257 -0.1845  0.0752
  127loPI   C4A 2026   3.021  15.945   9.456 -0.1172  0.1187  0.2792
  127loPI   C5A 2027   2.911  15.561   9.198 -0.0427 -0.0733  0.1839
  127loPI   C6A 2028   2.842  15.361   8.714 -0.0221 -0.1172  0.3861
  127loPI   C1B 2029   2.992  16.507  10.517  0.1013 -0.2761  0.0304
  127loPI   C2B 2030   2.986  16.459  10.074  0.1211 -0.0843 -0.0910
  127loPI   C3B 2031   3.082  16.430   9.604  0.0484 -0.2090  0.0756
  127loPI   C4B 2032   3.180  16.633   9.199  0.0878 -0.0981 -0.2289
  128loPI    C1 2033   6.534  10.608  12.003  0.1905 -0.1325 -0.0629
  128loPI    C2 2034   6.788  10.373  12.204  0.1357 -0.0934  0.0534
  128loPI    C3 2035   6.633  10.697  12.381  0.2377  0.0506 -0.1172
  128loPI   PO4 2036   6.684  10.478  11.754  0.1496 -0.2939  0.2921
  128loPI   GL1 2037   6.779  10.247  11.360  0.2355  0.1335 -0.1575
  128loPI   GL2 2038   6.625  10.061  11.244 -0.2121 -0.2679 -0.0936
  128loPI   C1A 2039   6.686  10.437  10.899  0.0531 -0.1646  0.0798
  128loPI   C2A 2040   6.707  10.493  10.507 -0.0494 -0.1654 -0.2192
  128loPI   C3A 2041   6.741  10.415  10.155  0.2751  0.3720  0.2232
  128loPI   C4A 2042   6.693  10.262   9.788 -0.3076 -0.1440 -0.0490
  128loPI   C5A 2043   6.882  10.493   9.379 -0.0991  0.0432 -0.0183
  128loPI   C6A 2044   6.953  10.722   9.044 -0.3922 -0.1072  0.2464
  128loPI   C1B 2045   6.767   9.860  10.959  0.1550  0.3817  0.0509
  128loPI   C2B 2046   6.687   9.777  10.484 -0.0221 -0.1856 -0.4275
  128loPI   C3B 2047   6.647   9.744  10.020 -0.0772  0.0638 -0.0274
  128loPI   C4B 2048   6.686   9.773   9.583  0.1393 -0.4061  0.1176
  129loPI    C1 2049  16.054  14.427  11.467  0.2467  0.0121 -0.0546
  129loPI    C2 2050  16.324  14.711  11.549  0.3503 -0.1242  0.0800
  129loPI    C3 2051  15.967  14.717  11.729  0.2700  0.0444 -0.0823
  129loPI   PO4 2052  16.130  14.379  11.197  0.2268  0.0135 -0.3589
  129loPI   GL1 2053  16.274  14.272  10.743 -0.1231 -0.4717  0.1306
  129loPI   GL2 2054  16.190  14.632  10.726  0.0439 -0.1689  0.0776
  129loPI   C1A 2055  16.327  14.193  10.339 -0.0434 -0.3891 -0.1052
  129loPI   C2A 2056  16.451  14.192   9.952 -0.0629  0.1115  0.3927
  129loPI   C3A 2057  16.467  14.099   9.524  0.0056 -0.2060  0.0709
  129loPI   C4A 2058  16.436  14.182   9.175  0.0659 -0.0926  0.0298
  129loPI   C5A 2059  16.371  14.302   8.787 -0.0305 -0.0812  0.1206
  129loPI   C6A 2060  16.120  14.562   8.523  0.2803  0.2050 -0.0166
  129loPI   C1B 2061  15.998  14.555  10.427  0.2273  0.2284 -0.0361
  129loPI   C2B 2062  16.059  14.414   9.948  0.1439 -0.1338  0.0735
  129loPI   C3B 2063  16.055  14.463   9.514 -0.1077  0.3915  0.1361
  129loPI   C4B 2064  16.000  14.426   9.072  0.1135  0.0852 -0.1015
  130loPI    C1 2065   1.792  13.140  11.666 -0.0888  0.0313  0.1272
  130loPI    C2 2066   1.652  12.877  11.933  0.0954  0.3524  0.5520
  130loPI    C3 2067   2.046  12.905  11.868  0.0341  0.0369 -0.0186
  130loPI   PO4 2068   1.640  13.166  11.459 -0.0399  0.4626 -0.2100
  130loPI   GL1 2069   1.580  12.777  11.073  0.1165 -0.1418 -0.2433
  130loPI   GL2 2070   1.322  12.734  10.951  0.0732 -0.2748 -0.1447
  130loPI   C1A 2071   1.424  13.179  10.864  0.2439 -0.2470  0.1349
  130loPI   C2A 2072   1.483  13.210  10.510  0.2165 -0.0792 -0.0001
  130loPI   C3A 2073   1.469  13.277  10.080 -0.1671  0.0684  0.0705
  130loPI   C4A 2074   1.562  13.243   9.743  0.0436 -0.0347  0.3809
  130loPI   C5A 2075   1.574  13.350   9.300 -0.2007 -0.0382 -0.2115
  130loPI   C6A 2076   1.444  13.184   8.905  0.0220  0.2490 -0.1424
  130loPI   C1B 2077   1.283  12.733  10.591 -0.2270  0.0801  0.0034
  130loPI   C2B 2078   1.440  12.786  10.177  0.1065  0.0098  0.0894
  130loPI   C3B 2079   1.468  12.693   9.729 -0.1017  0.1182  0.0234
  130loPI   C4B 2080   1.471  12.648   9.320 -0.0624  0.0164  0.2064
  131loPI    C1 2081   3.260   7.473  11.687 -0.0865  0.1292  0.0131
  131loPI    C2 2082   3.399   7.193  11.937 -0.2263  0.2247  0.2009
  131loPI    C3 2083   3.120   7.451  12.061 -0.3172  0.2572 -0.0637
  131loPI   PO4 2084   3.353   7.317  11.433  0.0380 -0.1073 -0.0956
  131loPI   GL1 2085   3.276   7.103  10.970  0.0966 -0.1429 -0.5174
  131loPI   GL2 2086   3.047   7.311  10.949 -0.1709 -0.1327  0.0808
  131loPI   C1A 2087   3.380   7.092  10.513  0.0048  0.0066  0.0709
  131loPI   C2A 2088   3.393   7.135  10.126 -0.0667  0.0562 -0.3258
  131loPI   C3A 2089   3.462   7.092   9.729 -0.0593 -0.1027 -0.0353
  131loPI   C4A 2090   3.352   6.984   9.334  0.0364 -0.0783 -0.2829
  131loPI   C5A 2091   3.343   6.846   8.879 -0.4296 -0.0874  0.0330
  131loPI   C6A 2092   3.454   6.467   8.613 -0.0175  0.1723 -0.3236
  131loPI   C1B 2093   3.000   7.378  10.505 -0.0282 -0.0688 -0.2120
  131loPI   C2B 2094   2.974   7.456  10.113  0.0892 -0.2348  0.2756
  131loPI   C3B 2095   2.976   7.412   9.738  0.2336 -0.0584  0.0906
  131loPI   C4B 2096   2.992   7.307   9.367 -0.0832  0.2781 -0.5007
  132loPI    C1 2097  10.750  11.217  11.845  0.1220 -0.1095  0.0904
  132loPI    C2 2098  11.046  11.279  12.107  0.0139 -0.0808  0.2067
  132loPI    C3 2099  10.681  11.180  12.237 -0.1189  0.2340  0.0845
  132loPI   PO4 2100  10.913  11.288  11.560  0.2206 -0.2073  0.1629
  132loPI   GL1 2101  10.974  11.423  11.111 -0.2493  0.1654  0.1370
  132loPI   GL2 2102  10.719  11.240  11.135 -0.1735  0.0972  0.3288
  132loPI   C1A 2103  11.038  11.497  10.649 -0.1839  0.0640  0.1554
  132loPI   C2A 2104  10.979  11.637  10.279 -0.0456 -0.3545 -0.0856
  132loPI   C3A 2105  10.996  11.512   9.869  0.0297 -0.0721 -0.2472
  132loPI   C4A 2106  10.896  11.279   9.453  0.1910  0.2080 -0.1151
  132loPI   C5A 2107  10.853  10.926   9.258 -0.0522  0.2883  0.0721
  132loPI   C6A 2108  11.032  10.699   8.972 -0.3611 -0.0975 -0.0249
  132loPI   C1B 2109  10.563  11.288  10.756  0.4608  0.1702 -0.0572
  132loPI   C2B 2110  10.578  11.329  10.281 -0.1701 -0.0322  0.0421
  132loPI   C3B 2111  10.579  11.217   9.880 -0.1447  0.3968  0.0999
  132loPI   C4B 2112  10.359  11.199   9.453 -0.1578 -0.2274 -0.1672
  133loPI    C1 2113   6.526   3.980  12.041 -0.0753 -0.0047 -0.2767
  133loPI    C2 2114   6.591   3.585  12.057 -0.0819  0.0014 -0.0681
  133loPI    C3 2115   6.234   3.733  12.162 -0.0050  0.0822  0.0832
  133loPI   PO4 2116   6.606   4.021  11.762 -0.0193 -0.1010 -0.1504
  133loPI   GL1 2117   6.516   3.773  11.517  0.1065 -0.0156 -0.1519
  133loPI   GL2 2118   6.712   3.608  11.347 -0.2294 -0.1879 -0.1796
  133loPI   C1A 2119   6.257   3.968  11.175 -0.2935  0.0057 -0.0184
  133loPI   C2A 2120   6.280   3.959  10.757 -0.0276 -0.0122  0.0662
  133loPI   C3A 2121   6.284   4.079  10.357  0.0100  0.0217 -0.4194
  133loPI   C4A 2122   6.363   4.101   9.939  0.0139  0.1338 -0.3341
  133loPI   C5A 2123   6.395   4.349   9.570  0.3070 -0.1376 -0.0494
  133loPI   C6A 2124   6.393   4.721   9.504  0.1448 -0.0536  0.2724
  133loPI   C1B 2125   6.727   3.777  10.944 -0.0700  0.2037 -0.2735
  133loPI   C2B 2126   6.705   3.808  10.535  0.0458  0.1392 -0.2884
  133loPI   C3B 2127   6.706   3.818  10.074 -0.2469  0.4559 -0.3012
  133loPI   C4B 2128   6.976   3.889   9.639 -0.2291  0.0928  0.1796
  134loPI    C1 2129  16.140  12.967  11.443  0.0640 -0.1609  0.1193
  134loPI    C2 2130  16.023  12.663  11.676  0.2885 -0.1868  0.2013
  134loPI    C3 2131  16.019  13.037  11.818  0.2034 -0.1745  0.1674
  134loPI   PO4 2132  16.089  12.824  11.175  0.0428  0.0124  0.0693
  134loPI   GL1 2133  16.088  13.004  10.889 -0.0534 -0.2946  0.0523
  134loPI   GL2 2134  16.298  12.793  10.723 -0.1054 -0.0919  0.2753
  134loPI   C1A 2135  15.909  12.958  10.464  0.2454  0.0967 -0.0550
  134loPI   C2A 2136  15.502  13.093  10.252 -0.1379 -0.0974 -0.0334
  134loPI   C3A 2137  15.349  13.186   9.883  0.0195  0.2388 -0.1956
  134loPI   C4A 2138  15.234  13.136   9.553  0.1478 -0.0527 -0.3495
  134loPI   C5A 2139  14.944  13.221   9.326  0.2741 -0.0476  0.2172
  134loPI   C6A 2140  14.776  13.307   8.899  0.0276  0.2109  0.4369
  134loPI   C1B 2141  16.404  12.756  10.339 -0.0117 -0.0227  0.3752
  134loPI   C2B 2142  16.332  12.685   9.924  0.4160 -0.2554 -0.1370
  134loPI   C3B 2143  16.107  12.684   9.470  0.1382  0.1479  0.2164
  134loPI   C4B 2144  16.127  12.774   9.013  0.0090 -0.0190 -0.3391
  135loPI    C1 2145   3.663  17.223  11.430  0.3415  0.0576 -0.1297
  135loPI    C2 2146   3.780  17.065  11.778  0.3579 -0.2434 -0.2690
  135loPI    C3 2147   4.017  17.324  11.587  0.3790 -0.1298 -0.0915
  135loPI   PO4 2148   3.548  17.016  11.299 -0.2912  0.1365 -0.0211
  135loPI   GL1 2149   3.599  16.686  11.025  0.0539  0.0873 -0.0167
  135loPI   GL2 2150   3.500  16.388  11.240  0.4059 -0.4113  0.1156
  135loPI   C1A 2151   3.446  16.795  10.674 -0.1367 -0.0565 -0.1225
  135loPI   C2A 2152   3.472  16.760  10.354 -0.1481  0.1613  0.1789
  135loPI   C3A 2153   3.590  16.744   9.944  0.3134 -0.0557  0.1283
  135loPI   C4A 2154   3.660  16.693   9.500 -0.2621  0.1438 -0.1892
  135loPI   C5A 2155   3.770  16.542   9.087  0.1102 -0.2233 -0.2939
  135loPI   C6A 2156   3.612  16.356   8.710 -0.0422 -0.1756  0.3143
  135loPI   C1B 2157   3.590  16.280  10.742  0.1007  0.1399 -0.1317
  135loPI   C2B 2158   3.433  16.290  10.340 -0.4815  0.3166 -0.0068
  135loPI   C3B 2159   3.535  16.266   9.982  0.2451  0.0177 -0.0305
  135loPI   C4B 2160   3.511  16.224   9.495  0.0173 -0.0718 -0.2694
  136loPI    C1 2161  11.776  16.028  12.114 -0.0380  0.2922 -0.1440
  136loPI    C2 2162  12.083  16.184  12.317  0.0584  0.0007 -0.0622
  136loPI    C3 2163  11.722  16.159  12.489  0.0831 -0.0234 -0.0133
  136loPI   PO4 2164  11.882  16.126  11.806 -0.0202 -0.2813  0.2050
  136loPI   GL1 2165  11.775  16.139  11.390 -0.0351 -0.2007  0.0742
  136loPI   GL2 2166  11.941  15.897  11.364  0.0321 -0.0883 -0.1803
  136loPI   C1A 2167  11.806  16.394  11.038 -0.0620  0.1208  0.0339
  136loPI   C2A 2168  11.718  16.460  10.610 -0.0185 -0.0065  0.1630
  136loPI   C3A 2169  11.649  16.518  10.221  0.1907  0.1550 -0.1864
  136loPI   C4A 2170  11.620  16.477   9.714  0.2575 -0.1233 -0.3453
  136loPI   C5A 2171  11.529  16.670   9.223  0.0489  0.1286  0.0174
  136loPI   C6A 2172  11.196  16.438   9.020 -0.2556  0.3450  0.0714
  136loPI   C1B 2173  11.800  15.954  10.918 -0.0534 -0.1162  0.0413
  136loPI   C2B 2174  11.668  15.920  10.473  0.0516  0.2397 -0.3255
  136loPI   C3B 2175  11.598  16.007  10.079  0.1916  0.2194  0.2758
  136loPI   C4B 2176  11.545  16.035   9.578 -0.4034 -0.0189 -0.2357
  137loPI    C1 2177  16.551  15.825  11.243 -0.1712  0.1084  0.0836
  137loPI    C2 2178  16.321  15.593  11.472 -0.0195  0.0384  0.1665
  137loPI    C3 2179  16.716  15.602  11.531  0.0048  0.1212 -0.0058
  137loPI   PO4 2180  16.479  15.760  11.013  0.1530  0.2063  0.0326
  137loPI   GL1 2181  16.569  15.669  10.648  0.0774 -0.1862 -0.0118
  137loPI   GL2 2182  16.556  15.325  10.761 -0.2609 -0.3098  0.3468
  137loPI   C1A 2183  16.674  15.746  10.263  0.0163 -0.2825 -0.0736
  137loPI   C2A 2184  16.630  15.681   9.803  0.3026 -0.3011  0.2008
  137loPI   C3A 2185  16.638  15.684   9.400 -0.1918 -0.0515 -0.0853
  137loPI   C4A 2186  16.613  15.791   9.004  0.1092  0.1909 -0.2628
  137loPI   C5A 2187  16.360  16.091   8.749  0.1006  0.1917  0.0636
  137loPI   C6A 2188  15.988  16.299   8.750  0.0709  0.0275  0.0309
  137loPI   C1B 2189  16.606  15.203  10.282  0.1027  0.0644  0.0485
  137loPI   C2B 2190  16.562  15.191   9.838 -0.0320  0.0311  0.0868
  137loPI   C3B 2191  16.555  15.232   9.354  0.5087  0.0145  0.0220
  137loPI   C4B 2192  16.618  15.146   8.864  0.3676 -0.1659 -0.1061
  138loPI    C1 2193   6.591   3.166  11.748 -0.0385  0.1786  0.0863
  138loPI    C2 2194   6.551   2.815  11.937  0.0996  0.1483  0.0603
  138loPI    C3 2195   6.355   3.137  12.070  0.2254  0.1361  0.2792
  138loPI   PO4 2196   6.560   3.127  11.451  0.2746 -0.0295  0.3226
  138loPI   GL1 2197   6.809   3.122  11.130 -0.1119  0.1490  0.0677
  138loPI   GL2 2198   7.045   2.910  11.158  0.0012 -0.2025 -0.0480
  138loPI   C1A 2199   6.760   3.319  10.709 -0.0518 -0.0835  0.1357
  138loPI   C2A 2200   6.711   3.285  10.310 -0.3807  0.3103  0.3863
  138loPI   C3A 2201   6.745   3.399   9.815  0.1128 -0.3222  0.2035
  138loPI   C4A 2202   6.976   3.201   9.381 -0.3410 -0.2002  0.0221
  138loPI   C5A 2203   6.897   3.151   9.042 -0.0674  0.2849  0.1018
  138loPI   C6A 2204   6.620   2.968   8.812  0.0981 -0.0529  0.0775
  138loPI   C1B 2205   7.169   2.978  10.692  0.0022 -0.0942  0.0637
  138loPI   C2B 2206   7.292   3.042  10.237 -0.3212 -0.3586 -0.0036
  138loPI   C3B 2207   7.276   3.057   9.801 -0.2750 -0.0505 -0.3994
  138loPI   C4B 2208   7.455   3.207   9.459  0.0443  0.0160 -0.1161
  139loPI    C1 2209  14.205  13.057  11.376  0.0851 -0.1476 -0.0438
  139loPI    C2 2210  14.531  13.015  11.604 -0.0901  0.1231  0.2638
  139loPI    C3 2211  14.210  12.785  11.669 -0.0757  0.0767  0.1711
  139loPI   PO4 2212  14.302  13.259  11.172  0.0365  0.0654  0.0876
  139loPI   GL1 2213  14.272  13.331  10.749 -0.0209 -0.2231 -0.0070
  139loPI   GL2 2214  14.592  13.401  10.684  0.0094 -0.1925  0.1873
  139loPI   C1A 2215  14.153  13.628  10.431 -0.1183 -0.2280  0.1736
  139loPI   C2A 2216  13.993  13.685  10.134 -0.0177 -0.1143  0.0241
  139loPI   C3A 2217  14.062  13.782   9.731  0.3265  0.0072 -0.2756
  139loPI   C4A 2218  13.973  13.712   9.347  0.0818  0.2483  0.2730
  139loPI   C5A 2219  13.837  13.453   8.969 -0.1232 -0.1342  0.1615
  139loPI   C6A 2220  13.465  13.372   8.844  0.2054  0.1918 -0.1953
  139loPI   C1B 2221  14.411  13.167  10.272 -0.1555  0.1092  0.1580
  139loPI   C2B 2222  14.193  13.294   9.977 -0.1976  0.1169 -0.1055
  139loPI   C3B 2223  14.049  13.215   9.513  0.1426 -0.2139 -0.0765
  139loPI   C4B 2224  13.707  13.049   9.260 -0.0756  0.0544  0.0609
  140loPI    C1 2225  13.762  11.624  11.177  0.0933 -0.0679 -0.1997
  140loPI    C2 2226  13.796  11.492  11.553  0.1133  0.1281 -0.1315
  140loPI    C3 2227  14.104  11.677  11.377 -0.0109  0.3483 -0.1219
  140loPI   PO4 2228  13.466  11.433  11.117  0.1059  0.0658 -0.1006
  140loPI   GL1 2229  13.132  11.222  10.802 -0.1741  0.1770 -0.0231
  140loPI   GL2 2230  12.954  11.504  10.794 -0.1617  0.0563 -0.0325
  140loPI   C1A 2231  12.894  11.038  10.509  0.1725  0.1027 -0.0732
  140loPI   C2A 2232  12.756  11.007  10.076 -0.2228  0.3768  0.2147
  140loPI   C3A 2233  12.826  10.897   9.752 -0.0964  0.0079  0.1419
  140loPI   C4A 2234  12.929  10.968   9.378  0.1272 -0.2476 -0.1926
  140loPI   C5A 2235  13.048  11.225   9.021 -0.0631  0.3016  0.5536
  140loPI   C6A 2236  12.936  11.467   8.777 -0.2848  0.1652  0.0715
  140loPI   C1B 2237  12.820  11.468  10.333  0.1544  0.2392  0.2533
  140loPI   C2B 2238  12.720  11.486   9.942  0.2411  0.1499 -0.0002
  140loPI   C3B 2239  12.842  11.444   9.458 -0.0762 -0.1748 -0.0798
  140loPI   C4B 2240  12.547  11.519   9.070  0.1416  0.1305 -0.2598
  141loPI    C1 2241   2.656   5.024  11.554  0.2233  0.2774 -0.0298
  141loPI    C2 2242   2.970   4.958  11.792  0.1436  0.1506  0.0414
  141loPI    C3 2243   2.617   5.062  11.950  0.0767  0.0138 -0.0166
  141loPI   PO4 2244   2.789   5.166  11.365 -0.0911  0.3684  0.1676
  141loPI   GL1 2245   2.946   5.238  10.972  0.0018 -0.3816 -0.1840
  141loPI   GL2 2246   3.008   4.964  10.927  0.1960  0.0387  0.0526
  141loPI   C1A 2247   2.833   5.378  10.508 -0.0089  0.3655  0.1636
  141loPI   C2A 2248   2.859   5.420  10.091 -0.1054  0.1486  0.1540
  141loPI   C3A 2249   2.864   5.226   9.705  0.0041 -0.1265  0.0482
  141loPI   C4A 2250   2.823   5.291   9.243 -0.1943  0.2028  0.0672
  141loPI   C5A 2251   2.859   5.343   8.797 -0.0737 -0.0105 -0.1017
  141loPI   C6A 2252   3.174   5.261   8.631 -0.2077 -0.1403  0.2511
  141loPI   C1B 2253   3.301   5.101  10.580  0.1697 -0.1076 -0.1946
  141loPI   C2B 2254   3.220   5.079  10.145  0.4874  0.1020  0.1281
  141loPI   C3B 2255   3.249   4.938   9.714 -0.0065  0.3511  0.2296
  141loPI   C4B 2256   3.283   5.052   9.240  0.3793  0.3965  0.2101
  142loPI    C1 2257   0.065  15.959  11.714  0.2286  0.1718  0.1559
  142loPI    C2 2258   0.156  15.654  11.956 -0.0651 -0.0394  0.0059
  142loPI    C3 2259  -0.210  15.814  11.964  0.0799  0.2973  0.0667
  142loPI   PO4 2260   0.216  16.095  11.667 -0.3273  0.0474 -0.0053
  142loPI   GL1 2261   0.236  16.371  11.310  0.1602 -0.1239  0.0133
  142loPI   GL2 2262   0.372  16.241  11.008  0.2900  0.0955  0.0183
  142loPI   C1A 2263   0.236  16.692  10.927  0.3473  0.2104 -0.0326
  142loPI   C2A 2264   0.252  16.754  10.315 -0.0096  0.1823  0.0757
  142loPI   C3A 2265   0.240  16.711   9.874 -0.2040  0.1729 -0.1105
  142loPI   C4A 2266   0.407  16.715   9.413  0.0984 -0.1739  0.3274
  142loPI   C5A 2267   0.492  16.594   8.955 -0.2073 -0.2860  0.3670
  142loPI   C6A 2268   0.432  16.194   8.719  0.1434  0.0728 -0.1116
  142loPI   C1B 2269   0.310  16.166  10.569  0.0636 -0.3525 -0.1600
  142loPI   C2B 2270   0.291  16.185  10.080  0.0472  0.0629  0.2413
  142loPI   C3B 2271   0.368  16.100   9.673  0.0094  0.0496 -0.1194
  142loPI   C4B 2272   0.268  16.257   9.236 -0.0013 -0.0845 -0.3236
  143loPI    C1 2273  15.893  15.298  11.738 -0.3024  0.0029 -0.0703
  143loPI    C2 2274  15.809  15.092  12.070  0.1721  0.0763  0.1028
  143loPI    C3 2275  16.119  15.345  12.064  0.0600  0.2127 -0.3436
  143loPI   PO4 2276  15.954  15.184  11.512  0.1837 -0.0671 -0.1671
  143loPI   GL1 2277  16.031  15.329  11.037 -0.0204  0.0330 -0.3151
  143loPI   GL2 2278  16.043  15.564  10.828 -0.0033 -0.0155  0.0460
  143loPI   C1A 2279  16.079  15.102  10.713 -0.1085  0.1019 -0.0908
  143loPI   C2A 2280  16.143  15.035  10.219  0.0111 -0.1372  0.3150
  143loPI   C3A 2281  16.144  14.963   9.747 -0.2178  0.1325 -0.1009
  143loPI   C4A 2282  16.050  14.996   9.359  0.1171 -0.2080 -0.2311
  143loPI   C5A 2283  15.927  14.905   8.864  0.1198  0.1535 -0.0121
  143loPI   C6A 2284  15.641  14.554   8.746 -0.1273 -0.0972 -0.4617
  143loPI   C1B 2285  16.169  15.462  10.448  0.1284  0.2711  0.0375
  143loPI   C2B 2286  16.274  15.512  10.051  0.1006 -0.2449 -0.1076
  143loPI   C3B 2287  16.175  15.472   9.554  0.0960 -0.2589  0.2597
  143loPI   C4B 2288  16.044  15.383   9.069  0.2019 -0.1608 -0.0566
  144loPI    C1 2289  11.571   2.538  12.019  0.0863  0.0566  0.0453
  144loPI    C2 2290  11.538   2.311  12.347 -0.0292  0.0215  0.0096
  144loPI    C3 2291  11.709   2.672  12.370  0.0948 -0.0411  0.0795
  144loPI   PO4 2292  11.632   2.327  11.771  0.0358  0.2089  0.0605
  144loPI   GL1 2293  11.671   2.361  11.335 -0.0179 -0.1927 -0.2400
  144loPI   GL2 2294  11.947   2.432  11.422  0.3846 -0.1046 -0.0366
  144loPI   C1A 2295  11.673   2.409  10.952 -0.3114 -0.1058  0.0306
  144loPI   C2A 2296  11.859   2.386  10.468  0.0602 -0.1711  0.0439
  144loPI   C3A 2297  11.718   2.336  10.007  0.2664  0.0472 -0.0727
  144loPI   C4A 2298  11.742   2.444   9.577  0.0120 -0.0556  0.1512
  144loPI   C5A 2299  11.738   2.205   9.212  0.0918  0.2776 -0.0237
  144loPI   C6A 2300  11.795   2.193   8.850  0.3477 -0.1263 -0.0329
  144loPI   C1B 2301  12.124   2.229  11.022  0.1552  0.1025  0.1079
  144loPI   C2B 2302  12.336   2.201  10.542 -0.0141 -0.0054  0.0454
  144loPI   C3B 2303  12.207   2.105  10.155 -0.1311  0.0574 -0.4075
  144loPI   C4B 2304  12.111   2.083   9.746  0.0295  0.3342  0.2501
  145loPI    C1 2305   5.754   8.488  11.780 -0.1162  0.0684 -0.0628
  145loPI    C2 2306   6.085   8.266  11.750 -0.2938 -0.1902 -0.1486
  145loPI    C3 2307   5.993   8.444  12.097  0.2175  0.3408 -0.2698
  145loPI   PO4 2308   5.740   8.555  11.488 -0.2850  0.1190 -0.3226
  145loPI   GL1 2309   5.742   8.466  11.105 -0.2538 -0.2068  0.0195
  145loPI   GL2 2310   5.550   8.210  10.964  0.0954 -0.1992 -0.1600
  145loPI   C1A 2311   5.799   8.804  10.790 -0.1325 -0.2863  0.1363
  145loPI   C2A 2312   5.705   8.857  10.382  0.0454 -0.0181  0.3747
  145loPI   C3A 2313   5.671   8.899  10.022 -0.0783  0.5002 -0.1177
  145loPI   C4A 2314   5.651   8.756   9.621  0.1683 -0.2647 -0.0845
  145loPI   C5A 2315   5.899   8.722   9.260 -0.3085  0.0731  0.0695
  145loPI   C6A 2316   5.836   8.577   8.857  0.0051 -0.1121  0.0879
  145loPI   C1B 2317   5.728   8.316  10.531  0.1719  0.0542 -0.0972
  145loPI   C2B 2318   5.674   8.373  10.139 -0.0208  0.0030  0.0338
  145loPI   C3B 2319   5.651   8.276   9.754 -0.4452 -0.4966  0.1903
  145loPI   C4B 2320   5.529   8.384   9.302 -0.3876  0.0745 -0.0332
  146loPI    C1 2321  10.791  14.092  11.857 -0.2922  0.0441 -0.0011
  146loPI    C2 2322  10.824  13.913  12.213  0.0997  0.1677  0.0293
  146loPI    C3 2323  10.599  14.241  12.174 -0.0359  0.0885  0.1356
  146loPI   PO4 2324  10.869  13.894  11.709  0.4918 -0.1918 -0.1679
  146loPI   GL1 2325  10.872  13.819  11.301 -0.3666 -0.1450 -0.0275
  146loPI   GL2 2326  10.968  13.600  11.142 -0.0463 -0.2371  0.0441
  146loPI   C1A 2327  10.598  13.952  10.946 -0.0000 -0.1545  0.3519
  146loPI   C2A 2328  10.478  13.890  10.550 -0.2139  0.1359 -0.1319
  146loPI   C3A 2329  10.528  13.959  10.193 -0.1283  0.1228  0.2098
  146loPI   C4A 2330  10.599  13.945   9.766  0.0302 -0.1160  0.0625
  146loPI   C5A 2331  10.777  13.949   9.403  0.0421 -0.1236  0.0755
  146loPI   C6A 2332  10.857  14.143   8.992  0.1390  0.0261 -0.1758
  146loPI   C1B 2333  10.962  13.664  10.665 -0.3774 -0.0649 -0.1384
  146loPI   C2B 2334  10.950  13.713  10.241 -0.0636  0.3112  0.1047
  146loPI   C3B 2335  11.086  13.626   9.771  0.0451  0.0587  0.1407
  146loPI   C4B 2336  10.918  13.504   9.397  0.0771 -0.1454 -0.2480
  147loPI    C1 2337   5.502  13.374  11.907 -0.1832  0.0970  0.1585
  147loPI    C2 2338   5.810  13.206  12.100  0.0686  0.1538 -0.1842
  147loPI    C3 2339   5.447  13.037  12.115  0.1092  0.0943  0.2361
  147loPI   PO4 2340   5.555  13.429  11.674 -0.2750 -0.0224  0.0077
  147loPI   GL1 2341   5.293  13.578  11.341 -0.1095  0.2461 -0.1152
  147loPI   GL2 2342   4.971  13.724  11.298  0.1419  0.1519 -0.4125
  147loPI   C1A 2343   5.578  13.426  10.915  0.0755 -0.3832  0.0388
  147loPI   C2A 2344   5.468  13.398  10.547 -0.0293  0.1897  0.0159
  147loPI   C3A 2345   5.534  13.327  10.049 -0.0863  0.1015 -0.0436
  147loPI   C4A 2346   5.520  13.207   9.586  0.1481  0.3022 -0.3183
  147loPI   C5A 2347   5.386  13.214   9.188  0.1116 -0.1757  0.0460
  147loPI   C6A 2348   5.114  12.972   9.002  0.0704 -0.0471  0.4554
  147loPI   C1B 2349   5.068  13.696  10.920 -0.2685 -0.2939  0.1935
  147loPI   C2B 2350   5.045  13.668  10.582 -0.2159 -0.0020 -0.2071
  147loPI   C3B 2351   5.155  13.634  10.099 -0.1660  0.1251  0.0973
  147loPI   C4B 2352   5.189  13.629   9.619  0.0208 -0.2202 -0.0825
  148loPI    C1 2353  15.147  16.008  11.601 -0.0610 -0.1961 -0.1915
  148loPI    C2 2354  15.142  15.659  11.795  0.1163  0.0239  0.2227
  148loPI    C3 2355  15.489  15.816  11.675  0.0177 -0.0506 -0.1736
  148loPI   PO4 2356  14.992  16.050  11.395 -0.3308 -0.2562  0.3083
  148loPI   GL1 2357  14.866  16.296  11.081  0.2621  0.0051  0.0680
  148loPI   GL2 2358  15.205  16.229  10.970  0.1476 -0.0618  0.2485
  148loPI   C1A 2359  14.772  16.155  10.640  0.1412  0.0923 -0.5809
  148loPI   C2A 2360  14.800  16.102  10.307  0.1732  0.0206  0.1636
  148loPI   C3A 2361  14.835  16.098   9.969 -0.0370  0.0650 -0.1068
  148loPI   C4A 2362  14.795  16.020   9.536 -0.2821  0.1424  0.2964
  148loPI   C5A 2363  14.883  15.994   9.045  0.3772 -0.0301  0.0402
  148loPI   C6A 2364  14.933  16.320   8.853 -0.1789  0.0947 -0.1304
  148loPI   C1B 2365  15.197  16.310  10.524 -0.2806 -0.2009  0.1141
  148loPI   C2B 2366  15.226  16.373  10.084 -0.1542  0.0314 -0.0961
  148loPI   C3B 2367  15.208  16.290   9.596  0.0881  0.0331 -0.3327
  148loPI   C4B 2368  15.317  16.170   9.194  0.3523  0.2359  0.0667
  149loPI    C1 2369   1.613  17.094  11.790  0.0141  0.1794 -0.1321
  149loPI    C2 2370   1.625  17.334  12.109 -0.1219  0.0597 -0.0354
  149loPI    C3 2371   1.746  16.954  12.141 -0.0729  0.0658 -0.1437
  149loPI   PO4 2372   1.715  17.193  11.612 -0.2397 -0.1190  0.0912
  149loPI   GL1 2373   1.484  17.286  11.195  0.0162  0.1557  0.0299
  149loPI   GL2 2374   1.627  17.036  11.072  0.1092 -0.2931 -0.1729
  149loPI   C1A 2375   1.580  17.391  10.741 -0.0804 -0.0381 -0.2620
  149loPI   C2A 2376   1.635  17.343  10.380  0.0295 -0.1858 -0.0282
  149loPI   C3A 2377   1.648  17.409   9.921  0.0687  0.1113  0.1764
  149loPI   C4A 2378   1.785  17.257   9.555  0.2145  0.0235 -0.0849
  149loPI   C5A 2379   1.884  17.336   9.079 -0.1871 -0.2378  0.2677
  149loPI   C6A 2380   1.658  17.684   8.847  0.2986  0.1141  0.0093
  149loPI   C1B 2381   1.636  16.889  10.696  0.2266 -0.1800  0.0844
  149loPI   C2B 2382   1.585  16.916  10.191 -0.0297  0.3961 -0.0091
  149loPI   C3B 2383   1.742  16.814   9.818  0.1010 -0.2410  0.0798
  149loPI   C4B 2384   1.789  16.785   9.334  0.1728 -0.1408 -0.1156
  150loPI    C1 2385  12.102  15.433  11.820  0.2001 -0.1311  0.2195
  150loPI    C2 2386  12.049  15.039  11.772  0.0937 -0.0775 -0.1332
  150loPI    C3 2387  11.938  15.215  12.113  0.0875 -0.3422  0.0040
  150loPI   PO4 2388  12.044  15.555  11.664  0.2532  0.0034 -0.1233
  150loPI   GL1 2389  11.901  15.418  11.344  0.2041 -0.1633 -0.2692
  150loPI   GL2 2390  11.677  15.197  11.190  0.0254  0.0365  0.1219
  150loPI   C1A 2391  12.109  15.490  10.920  0.0762  0.0382  0.0771
  150loPI   C2A 2392  12.018  15.523  10.463 -0.0609  0.1579  0.3100
  150loPI   C3A 2393  12.072  15.707  10.072  0.0375 -0.1619 -0.1070
  150loPI   C4A 2394  12.035  15.765   9.670  0.2084  0.0572 -0.1268
  150loPI   C5A 2395  12.042  15.664   9.262  0.1838  0.0652 -0.0721
  150loPI   C6A 2396  11.820  15.562   8.851  0.2218 -0.0311  0.2212
  150loPI   C1B 2397  11.610  15.416  10.742 -0.0799 -0.1752  0.1381
  150loPI   C2B 2398  11.549  15.499  10.283  0.0532  0.3738  0.1110
  150loPI   C3B 2399  11.586  15.578   9.796  0.0251  0.2416  0.1449
  150loPI   C4B 2400  11.537  15.525   9.324  0.0892 -0.1222  0.0611
  151loPI    C1 2401   7.429   4.645  12.177  0.2788 -0.1604  0.1029
  151loPI    C2 2402   7.707   4.900  12.043  0.0602  0.0505  0.0439
  151loPI    C3 2403   7.430   5.024  12.304 -0.1592 -0.0764 -0.1253
  151loPI   PO4 2404   7.393   4.486  11.919  0.0064  0.0258 -0.2961
  151loPI   GL1 2405   7.638   4.628  11.526  0.1812  0.1263 -0.1728
  151loPI   GL2 2406   7.632   4.258  11.450 -0.1855 -0.2308  0.0452
  151loPI   C1A 2407   7.803   4.821  11.205 -0.0564 -0.2706 -0.2599
  151loPI   C2A 2408   7.708   4.858  10.750  0.1648 -0.1185 -0.2949
  151loPI   C3A 2409   7.694   4.919  10.282 -0.0548 -0.1487 -0.1680
  151loPI   C4A 2410   7.742   4.835   9.895  0.0252  0.2628 -0.0533
  151loPI   C5A 2411   7.654   4.661   9.387  0.1041  0.2656  0.0347
  151loPI   C6A 2412   7.587   4.732   8.902  0.2889 -0.2852 -0.3536
  151loPI   C1B 2413   7.642   4.342  11.077  0.0488  0.2140  0.3652
  151loPI   C2B 2414   7.687   4.358  10.653  0.0772 -0.3033  0.2364
  151loPI   C3B 2415   7.707   4.409  10.202  0.0372  0.1077 -0.0899
  151loPI   C4B 2416   7.872   4.385   9.743  0.2060  0.0211  0.0564
  152loPI    C1 2417  17.033   8.444  11.661  0.0688  0.0049 -0.2414
  152loPI    C2 2418  16.721   8.664  11.783 -0.0092 -0.1787 -0.1039
  152loPI    C3 2419  17.090   8.752  11.910 -0.0237 -0.0527 -0.1476
  152loPI   PO4 2420  17.069   8.425  11.343  0.1993  0.1190 -0.0238
  152loPI   GL1 2421  16.987   8.425  10.842 -0.3167 -0.4281 -0.1231
  152loPI   GL2 2422  16.812   8.535  10.607  0.0857  0.2632  0.2712
  152loPI   C1A 2423  17.017   8.066  10.491  0.0350  0.0171 -0.2261
  152loPI   C2A 2424  16.986   7.941  10.098  0.0846  0.0267 -0.1331
  152loPI   C3A 2425  17.032   8.013   9.678 -0.3485 -0.1164 -0.0994
  152loPI   C4A 2426  17.067   7.994   9.312 -0.3032  0.4458  0.0885
  152loPI   C5A 2427  16.978   7.787   8.981 -0.3736  0.1919 -0.0525
  152loPI   C6A 2428  16.770   7.682   8.581  0.0488  0.1566 -0.0115
  152loPI   C1B 2429  16.816   8.400  10.222 -0.2066 -0.0079  0.0062
  152loPI   C2B 2430  16.852   8.442   9.812 -0.1401  0.0648 -0.2474
  152loPI   C3B 2431  16.952   8.488   9.415  0.0593 -0.1655 -0.0713
  152loPI   C4B 2432  17.014   8.407   9.009  0.1976  0.2809 -0.1545
  153loPI    C1 2433   0.851  11.519  11.406 -0.1377 -0.0365  0.0478
  153loPI    C2 2434   1.075  11.789  11.598 -0.0609 -0.1008  0.0492
  153loPI    C3 2435   1.118  11.400  11.679 -0.1827 -0.1124  0.0588
  153loPI   PO4 2436   0.909  11.585  11.137  0.0226  0.3726 -0.0426
  153loPI   GL1 2437   0.819  11.383  10.839 -0.0988  0.0794  0.3516
  153loPI   GL2 2438   0.669  11.445  10.666 -0.0624  0.2244 -0.0222
  153loPI   C1A 2439   1.230  11.116  10.518 -0.0555 -0.1041 -0.1282
  153loPI   C2A 2440   1.296  11.117  10.076  0.0267 -0.3399  0.0766
  153loPI   C3A 2441   1.371  11.085   9.563 -0.1086 -0.2376  0.0615
  153loPI   C4A 2442   1.518  11.143   9.219  0.0273  0.0247 -0.3314
  153loPI   C5A 2443   1.423  11.452   8.794  0.0769  0.2839 -0.0257
  153loPI   C6A 2444   1.406  11.778   8.509 -0.0320 -0.2495  0.4109
  153loPI   C1B 2445   0.889  11.438  10.299 -0.4169 -0.2946 -0.0674
  153loPI   C2B 2446   0.821  11.428   9.790 -0.2962 -0.1506  0.0191
  153loPI   C3B 2447   0.992  11.406   9.411 -0.3440  0.0820 -0.0911
  153loPI   C4B 2448   0.957  11.330   8.967 -0.0238 -0.0007 -0.0586
  154loPI    C1 2449   8.535   1.345  12.317 -0.0062  0.3467  0.0353
  154loPI    C2 2450   8.252   1.246  12.582  0.0219  0.2136  0.0161
  154loPI    C3 2451   8.604   1.385  12.709  0.1401 -0.1191  0.0631
  154loPI   PO4 2452   8.434   1.336  12.019 -0.1236  0.3907  0.1611
  154loPI   GL1 2453   8.412   1.305  11.536 -0.1453 -0.1870  0.0679
  154loPI   GL2 2454   8.677   1.375  11.558 -0.0703  0.2670 -0.1483
  154loPI   C1A 2455   8.557   1.024  11.207  0.1226  0.0898 -0.0480
  154loPI   C2A 2456   8.636   1.162  10.788 -0.0918  0.3898  0.1279
  154loPI   C3A 2457   8.595   1.188  10.391  0.0751  0.1676 -0.2415
  154loPI   C4A 2458   8.557   1.094  10.076 -0.1168 -0.0974  0.2208
  154loPI   C5A 2459   8.602   1.201   9.654 -0.0568 -0.2589  0.1419
  154loPI   C6A 2460   8.548   1.404   9.293 -0.0033 -0.0366  0.0446
  154loPI   C1B 2461   8.591   1.563  11.163  0.0187 -0.2293  0.0609
  154loPI   C2B 2462   8.644   1.625  10.707 -0.0113  0.0197 -0.4682
  154loPI   C3B 2463   8.680   1.636  10.182 -0.1964  0.1703  0.2478
  154loPI   C4B 2464   8.573   1.680   9.798  0.0336 -0.3480 -0.0974
  155loPI    C1 2465   2.822   4.404  11.393 -0.1421 -0.2464  0.0509
  155loPI    C2 2466   2.688   4.575  11.729 -0.2434 -0.1390 -0.0433
  155loPI    C3 2467   3.068   4.454  11.704 -0.0956  0.3140 -0.0658
  155loPI   PO4 2468   2.710   4.649  11.197 -0.3311 -0.0462  0.0946
  155loPI   GL1 2469   2.568   4.608  10.818  0.1244 -0.2322 -0.1499
  155loPI   GL2 2470   2.633   4.862  10.663 -0.0255 -0.0835  0.0744
  155loPI   C1A 2471   2.655   4.311  10.504 -0.0985 -0.1397  0.4551
  155loPI   C2A 2472   2.660   4.204  10.039 -0.1955 -0.1721 -0.1651
  155loPI   C3A 2473   2.754   4.249   9.676  0.1396 -0.1225 -0.0983
  155loPI   C4A 2474   2.770   4.148   9.300  0.1076 -0.1653  0.3542
  155loPI   C5A 2475   2.839   4.139   8.880  0.0355  0.0672  0.1847
  155loPI   C6A 2476   2.868   4.358   8.629  0.2605 -0.0301 -0.0979
  155loPI   C1B 2477   2.760   4.866  10.278  0.1068  0.0367  0.0424
  155loPI   C2B 2478   2.775   4.720   9.854 -0.1222  0.2381  0.1930
  155loPI   C3B 2479   2.899   4.776   9.438  0.0222  0.3337 -0.0294
  155loPI   C4B 2480   2.970   4.605   9.073 -0.0943  0.2138 -0.0079
  156loPI    C1 2481   8.794  10.994  11.895 -0.0019  0.1418  0.0283
  156loPI    C2 2482   8.638  10.746  12.167  0.0023 -0.0179 -0.1135
  156loPI    C3 2483   8.567  11.138  12.191  0.0805 -0.0186  0.1720
  156loPI   PO4 2484   8.785  10.921  11.710 -0.3461 -0.1039  0.0057
  156loPI   GL1 2485   8.714  10.700  11.369 -0.1159  0.0466  0.2495
  156loPI   GL2 2486   8.497  10.444  11.304  0.0079  0.2531  0.1388
  156loPI   C1A 2487   8.520  10.799  10.864  0.1049  0.0481  0.1532
  156loPI   C2A 2488   8.512  10.832  10.384 -0.3751 -0.1360 -0.1159
  156loPI   C3A 2489   8.525  10.843   9.973  0.2280 -0.2096 -0.0254
  156loPI   C4A 2490   8.570  10.803   9.546 -0.0611 -0.0542  0.0001
  156loPI   C5A 2491   8.676  10.740   9.190 -0.1703  0.3956 -0.2828
  156loPI   C6A 2492   8.314  10.636   8.989 -0.1091  0.0538 -0.0546
  156loPI   C1B 2493   8.487  10.319  10.903 -0.0780 -0.0391  0.0938
  156loPI   C2B 2494   8.512  10.360  10.441  0.1894  0.0095 -0.2153
  156loPI   C3B 2495   8.514  10.336   9.974  0.0826  0.1171  0.0016
  156loPI   C4B 2496   8.484  10.294   9.453 -0.1345  0.0964  0.0529
  157loPI    C1 2497   4.257   5.728  11.765 -0.1702 -0.0612  0.0562
  157loPI    C2 2498   4.607   5.576  11.888 -0.1262 -0.1295 -0.1493
  157loPI    C3 2499   4.373   5.773  12.145  0.0130 -0.1777  0.0161
  157loPI   PO4 2500   4.273   5.578  11.509  0.2700 -0.3129 -0.0471
  157loPI   GL1 2501   4.218   5.405  11.165 -0.0045  0.0510 -0.1736
  157loPI   GL2 2502   4.016   5.099  11.221  0.1119  0.0284 -0.0143
  157loPI   C1A 2503   4.168   5.524  10.707 -0.0605  0.0181  0.0233
  157loPI   C2A 2504   4.091   5.380  10.357 -0.2364  0.1904 -0.2105
  157loPI   C3A 2505   4.088   5.446   9.952 -0.0647 -0.2522  0.1060
  157loPI   C4A 2506   4.176   5.555   9.610  0.1615 -0.3692  0.0518
  157loPI   C5A 2507   4.445   5.563   9.214  0.1664 -0.2045  0.1360
  157loPI   C6A 2508   4.781   5.623   8.989  0.2701 -0.1015 -0.0220
  157loPI   C1B 2509   4.184   5.006  10.860 -0.0316 -0.1343  0.1320
  157loPI   C2B 2510   4.235   4.856  10.426  0.3082 -0.0343 -0.0041
  157loPI   C3B 2511   4.135   4.955  10.024  0.3965 -0.0388  0.3553
  157loPI   C4B 2512   4.131   4.991   9.651  0.1463  0.0465  0.0858
  158loPI    C1 2513   7.051   3.670  11.797  0.2387  0.1201 -0.1290
  158loPI    C2 2514   7.313   3.609  12.092  0.0003 -0.1317  0.0351
  158loPI    C3 2515   7.005   3.858  12.147  0.1885  0.1465 -0.1495
  158loPI   PO4 2516   7.237   3.708  11.586 -0.0521  0.3313  0.0884
  158loPI   GL1 2517   7.584   3.702  11.339  0.0084  0.1090 -0.1119
  158loPI   GL2 2518   7.509   3.352  11.363  0.1084 -0.0641  0.0878
  158loPI   C1A 2519   7.658   3.881  10.928 -0.2440  0.0684  0.0937
  158loPI   C2A 2520   7.645   3.928  10.474 -0.0235 -0.0667 -0.1080
  158loPI   C3A 2521   7.749   3.888  10.039 -0.0770 -0.0056 -0.1530
  158loPI   C4A 2522   7.822   3.928   9.591  0.0888 -0.4643  0.0554
  158loPI   C5A 2523   7.929   4.080   9.214 -0.0420  0.1766 -0.2027
  158loPI   C6A 2524   8.338   4.102   8.969 -0.1217  0.0455 -0.1212
  158loPI   C1B 2525   7.541   3.185  11.018 -0.0919 -0.0959  0.1020
  158loPI   C2B 2526   7.672   3.173  10.508  0.0429  0.0990 -0.0420
  158loPI   C3B 2527   7.783   3.326  10.085 -0.0705 -0.0556  0.3203
  158loPI   C4B 2528   7.875   3.383   9.655  0.0618  0.1730 -0.1171
  159loPI    C1 2529  14.453   0.559  11.818 -0.0205 -0.1146  0.0454
  159loPI    C2 2530  14.386   0.327  12.137 -0.0399  0.0742  0.1806
  159loPI    C3 2531  14.533   0.696  12.185  0.2133  0.0062 -0.0488
  159loPI   PO4 2532  14.627   0.316  11.617 -0.1464  0.1289  0.1119
  159loPI   GL1 2533  14.471  -0.058  11.294  0.3292  0.3744 -0.3681
  159loPI   GL2 2534  14.211  -0.060  11.271  0.1978  0.0582 -0.3114
  159loPI   C1A 2535  14.529  -0.232  10.884 -0.0289 -0.2020 -0.1749
  159loPI   C2A 2536  14.419  -0.276  10.441  0.0433 -0.0071 -0.0039
  159loPI   C3A 2537  14.403  -0.397   9.989  0.1875  0.0214 -0.2662
  159loPI   C4A 2538  14.336  -0.437   9.550 -0.1287  0.1446 -0.2861
  159loPI   C5A 2539  14.229  -0.315   9.146  0.0632  0.2861 -0.1401
  159loPI   C6A 2540  13.947  -0.339   8.708 -0.0956  0.1686  0.2205
  159loPI   C1B 2541  14.019   0.108  10.916  0.1919 -0.1676 -0.0405
  159loPI   C2B 2542  14.051   0.055  10.509 -0.0502  0.2811 -0.1014
  159loPI   C3B 2543  14.005  -0.117  10.087  0.1784 -0.1063 -0.0231
  159loPI   C4B 2544  13.949  -0.163   9.707 -0.0270  0.0258  0.0799
  160loPI    C1 2545  15.568  12.307  11.029  0.1922  0.0737  0.1201
  160loPI    C2 2546  15.529  12.540  11.352 -0.0437  0.0595  0.1039
  160loPI    C3 2547  15.540  12.142  11.392 -0.0981  0.0568  0.0921
  160loPI   PO4 2548  15.703  12.510  10.901 -0.3373  0.1527 -0.0950
  160loPI   GL1 2549  15.889  12.483  10.511  0.0025 -0.1018 -0.1120
  160loPI   GL2 2550  16.208  12.298  10.473 -0.0592  0.0936  0.0457
  160loPI   C1A 2551  15.615  12.530  10.212 -0.0963  0.2090 -0.0871
  160loPI   C2A 2552  15.661  12.466   9.823  0.0043 -0.0903  0.2269
  160loPI   C3A 2553  15.795  12.313   9.350  0.1155 -0.2414  0.0098
  160loPI   C4A 2554  16.256  12.281   9.121  0.1814  0.0636  0.3666
  160loPI   C5A 2555  16.451  12.471   8.816  0.0455  0.0963  0.1418
  160loPI   C6A 2556  16.519  12.539   8.436  0.0073 -0.1682  0.1310
  160loPI   C1B 2557  16.222  12.220   9.963  0.0156 -0.2815 -0.1262
  160loPI   C2B 2558  16.219  12.039   9.562 -0.0646  0.0437 -0.1780
  160loPI   C3B 2559  15.974  11.887   9.242 -0.0447 -0.1358 -0.0611
  160loPI   C4B 2560  15.890  11.716   8.832 -0.2412  0.1709 -0.3994
  161loPI    C1 2561   4.367   2.697  11.385 -0.1201  0.2794 -0.0404
  161loPI    C2 2562   4.486   2.469  11.691 -0.0304  0.0899 -0.2135
  161loPI    C3 2563   4.330   2.832  11.759  0.1369  0.1152  0.0465
  161loPI   PO4 2564   4.407   2.523  11.209  0.1339  0.1268 -0.1713
  161loPI   GL1 2565   4.592   2.132  11.013  0.0004  0.3236 -0.1544
  161loPI   GL2 2566   4.745   2.338  10.864  0.1034 -0.0578 -0.1184
  161loPI   C1A 2567   4.431   1.993  10.567 -0.0245 -0.1972  0.0666
  161loPI   C2A 2568   4.586   2.039  10.207 -0.1914  0.1371  0.0158
  161loPI   C3A 2569   4.526   2.017   9.735  0.4026 -0.0888  0.3552
  161loPI   C4A 2570   4.456   2.014   9.299 -0.2131  0.4300  0.0708
  161loPI   C5A 2571   4.549   1.957   8.956 -0.1015  0.1613  0.0479
  161loPI   C6A 2572   4.970   2.092   8.670 -0.2151  0.0153  0.3143
  161loPI   C1B 2573   4.957   2.255  10.490 -0.0996  0.0717 -0.2012
  161loPI   C2B 2574   5.039   2.242  10.056 -0.0237  0.0016  0.1085
  161loPI   C3B 2575   4.987   2.256   9.657 -0.2857 -0.2969  0.1758
  161loPI   C4B 2576   5.021   2.196   9.210 -0.2726 -0.2809  0.1347
  162loPI    C1 2577   3.563   2.535  11.621  0.2009 -0.1324  0.0065
  162loPI    C2 2578   3.725   2.747  11.919  0.1705  0.1635 -0.1827
  162loPI    C3 2579   3.932   2.450  11.749  0.2188  0.0460  0.0770
  162loPI   PO4 2580   3.510   2.727  11.388 -0.1612 -0.1150 -0.0377
  162loPI   GL1 2581   3.550   3.000  11.086 -0.3375 -0.1971 -0.2498
  162loPI   GL2 2582   3.565   2.674  10.884  0.0971  0.3693  0.1036
  162loPI   C1A 2583   3.469   3.142  10.649 -0.1607 -0.1629 -0.0286
  162loPI   C2A 2584   3.496   3.199  10.230 -0.1822  0.2923 -0.0858
  162loPI   C3A 2585   3.535   3.225   9.812 -0.0076 -0.1262 -0.0677
  162loPI   C4A 2586   3.643   3.087   9.388 -0.1941 -0.1135  0.0244
  162loPI   C5A 2587   3.714   3.233   8.881  0.2849  0.0769 -0.2374
  162loPI   C6A 2588   3.684   3.633   8.785  0.0254  0.0176  0.0905
  162loPI   C1B 2589   3.557   2.576  10.506  0.1595 -0.1090  0.1630
  162loPI   C2B 2590   3.544   2.672  10.060  0.2032 -0.1513 -0.0002
  162loPI   C3B 2591   3.598   2.702   9.692  0.0274  0.0358  0.0172
  162loPI   C4B 2592   3.658   2.531   9.332  0.0132 -0.1869  0.3540
  163loPI    C1 2593   6.873  11.487  12.218 -0.0635 -0.2897 -0.3131
  163loPI    C2 2594   6.506  11.540  12.366  0.0778  0.0100 -0.0577
  163loPI    C3 2595   6.730  11.234  12.492 -0.0236 -0.0803 -0.0954
  163loPI   PO4 2596   6.907  11.481  11.903 -0.3318 -0.2045 -0.0532
  163loPI   GL1 2597   7.075  11.336  11.464  0.0325 -0.1145  0.1100
  163loPI   GL2 2598   6.758  11.260  11.412  0.0976  0.2228  0.2433
  163loPI   C1A 2599   7.242  11.250  11.000 -0.2165 -0.2223  0.0416
  163loPI   C2A 2600   7.205  11.236  10.642  0.3367 -0.4192 -0.1207
  163loPI   C3A 2601   7.301  11.089  10.178  0.2271  0.0578 -0.1548
  163loPI   C4A 2602   7.207  11.090   9.830 -0.2479 -0.2425  0.1250
  163loPI   C5A 2603   7.130  11.113   9.409  0.2761  0.1892  0.1418
  163loPI   C6A 2604   6.891  11.423   9.129  0.2066 -0.0163  0.2854
  163loPI   C1B 2605   6.803  11.502  10.933 -0.2449 -0.1937  0.0839
  163loPI   C2B 2606   6.745  11.507  10.578  0.1575 -0.2643 -0.0096
  163loPI   C3B 2607   6.787  11.488  10.139 -0.3808  0.0590  0.0409
  163loPI   C4B 2608   6.734  11.419   9.658 -0.0608 -0.0707  0.0273
  164loPI    C1 2609   7.705   0.543  11.958 -0.0682  0.0625 -0.0911
  164loPI    C2 2610   7.536   0.876  11.815 -0.2290  0.0363  0.0352
  164loPI    C3 2611   7.383   0.698  12.139  0.0458  0.0156  0.1561
  164loPI   PO4 2612   8.036   0.627  11.768  0.3338  0.0320 -0.0438
  164loPI   GL1 2613   8.266   0.511  11.391 -0.1497  0.0312  0.0926
  164loPI   GL2 2614   8.309   0.183  11.336  0.1153 -0.0335 -0.0286
  164loPI   C1A 2615   8.209   0.458  10.977 -0.3637  0.0616 -0.3251
  164loPI   C2A 2616   8.127   0.364  10.505 -0.1377  0.0689 -0.0232
  164loPI   C3A 2617   8.095   0.465  10.068 -0.1208 -0.0552 -0.1115
  164loPI   C4A 2618   8.116   0.428   9.598  0.0519 -0.0471 -0.2987
  164loPI   C5A 2619   8.150   0.155   9.239  0.4400  0.1410  0.1328
  164loPI   C6A 2620   8.117  -0.241   9.146  0.1552  0.1303 -0.4168
  164loPI   C1B 2621   8.129  -0.040  10.963  0.0310 -0.2281  0.0405
  164loPI   C2B 2622   8.067  -0.129  10.534 -0.1683 -0.1580 -0.5078
  164loPI   C3B 2623   8.102  -0.091  10.161  0.2508  0.5486 -0.3629
  164loPI   C4B 2624   8.085  -0.115   9.681 -0.0816  0.0629  0.1849
  165loPI    C1 2625  12.084   3.480  11.939  0.1770 -0.1807 -0.1174
  165loPI    C2 2626  12.289   3.812  12.025 -0.0656 -0.0421 -0.0638
  165loPI    C3 2627  12.330   3.486  12.254  0.0395  0.0068 -0.0122
  165loPI   PO4 2628  11.808   3.594  11.851 -0.0093 -0.2635 -0.0042
  165loPI   GL1 2629  11.575   3.628  11.529 -0.1685 -0.2830  0.0204
  165loPI   GL2 2630  11.859   3.749  11.387  0.0180  0.0099 -0.2725
  165loPI   C1A 2631  11.632   3.424  11.079 -0.1631  0.1146 -0.0351
  165loPI   C2A 2632  11.728   3.362  10.562  0.0527  0.0995 -0.2213
  165loPI   C3A 2633  11.710   3.399  10.100  0.0994 -0.1322 -0.1693
  165loPI   C4A 2634  11.718   3.427   9.692 -0.0198 -0.2109 -0.0147
  165loPI   C5A 2635  11.528   3.484   9.365  0.1045 -0.0030  0.0474
  165loPI   C6A 2636  11.111   3.535   9.187 -0.3683 -0.3812  0.2225
  165loPI   C1B 2637  11.563   3.927  11.090 -0.0011 -0.1113 -0.2487
  165loPI   C2B 2638  11.470   3.783  10.675  0.0465 -0.0268 -0.1610
  165loPI   C3B 2639  11.415   3.777  10.233 -0.3573  0.1761  0.1139
  165loPI   C4B 2640  11.357   3.692   9.866 -0.2228 -0.1534 -0.0199
  166loPI    C1 2641   1.464   6.269  11.434  0.2520  0.3131 -0.0262
  166loPI    C2 2642   1.491   6.580  11.684 -0.1100  0.1685  0.2018
  166loPI    C3 2643   1.377   6.222  11.822  0.1754 -0.0376 -0.0822
  166loPI   PO4 2644   1.650   6.253  11.269  0.2059 -0.2587 -0.0637
  166loPI   GL1 2645   1.812   6.311  10.928  0.1152 -0.2756  0.0995
  166loPI   GL2 2646   1.598   6.515  10.802  0.2148  0.4675 -0.1093
  166loPI   C1A 2647   2.020   6.505  10.530 -0.1214 -0.0713  0.1922
  166loPI   C2A 2648   2.024   6.534  10.098  0.1829 -0.1102  0.2214
  166loPI   C3A 2649   2.042   6.515   9.667 -0.0235  0.1262  0.0564
  166loPI   C4A 2650   1.966   6.338   9.238  0.0307 -0.2743  0.0435
  166loPI   C5A 2651   1.976   6.359   8.784 -0.0457 -0.1052 -0.0499
  166loPI   C6A 2652   1.696   6.576   8.421 -0.1149  0.2977  0.0731
  166loPI   C1B 2653   1.570   6.763  10.487  0.1101 -0.0588 -0.0058
  166loPI   C2B 2654   1.453   7.031  10.191 -0.2221 -0.0578  0.0746
  166loPI   C3B 2655   1.510   7.088   9.764 -0.0760 -0.3359 -0.0223
  166loPI   C4B 2656   1.430   7.179   9.313  0.1948  0.2909  0.1648
  167loPI    C1 2657   1.241   7.684  11.311  0.1387  0.1839  0.1075
  167loPI    C2 2658   1.498   7.454  11.108 -0.0513  0.0270  0.0418
  167loPI    C3 2659   1.590   7.580  11.476  0.1242 -0.0180  0.0139
  167loPI   PO4 2660   1.184   7.925  11.115  0.1498 -0.5306 -0.1716
  167loPI   GL1 2661   1.002   8.114  10.739 -0.1948  0.2063  0.2170
  167loPI   GL2 2662   1.066   8.457  10.663 -0.0002  0.0457 -0.1469
  167loPI   C1A 2663   1.096   7.997  10.297  0.3126 -0.3334 -0.3136
  167loPI   C2A 2664   1.107   8.071   9.841  0.1991 -0.2686  0.1556
  167loPI   C3A 2665   1.248   8.041   9.440  0.0013  0.0738  0.0200
  167loPI   C4A 2666   1.409   8.172   9.012 -0.1775  0.1149  0.1969
  167loPI   C5A 2667   1.723   8.122   8.702  0.0405  0.1386 -0.0425
  167loPI   C6A 2668   2.195   8.167   8.439  0.0815 -0.0555 -0.0042
  167loPI   C1B 2669   1.137   8.506  10.231 -0.3248 -0.0671 -0.1105
  167loPI   C2B 2670   1.113   8.569   9.742  0.0321 -0.0356  0.1283
  167loPI   C3B 2671   1.183   8.606   9.373  0.1160  0.1394  0.5347
  167loPI   C4B 2672   1.094   8.585   8.943  0.0180 -0.1169  0.0481
  168loPI    C1 2673   3.452   0.967  11.607  0.0186 -0.1609 -0.0158
  168loPI    C2 2674   3.215   0.670  11.732  0.0780 -0.1547  0.1135
  168loPI    C3 2675   3.274   0.989  11.965  0.2514 -0.1779  0.1026
  168loPI   PO4 2676   3.559   0.878  11.408  0.0638 -0.0154  0.2228
  168loPI   GL1 2677   3.705   0.972  11.071  0.1428  0.3178  0.0663
  168loPI   GL2 2678   4.009   0.925  11.010 -0.1345 -0.0249  0.1808
  168loPI   C1A 2679   3.487   1.038  10.676  0.1157 -0.0974  0.0517
  168loPI   C2A 2680   3.567   1.033  10.268 -0.0340 -0.1660  0.0465
  168loPI   C3A 2681   3.642   1.111   9.741  0.0122  0.1051 -0.1221
  168loPI   C4A 2682   3.675   1.047   9.331 -0.2101 -0.1481 -0.0312
  168loPI   C5A 2683   3.619   0.851   8.846  0.2100  0.2271  0.2011
  168loPI   C6A 2684   4.001   1.006   8.802 -0.1563 -0.2768  0.1098
  168loPI   C1B 2685   3.967   1.138  10.601 -0.0402 -0.1485  0.3243
  168loPI   C2B 2686   4.049   1.317  10.201  0.0579  0.0459 -0.1194
  168loPI   C3B 2687   4.078   1.303   9.788  0.2820  0.0998 -0.0920
  168loPI   C4B 2688   4.084   1.315   9.337 -0.1004 -0.1468 -0.0389
  169loPI    C1 2689  15.246  13.279  11.270 -0.1679  0.0544  0.1250
  169loPI    C2 2690  15.193  12.885  11.311 -0.0353 -0.0064 -0.2515
  169loPI    C3 2691  15.088  13.133  11.607 -0.0035 -0.3323  0.0388
  169loPI   PO4 2692  15.232  13.301  11.023  0.0685 -0.0468  0.1414
  169loPI   GL1 2693  15.118  12.955  10.785 -0.2352  0.0423  0.1618
  169loPI   GL2 2694  15.287  12.719  10.646  0.2018 -0.0852 -0.0391
  169loPI   C1A 2695  14.897  13.066  10.459  0.1140 -0.1968 -0.0989
  169loPI   C2A 2696  14.877  13.035  10.053 -0.1044 -0.0545  0.1326
  169loPI   C3A 2697  14.685  13.173   9.720  0.2396 -0.1170 -0.0767
  169loPI   C4A 2698  14.495  13.325   9.415  0.1498 -0.1312 -0.0804
  169loPI   C5A 2699  14.318  13.519   9.052 -0.3113 -0.1314 -0.0343
  169loPI   C6A 2700  14.165  13.780   8.804 -0.4273  0.0354  0.1719
  169loPI   C1B 2701  15.152  12.650  10.260  0.3164  0.4081  0.0861
  169loPI   C2B 2702  15.180  12.689   9.881  0.1270  0.0325  0.0925
  169loPI   C3B 2703  14.892  12.727   9.693  0.0575  0.3160  0.1164
  169loPI   C4B 2704  14.654  12.835   9.326  0.1155  0.4273 -0.0264
  170loPI    C1 2705  12.880   9.716  11.466 -0.1596 -0.0812  0.0696
  170loPI    C2 2706  12.841   9.353  11.628 -0.0822 -0.1234 -0.0052
  170loPI    C3 2707  12.639   9.663  11.781 -0.1585 -0.2000  0.0508
  170loPI   PO4 2708  12.842   9.752  11.188  0.0501  0.0603  0.1855
  170loPI   GL1 2709  12.943  10.237  10.916  0.2631 -0.1668 -0.2376
  170loPI   GL2 2710  13.286  10.234  10.746  0.1689 -0.0686  0.1825
  170loPI   C1A 2711  12.615  10.523  11.008  0.0612  0.3315 -0.0951
  170loPI   C2A 2712  12.144  10.538  10.879 -0.1020  0.0747 -0.1224
  170loPI   C3A 2713  11.912  10.478  10.487 -0.0277 -0.0486  0.0388
  170loPI   C4A 2714  11.851  10.513  10.049 -0.2235 -0.0992 -0.2664
  170loPI   C5A 2715  11.799  10.505   9.660 -0.3221 -0.0111 -0.2116
  170loPI   C6A 2716  11.757  10.474   9.360 -0.1626 -0.3337 -0.0107
  170loPI   C1B 2717  13.102  10.125  10.439 -0.2223  0.1487 -0.0982
  170loPI   C2B 2718  13.114  10.066   9.988  0.0617  0.0105  0.2950
  170loPI   C3B 2719  13.180  10.080   9.648  0.1064 -0.0020 -0.1187
  170loPI   C4B 2720  13.411  10.131   9.239 -0.0789 -0.0915 -0.0444
  171loPI    C1 2721  12.322   3.106  11.630  0.0711 -0.1873 -0.1185
  171loPI    C2 2722  11.987   3.273  11.489  0.0695 -0.1287 -0.0459
  171loPI    C3 2723  11.995   2.883  11.576 -0.1349 -0.0332  0.4298
  171loPI   PO4 2724  12.542   3.211  11.464 -0.0393 -0.1092  0.0089
  171loPI   GL1 2725  12.723   3.003  11.045 -0.1303  0.3572 -0.0269
  171loPI   GL2 2726  12.754   3.334  11.018  0.0324 -0.3932  0.0615
  171loPI   C1A 2727  12.717   3.010  10.629  0.3312  0.0765  0.0228
  171loPI   C2A 2728  12.696   2.933  10.199 -0.1033 -0.2992  0.1688
  171loPI   C3A 2729  12.695   2.814   9.839  0.0207 -0.0004  0.0904
  171loPI   C4A 2730  12.607   2.730   9.356 -0.2928 -0.3484 -0.1588
  171loPI   C5A 2731  12.555   2.538   9.004 -0.3822 -0.1584  0.0399
  171loPI   C6A 2732  12.241   2.346   8.927 -0.0226 -0.1036  0.1416
  171loPI   C1B 2733  12.856   3.495  10.605  0.0517  0.1223  0.1622
  171loPI   C2B 2734  12.736   3.436  10.188 -0.2760 -0.1627  0.0358
  171loPI   C3B 2735  12.622   3.317   9.784  0.0477 -0.4597  0.1229
  171loPI   C4B 2736  12.715   3.174   9.491 -0.0476 -0.1493 -0.0543
  172loPI    C1 2737   5.889  17.231  11.482 -0.1398 -0.3547  0.1092
  172loPI    C2 2738   5.776  17.491  11.765  0.0507 -0.0625 -0.0777
  172loPI    C3 2739   5.942  17.142  11.869  0.2212  0.0897  0.1705
  172loPI   PO4 2740   5.958  17.398  11.326 -0.0759  0.2289 -0.2833
  172loPI   GL1 2741   5.715  17.462  10.987 -0.2993  0.0984 -0.1439
  172loPI   GL2 2742   5.751  17.756  10.939  0.2339 -0.3136  0.0326
  172loPI   C1A 2743   5.660  17.422  10.593  0.1820 -0.0068 -0.1319
  172loPI   C2A 2744   5.661  17.533  10.172  0.0145 -0.2364  0.2752
  172loPI   C3A 2745   5.837  17.500   9.765 -0.0936 -0.0029  0.1105
  172loPI   C4A 2746   5.892  17.418   9.402 -0.2061 -0.0822  0.1098
  172loPI   C5A 2747   5.991  17.704   8.902 -0.3702 -0.1790  0.1429
  172loPI   C6A 2748   5.900  17.882   8.550  0.0763 -0.0931 -0.1375
  172loPI   C1B 2749   5.694  17.987  10.495  0.1133  0.4355 -0.2044
  172loPI   C2B 2750   5.801  18.026  10.003  0.0006 -0.0745  0.1094
  172loPI   C3B 2751   5.850  17.951   9.484  0.1496 -0.0176 -0.0184
  172loPI   C4B 2752   5.580  18.097   9.105 -0.0567 -0.3914 -0.0646
  173loPI    C1 2753  13.654  12.879  11.682 -0.1622 -0.0051  0.0360
  173loPI    C2 2754  13.814  13.244  11.715  0.1694 -0.1434 -0.0049
  173loPI    C3 2755  13.864  12.977  12.008 -0.0589 -0.1622  0.0180
  173loPI   PO4 2756  13.723  12.856  11.417 -0.2784  0.2262 -0.0062
  173loPI   GL1 2757  13.611  12.595  11.070 -0.2778  0.0950 -0.1441
  173loPI   GL2 2758  13.835  12.460  10.788 -0.2275  0.0287 -0.2240
  173loPI   C1A 2759  13.414  12.720  10.666  0.2419 -0.0477  0.0546
  173loPI   C2A 2760  13.365  12.759  10.239 -0.0689  0.1212  0.3152
  173loPI   C3A 2761  13.311  12.745   9.779  0.0282 -0.1189  0.1937
  173loPI   C4A 2762  13.164  12.830   9.412 -0.1575  0.2356 -0.1620
  173loPI   C5A 2763  13.324  12.757   9.037 -0.2820  0.1232  0.1052
  173loPI   C6A 2764  13.498  12.821   8.702 -0.2639  0.1177  0.1207
  173loPI   C1B 2765  13.625  12.255  10.492 -0.1113 -0.0935  0.0697
  173loPI   C2B 2766  13.528  12.315  10.072  0.2351  0.3371 -0.3177
  173loPI   C3B 2767  13.380  12.243   9.741  0.3886 -0.0035  0.2173
  173loPI   C4B 2768  13.307  12.136   9.298  0.1874 -0.1036  0.2466
  174loPI    C1 2769   9.115   8.658  12.033  0.0894 -0.0990  0.1001
  174loPI    C2 2770   9.344   8.471  12.302  0.5026  0.1148 -0.0945
  174loPI    C3 2771   9.349   8.870  12.278 -0.1575  0.1477  0.1273
  174loPI   PO4 2772   9.134   8.586  11.760 -0.2929 -0.2746 -0.1352
  174loPI   GL1 2773   9.120   8.545  11.331  0.5156 -0.3369 -0.1432
  174loPI   GL2 2774   8.759   8.542  11.311 -0.1045  0.0938  0.2353
  174loPI   C1A 2775   8.966   8.418  10.895 -0.1993  0.2917  0.2676
  174loPI   C2A 2776   8.890   8.482  10.520 -0.0283  0.0972 -0.0622
  174loPI   C3A 2777   8.790   8.399  10.157  0.0382  0.1845  0.0923
  174loPI   C4A 2778   8.752   8.375   9.697  0.2359  0.1127  0.0278
  174loPI   C5A 2779   8.805   8.292   9.214 -0.0354 -0.0281 -0.1448
  174loPI   C6A 2780   8.971   8.275   8.831  0.1836  0.2671 -0.1347
  174loPI   C1B 2781   8.491   8.801  10.934 -0.3548  0.2000  0.2856
  174loPI   C2B 2782   8.441   8.712  10.474 -0.2651 -0.1273 -0.1503
  174loPI   C3B 2783   8.356   8.641  10.011  0.0057  0.1838  0.0693
  174loPI   C4B 2784   8.334   8.682   9.562  0.0432  0.3074 -0.3624
  175loPI    C1 2785   3.180  11.538  12.077  0.0185  0.0492  0.0135
  175loPI    C2 2786   2.872  11.709  12.267  0.0925  0.0386  0.1435
  175loPI    C3 2787   3.087  11.425  12.449  0.2262  0.0995  0.0821
  175loPI   PO4 2788   3.100  11.508  11.777 -0.3357 -0.0276 -0.1447
  175loPI   GL1 2789   3.274  11.692  11.447 -0.1171  0.1359  0.2827
  175loPI   GL2 2790   3.221  11.390  11.267 -0.1021  0.1477  0.0385
  175loPI   C1A 2791   3.121  12.090  11.091 -0.1581 -0.2788 -0.0424
  175loPI   C2A 2792   3.085  12.082  10.617  0.4407 -0.2681 -0.1418
  175loPI   C3A 2793   3.283  12.048  10.281  0.0637  0.2651  0.1344
  175loPI   C4A 2794   3.279  12.129   9.822 -0.0104 -0.2173 -0.0028
  175loPI   C5A 2795   3.249  12.132   9.340  0.3226 -0.0042 -0.1361
  175loPI   C6A 2796   3.210  12.208   8.900 -0.0370  0.3025 -0.0925
  175loPI   C1B 2797   3.122  11.576  10.932 -0.1224  0.1635  0.0847
  175loPI   C2B 2798   3.065  11.623  10.450 -0.1265 -0.0748 -0.0012
  175loPI   C3B 2799   3.123  11.682  10.009 -0.1306 -0.0132  0.2046
  175loPI   C4B 2800   3.178  11.580   9.563 -0.0368  0.1183  0.4278
  176loPI    C1 2801   3.775  14.580  11.768 -0.1732 -0.1159  0.2051
  176loPI    C2 2802   3.550  14.363  11.518 -0.1382  0.1248 -0.0396
  176loPI    C3 2803   3.506  14.322  11.913 -0.1597 -0.2961 -0.0817
  176loPI   PO4 2804   3.859  14.868  11.566 -0.0052  0.0169  0.0845
  176loPI   GL1 2805   3.848  14.945  11.231 -0.5065  0.0066  0.2322
  176loPI   GL2 2806   3.568  15.135  11.261  0.0900 -0.1006 -0.1284
  176loPI   C1A 2807   3.790  14.798  10.752  0.2193  0.0877  0.2217
  176loPI   C2A 2808   3.636  14.834  10.347  0.2731  0.1640 -0.2355
  176loPI   C3A 2809   3.853  14.908   9.934 -0.1228  0.0819 -0.1450
  176loPI   C4A 2810   3.913  15.012   9.473 -0.0308 -0.0713  0.1422
  176loPI   C5A 2811   3.783  14.958   9.157 -0.4183  0.0985  0.0483
  176loPI   C6A 2812   3.274  15.198   9.136 -0.0739 -0.0418 -0.0496
  176loPI   C1B 2813   3.436  15.127  10.890 -0.0633  0.0481 -0.2779
  176loPI   C2B 2814   3.270  15.221  10.445  0.1436 -0.0396 -0.0419
  176loPI   C3B 2815   3.329  15.222  10.048 -0.1447 -0.0602  0.0920
  176loPI   C4B 2816   3.472  15.196   9.595  0.0391  0.0981  0.1760
  177loPI    C1 2817  11.099   4.426  11.774 -0.1938 -0.3235 -0.1894
  177loPI    C2 2818  10.824   4.482  12.059  0.2286  0.2600  0.1244
  177loPI    C3 2819  11.163   4.288  12.144  0.3677  0.4578  0.0297
  177loPI   PO4 2820  11.163   4.588  11.705  0.1592 -0.2731  0.1814
  177loPI   GL1 2821  11.174   4.755  11.340  0.3544 -0.0825  0.1106
  177loPI   GL2 2822  11.439   4.935  11.284  0.0711 -0.1071  0.2873
  177loPI   C1A 2823  11.090   4.582  10.979  0.1594 -0.2364  0.0246
  177loPI   C2A 2824  10.940   4.521  10.579  0.1728 -0.2585  0.0465
  177loPI   C3A 2825  10.943   4.467  10.215 -0.0587  0.1033  0.1549
  177loPI   C4A 2826  10.918   4.406   9.795  0.1584  0.0840  0.0459
  177loPI   C5A 2827  11.140   4.361   9.366  0.1453  0.1953 -0.6170
  177loPI   C6A 2828  11.426   4.078   9.333 -0.0066  0.0021  0.1183
  177loPI   C1B 2829  11.453   4.906  10.817  0.1861 -0.2545 -0.1682
  177loPI   C2B 2830  11.361   4.841  10.419  0.1467  0.1124 -0.0907
  177loPI   C3B 2831  11.356   4.780   9.985 -0.1375 -0.3481 -0.1518
  177loPI   C4B 2832  11.432   4.715   9.576 -0.2565 -0.2542 -0.0416
  178loPI    C1 2833  13.474   8.749  11.078 -0.0828 -0.1042 -0.0516
  178loPI    C2 2834  13.665   8.598  11.396 -0.2159 -0.0994  0.0318
  178loPI    C3 2835  13.305   8.766  11.441 -0.0203  0.3560 -0.0381
  178loPI   PO4 2836  13.526   8.872  10.918 -0.0044  0.0018 -0.0197
  178loPI   GL1 2837  13.643   8.854  10.589 -0.4406 -0.5000 -0.4453
  178loPI   GL2 2838  13.822   8.702  10.424 -0.0913  0.0111 -0.1834
  178loPI   C1A 2839  13.445   9.105  10.208 -0.0805  0.2264 -0.1088
  178loPI   C2A 2840  13.343   9.093   9.802  0.0079  0.2493  0.2237
  178loPI   C3A 2841  13.270   9.067   9.455  0.2302 -0.2862  0.3207
  178loPI   C4A 2842  13.030   9.297   9.081 -0.0073  0.2887 -0.0326
  178loPI   C5A 2843  12.599   9.217   8.913 -0.2132 -0.0592 -0.2304
  178loPI   C6A 2844  12.213   9.344   8.740  0.1176 -0.3098 -0.2420
  178loPI   C1B 2845  13.785   8.786  10.038  0.0857 -0.0081  0.1091
  178loPI   C2B 2846  13.672   8.780   9.599 -0.2019 -0.1844  0.2858
  178loPI   C3B 2847  13.521   8.682   9.223  0.2637 -0.1359  0.2680
  178loPI   C4B 2848  13.313   8.778   8.853 -0.0766  0.2402 -0.1791
  179loPI    C1 2849   3.939  16.205  11.954 -0.0609 -0.2172 -0.1278
  179loPI    C2 2850   3.563  16.256  12.082 -0.0059 -0.0522 -0.0282
  179loPI    C3 2851   3.741  15.899  12.120 -0.0770 -0.0718  0.1267
  179loPI   PO4 2852   3.995  16.372  11.723  0.0242 -0.1591  0.1270
  179loPI   GL1 2853   4.040  16.308  11.293  0.0679  0.0655  0.0222
  179loPI   GL2 2854   4.134  16.044  11.343 -0.0969  0.0793  0.0220
  179loPI   C1A 2855   4.071  16.427  10.875 -0.1489 -0.1482  0.1831
  179loPI   C2A 2856   3.941  16.395  10.387  0.1569  0.1717  0.0506
  179loPI   C3A 2857   4.017  16.445   9.878 -0.0438  0.0466 -0.2533
  179loPI   C4A 2858   4.043  16.308   9.470 -0.2175  0.2151 -0.1093
  179loPI   C5A 2859   3.798  16.031   9.104 -0.0064 -0.0351  0.2009
  179loPI   C6A 2860   3.912  15.792   8.723  0.3517  0.1115 -0.1465
  179loPI   C1B 2861   3.951  15.958  10.802 -0.0076  0.0699 -0.0735
  179loPI   C2B 2862   3.869  15.876  10.391  0.0392 -0.0822  0.0578
  179loPI   C3B 2863   3.849  15.899   9.990 -0.1947  0.0558  0.1278
  179loPI   C4B 2864   3.860  15.852   9.540 -0.0368  0.0676 -0.3159
  180loPI    C1 2865   2.237   3.549  11.386  0.0828  0.1157 -0.1978
  180loPI    C2 2866   1.839   3.550  11.338  0.0615  0.0514 -0.0288
  180loPI    C3 2867   2.010   3.803  11.596  0.1069 -0.0853  0.0769
  180loPI   PO4 2868   2.351   3.599  11.137 -0.0788  0.0436  0.0169
  180loPI   GL1 2869   2.229   3.310  10.866 -0.1155  0.2159  0.0602
  180loPI   GL2 2870   1.883   3.488  10.869  0.1000 -0.0107  0.1151
  180loPI   C1A 2871   2.231   3.398  10.488  0.1688  0.3206 -0.2213
  180loPI   C2A 2872   2.209   3.447  10.057  0.0058  0.0610 -0.0138
  180loPI   C3A 2873   2.228   3.402   9.630 -0.0204  0.3013  0.0760
  180loPI   C4A 2874   2.313   3.365   9.180 -0.0333 -0.0646 -0.1004
  180loPI   C5A 2875   2.107   3.424   8.856 -0.0823 -0.1938 -0.2268
  180loPI   C6A 2876   2.143   3.664   8.459 -0.1643  0.0514 -0.1501
  180loPI   C1B 2877   1.707   3.261  10.515 -0.3612 -0.0275 -0.1336
  180loPI   C2B 2878   1.727   3.179  10.026  0.3751  0.0620  0.1554
  180loPI   C3B 2879   1.722   3.177   9.672 -0.0549  0.3365 -0.1157
  180loPI   C4B 2880   1.896   3.156   9.329 -0.5561  0.0478 -0.0065
  181loPI    C1 2881  13.648   1.563  11.579 -0.0987 -0.0430  0.0776
  181loPI    C2 2882  13.623   1.779  11.915  0.2504  0.0225  0.0653
  181loPI    C3 2883  13.890   1.482  11.888  0.1136 -0.0871 -0.0981
  181loPI   PO4 2884  13.468   1.626  11.472 -0.2031  0.1881 -0.1488
  181loPI   GL1 2885  13.384   1.405  11.159  0.0975 -0.2828 -0.2893
  181loPI   GL2 2886  13.686   1.150  11.036 -0.0524 -0.1039  0.1504
  181loPI   C1A 2887  13.502   1.325  10.645 -0.1168 -0.1397  0.1901
  181loPI   C2A 2888  13.539   1.286  10.199 -0.3010  0.0870 -0.0259
  181loPI   C3A 2889  13.479   1.189   9.806 -0.2960  0.1001 -0.0899
  181loPI   C4A 2890  13.575   1.185   9.353  0.2434  0.1019  0.1431
  181loPI   C5A 2891  13.383   1.470   9.097 -0.3519  0.3574 -0.1488
  181loPI   C6A 2892  13.324   1.957   9.128  0.1146  0.0627  0.0246
  181loPI   C1B 2893  13.933   1.070  10.792 -0.0989 -0.0741  0.0554
  181loPI   C2B 2894  13.919   1.032  10.356  0.0858  0.0571  0.0741
  181loPI   C3B 2895  13.959   0.908  10.017 -0.1271  0.0206 -0.2167
  181loPI   C4B 2896  13.838   0.875   9.676  0.2020  0.0622  0.0734
  182loPI    C1 2897   0.960  12.549  11.265 -0.3278  0.1013 -0.1036
  182loPI    C2 2898   0.980  12.316  11.589  0.0785  0.2130 -0.0425
  182loPI    C3 2899   0.891  12.704  11.628  0.2850  0.2615 -0.0446
  182loPI   PO4 2900   0.800  12.457  11.112 -0.0788 -0.4728  0.1589
  182loPI   GL1 2901   0.835  12.319  10.763  0.3081  0.0439 -0.0503
  182loPI   GL2 2902   0.869  11.889  10.697  0.0874  0.1266 -0.0626
  182loPI   C1A 2903   0.937  12.425  10.375  0.0764  0.0153  0.0561
  182loPI   C2A 2904   0.955  12.483   9.925  0.0814  0.1154 -0.1871
  182loPI   C3A 2905   1.057  12.490   9.481  0.1840  0.0821  0.0182
  182loPI   C4A 2906   0.865  12.405   9.097  0.3161  0.4101 -0.0785
  182loPI   C5A 2907   0.979  12.194   8.807  0.1133 -0.0178  0.0639
  182loPI   C6A 2908   0.876  11.802   8.650 -0.1465 -0.0234  0.1647
  182loPI   C1B 2909   0.886  11.942  10.239  0.2463  0.0174 -0.0596
  182loPI   C2B 2910   0.899  11.996   9.853  0.0645 -0.1268  0.0655
  182loPI   C3B 2911   1.021  11.932   9.479 -0.1621  0.1256 -0.0439
  182loPI   C4B 2912   1.033  11.865   9.159 -0.1971  0.0702  0.0326
  183loPI    C1 2913  12.127   8.801  11.257 -0.0364 -0.0367 -0.0721
  183loPI    C2 2914  12.283   8.666  11.600 -0.2450 -0.1044 -0.0022
  183loPI    C3 2915  11.925   8.845  11.600 -0.2055 -0.0237 -0.1723
  183loPI   PO4 2916  12.271   9.010  11.174  0.0960  0.2067  0.2854
  183loPI   GL1 2917  12.377   8.990  10.835  0.0610  0.0232  0.0921
  183loPI   GL2 2918  12.727   8.804  10.688 -0.2774  0.0659  0.2796
  183loPI   C1A 2919  12.318   9.081  10.395  0.1553  0.0309  0.0799
  183loPI   C2A 2920  12.288   9.030   9.952  0.0655  0.0727  0.2567
  183loPI   C3A 2921  12.058   9.078   9.634  0.0099 -0.1111 -0.0059
  183loPI   C4A 2922  11.624   8.955   9.528 -0.0611  0.1748  0.0665
  183loPI   C5A 2923  11.451   8.839   9.187  0.0873  0.3112 -0.0121
  183loPI   C6A 2924  11.325   8.803   8.722  0.0633 -0.1434 -0.1252
  183loPI   C1B 2925  12.727   8.718  10.242 -0.0275  0.0656  0.2666
  183loPI   C2B 2926  12.668   8.766   9.771 -0.2483  0.0060 -0.2232
  183loPI   C3B 2927  12.825   8.825   9.358  0.1565  0.0274 -0.0402
  183loPI   C4B 2928  12.781   8.719   8.989 -0.0545 -0.4572  0.0018
  184loPI    C1 2929   5.889  15.960  11.502 -0.1866 -0.1798 -0.3175
  184loPI    C2 2930   5.493  15.973  11.450 -0.2361 -0.1858  0.0310
  184loPI    C3 2931   5.655  15.683  11.672 -0.0550 -0.0741  0.0462
  184loPI   PO4 2932   5.930  16.191  11.372  0.0931  0.3922  0.1925
  184loPI   GL1 2933   5.971  16.455  10.964  0.0435  0.3890 -0.0927
  184loPI   GL2 2934   6.064  16.205  10.920  0.2174  0.0035 -0.1066
  184loPI   C1A 2935   6.024  16.622  10.610  0.2012  0.0130  0.0051
  184loPI   C2A 2936   6.139  16.687  10.237  0.1513 -0.1266  0.0786
  184loPI   C3A 2937   6.237  16.710   9.783  0.1494  0.2883  0.1435
  184loPI   C4A 2938   6.390  16.662   9.517  0.0545 -0.1510  0.2941
  184loPI   C5A 2939   6.419  16.654   9.136  0.1181 -0.0116 -0.1595
  184loPI   C6A 2940   6.240  16.419   8.838  0.0592  0.0321 -0.0137
  184loPI   C1B 2941   6.068  16.145  10.573  0.1174  0.3171 -0.0937
  184loPI   C2B 2942   6.184  16.173  10.156  0.1500  0.0108  0.1641
  184loPI   C3B 2943   6.294  16.139   9.703  0.2259  0.0691 -0.2538
  184loPI   C4B 2944   6.352  16.205   9.333  0.1297 -0.3623 -0.0258
  185loPI    C1 2945   7.025   7.157  11.797 -0.1005 -0.0454  0.0695
  185loPI    C2 2946   7.001   6.773  11.907 -0.2896 -0.0493  0.0180
  185loPI    C3 2947   6.769   7.047  12.084 -0.2960  0.0102 -0.0816
  185loPI   PO4 2948   7.018   7.149  11.506 -0.0819 -0.0971  0.1777
  185loPI   GL1 2949   7.186   7.080  11.235  0.0232  0.0724 -0.2247
  185loPI   GL2 2950   7.475   7.146  11.123 -0.1944  0.2034 -0.1856
  185loPI   C1A 2951   6.946   6.970  10.834  0.0198 -0.0598 -0.2124
  185loPI   C2A 2952   6.969   6.890  10.418 -0.1056  0.0746  0.2540
  185loPI   C3A 2953   6.931   6.946   9.957 -0.0591 -0.1373  0.0391
  185loPI   C4A 2954   6.940   6.926   9.529  0.0632  0.2395 -0.0322
  185loPI   C5A 2955   7.148   6.695   9.216 -0.1503  0.2646  0.0542
  185loPI   C6A 2956   7.095   6.478   8.743  0.2188  0.1660 -0.0245
  185loPI   C1B 2957   7.369   7.168  10.687 -0.2692 -0.1617 -0.2095
  185loPI   C2B 2958   7.363   7.198  10.159 -0.0774 -0.0735 -0.0126
  185loPI   C3B 2959   7.348   7.170   9.710 -0.0148 -0.0880  0.1456
  185loPI   C4B 2960   7.337   7.154   9.263 -0.3234  0.0862 -0.0127
  186loPI    C1 2961   0.259   5.337  11.072  0.3813  0.3759  0.0585
  186loPI    C2 2962   0.530   5.176  11.318 -0.0245 -0.2114  0.1412
  186loPI    C3 2963   0.230   5.394  11.467 -0.0098 -0.1778  0.1216
  186loPI   PO4 2964   0.186   5.163  10.916 -0.2488 -0.0808 -0.2730
  186loPI   GL1 2965   0.143   4.763  10.751 -0.3713 -0.4074 -0.0043
  186loPI   GL2 2966  -0.084   4.524  10.807 -0.0017  0.1916 -0.0687
  186loPI   C1A 2967   0.022   4.826  10.245  0.0588 -0.1781 -0.2457
  186loPI   C2A 2968   0.141   4.761   9.758  0.1362  0.1116 -0.0498
  186loPI   C3A 2969   0.073   4.938   9.248 -0.0741 -0.0954  0.1209
  186loPI   C4A 2970   0.007   4.875   8.752 -0.1780  0.0519 -0.6021
  186loPI   C5A 2971   0.197   4.691   8.427  0.0342  0.1391  0.1178
  186loPI   C6A 2972   0.107   4.314   8.310 -0.0463  0.2902  0.1730
  186loPI   C1B 2973  -0.158   4.344  10.467 -0.0364  0.1562  0.3357
  186loPI   C2B 2974  -0.070   4.389  10.040 -0.2534  0.1441 -0.1483
  186loPI   C3B 2975   0.133   4.295   9.705  0.1788  0.0882  0.2600
  186loPI   C4B 2976   0.110   4.375   9.331 -0.2605 -0.1272 -0.2481
  187loPI    C1 2977   8.284  10.160  11.786 -0.2848  0.0074 -0.0222
  187loPI    C2 2978   8.074  10.019  12.096  0.0501 -0.0784  0.1720
  187loPI    C3 2979   8.279  10.360  12.133 -0.3680  0.2187 -0.1437
  187loPI   PO4 2980   8.312  10.072  11.600  0.3458  0.0207  0.1864
  187loPI   GL1 2981   8.025  10.119  11.286  0.0536  0.1548  0.0954
  187loPI   GL2 2982   7.707   9.970  11.240  0.2427 -0.1943  0.0182
  187loPI   C1A 2983   8.020  10.106  10.830  0.2363  0.7191 -0.2073
  187loPI   C2A 2984   8.050  10.080  10.356  0.1942  0.1422 -0.1066
  187loPI   C3A 2985   8.077  10.053   9.942 -0.3385  0.2127 -0.0990
  187loPI   C4A 2986   8.042  10.005   9.504 -0.0839 -0.1364 -0.1742
  187loPI   C5A 2987   7.668   9.710   9.213 -0.2567  0.1214 -0.1482
  187loPI   C6A 2988   7.710   9.589   8.739  0.1800  0.2169  0.2208
  187loPI   C1B 2989   7.569   9.840  10.893  0.0497 -0.0163  0.0356
  187loPI   C2B 2990   7.601   9.871  10.507 -0.0548  0.1075 -0.3284
  187loPI   C3B 2991   7.509   9.793  10.109  0.0660  0.0461 -0.0734
  187loPI   C4B 2992   7.577   9.752   9.682 -0.2664 -0.1359  0.0329
  188loPI    C1 2993  10.703   5.311  11.823  0.0539 -0.0039 -0.0291
  188loPI    C2 2994  10.566   5.617  12.042 -0.0065 -0.0673  0.0221
  188loPI    C3 2995  10.850   5.376  12.189 -0.0639 -0.1240  0.0406
  188loPI   PO4 2996  10.450   5.208  11.677 -0.0992  0.3504  0.3610
  188loPI   GL1 2997  10.340   4.945  11.315 -0.2136  0.1726  0.0043
  188loPI   GL2 2998  10.541   4.708  11.206  0.2671 -0.0537  0.2637
  188loPI   C1A 2999  10.119   5.159  11.061  0.3614 -0.3415  0.1926
  188loPI   C2A 3000  10.114   4.987  10.687 -0.0559 -0.0734  0.5327
  188loPI   C3A 3001  10.030   4.968  10.173 -0.0516 -0.2716 -0.1987
  188loPI   C4A 3002  10.136   4.937   9.846  0.1340 -0.0037  0.2116
  188loPI   C5A 3003  10.073   4.957   9.434 -0.3952 -0.1057  0.2395
  188loPI   C6A 3004  10.018   4.992   9.001  0.3247 -0.0384  0.0441
  188loPI   C1B 3005  10.523   4.675  10.735  0.4588 -0.1391 -0.1868
  188loPI   C2B 3006  10.480   4.738  10.341  0.1629 -0.0028 -0.0938
  188loPI   C3B 3007  10.532   4.676  10.003 -0.1164 -0.0557  0.1173
  188loPI   C4B 3008  10.455   4.647   9.556 -0.0178 -0.1278 -0.2223
  189loPI    C1 3009  16.802   7.510  11.328 -0.0226  0.1380  0.0947
  189loPI    C2 3010  16.589   7.472  10.991  0.0292 -0.1909  0.0957
  189loPI    C3 3011  16.412   7.423  11.347  0.0279 -0.0916  0.1091
  189loPI   PO4 3012  17.033   7.440  11.246 -0.1173  0.2564  0.1328
  189loPI   GL1 3013  17.089   7.361  10.830  0.0510  0.0022  0.0190
  189loPI   GL2 3014  17.072   7.691  10.824 -0.3195  0.2560  0.1946
  189loPI   C1A 3015  16.840   7.189  10.504 -0.0415  0.1716 -0.2183
  189loPI   C2A 3016  16.835   7.179  10.076  0.1099  0.0168  0.0172
  189loPI   C3A 3017  16.938   7.157   9.717 -0.0273  0.0439  0.2727
  189loPI   C4A 3018  17.105   7.108   9.346 -0.1111 -0.0970  0.0362
  189loPI   C5A 3019  17.142   7.257   8.903 -0.1020  0.0674 -0.1173
  189loPI   C6A 3020  17.288   7.555   8.605  0.0069  0.1030  0.1390
  189loPI   C1B 3021  16.666   7.610  10.519  0.1601  0.0908  0.0992
  189loPI   C2B 3022  16.576   7.608  10.136 -0.2086  0.2272  0.2228
  189loPI   C3B 3023  16.654   7.598   9.795 -0.1452  0.3796 -0.1782
  189loPI   C4B 3024  16.861   7.576   9.454  0.0337  0.3021  0.1799
  190loPI    C1 3025  15.795   4.326  11.230 -0.0987  0.1791 -0.0181
  190loPI    C2 3026  16.174   4.386  11.344 -0.1375 -0.0629  0.2524
  190loPI    C3 3027  15.873   4.503  11.580 -0.2331  0.0703  0.0680
  190loPI   PO4 3028  15.757   4.041  11.116  0.1645  0.0046 -0.0614
  190loPI   GL1 3029  15.995   3.685  10.915 -0.0854  0.1076 -0.4097
  190loPI   GL2 3030  16.351   3.685  10.865  0.1240 -0.4465  0.2478
  190loPI   C1A 3031  15.802   3.629  10.545 -0.0419  0.1246  0.2388
  190loPI   C2A 3032  15.897   3.626  10.106 -0.0530  0.2168 -0.1970
  190loPI   C3A 3033  15.928   3.649   9.782 -0.1169 -0.1349  0.0683
  190loPI   C4A 3034  15.930   3.699   9.401  0.0618 -0.2452 -0.1683
  190loPI   C5A 3035  15.885   3.849   8.986  0.0853  0.3163  0.2086
  190loPI   C6A 3036  15.995   4.161   8.703  0.0754 -0.1845 -0.1627
  190loPI   C1B 3037  16.204   3.841  10.440  0.0030  0.0258  0.0248
  190loPI   C2B 3038  16.314   3.865   9.996 -0.0241 -0.2079 -0.1150
  190loPI   C3B 3039  16.317   3.972   9.571 -0.2678  0.2080  0.1734
  190loPI   C4B 3040  16.376   4.010   9.135 -0.2036 -0.1889 -0.2766
  191loPI    C1 3041   3.252  12.129  11.646 -0.2391 -0.1917 -0.0948
  191loPI    C2 3042   3.199  12.064  12.037  0.1600  0.0537  0.0068
  191loPI    C3 3043   2.888  12.042  11.786 -0.1091 -0.0597  0.3419
  191loPI   PO4 3044   3.400  12.415  11.572 -0.0653 -0.2120 -0.2453
  191loPI   GL1 3045   3.289  12.590  11.207 -0.1786  0.1896  0.0870
  191loPI   GL2 3046   3.579  12.460  11.006  0.2212 -0.1598  0.0365
  191loPI   C1A 3047   3.091  12.596  10.812  0.1380  0.0251 -0.0853
  191loPI   C2A 3048   3.105  12.617  10.313  0.3114 -0.0407 -0.3261
  191loPI   C3A 3049   3.279  12.646   9.950 -0.0903  0.1237  0.1267
  191loPI   C4A 3050   3.211  12.651   9.534 -0.0305  0.0096 -0.2860
  191loPI   C5A 3051   3.241  12.675   9.044  0.3135  0.0852 -0.1126
  191loPI   C6A 3052   3.347  12.624   8.689  0.0947  0.0135  0.2470
  191loPI   C1B 3053   3.548  12.353  10.509 -0.4330  0.1002  0.1178
  191loPI   C2B 3054   3.651  12.366  10.082  0.1020  0.3070  0.1251
  191loPI   C3B 3055   3.659  12.387   9.653 -0.3534 -0.1997  0.1842
  191loPI   C4B 3056   3.663  12.430   9.252  0.1020  0.1507  0.0123
  192loPI    C1 3057  10.737   2.008  12.246 -0.0702 -0.0362 -0.0527
  192loPI    C2 3058  10.542   2.346  12.160 -0.1093 -0.0227  0.0871
  192loPI    C3 3059  10.579   2.228  12.541 -0.0421 -0.1438  0.0434
  192loPI   PO4 3060  10.690   1.915  12.001 -0.0232  0.0423  0.0984
  192loPI   GL1 3061  10.677   2.040  11.617  0.0399 -0.0124 -0.2965
  192loPI   GL2 3062  10.449   2.158  11.444 -0.3957  0.2399  0.3001
  192loPI   C1A 3063  10.855   1.924  11.289  0.0336  0.1842  0.3662
  192loPI   C2A 3064  10.867   1.922  10.805  0.0985  0.2028  0.3040
  192loPI   C3A 3065  10.913   1.803  10.411  0.3691 -0.3113 -0.1173
  192loPI   C4A 3066  10.831   1.886   9.910 -0.3772  0.2125 -0.0824
  192loPI   C5A 3067  10.929   1.988   9.426  0.1974  0.0683 -0.4095
  192loPI   C6A 3068  11.232   2.181   9.229 -0.0670 -0.0200 -0.0065
  192loPI   C1B 3069  10.436   2.195  11.017 -0.0026  0.0925  0.1096
  192loPI   C2B 3070  10.472   2.105  10.533  0.2464 -0.1109  0.0724
  192loPI   C3B 3071  10.513   2.187  10.141 -0.1625 -0.1366  0.0786
  192loPI   C4B 3072  10.477   2.178   9.699  0.2949  0.1943 -0.0837
  193loPI    C1 3073  16.975   0.472  11.924 -0.0833 -0.2284  0.1548
  193loPI    C2 3074  17.361   0.373  11.955  0.0902  0.2352 -0.3689
  193loPI    C3 3075  17.215   0.679  12.168 -0.0292 -0.0279 -0.0651
  193loPI   PO4 3076  16.983   0.491  11.606  0.3122 -0.0701  0.0458
  193loPI   GL1 3077  17.053   0.419  11.211  0.1715 -0.0805 -0.1354
  193loPI   GL2 3078  17.051   0.095  11.127  0.0011 -0.2218  0.0342
  193loPI   C1A 3079  17.160   0.704  10.842  0.1823  0.0472 -0.1090
  193loPI   C2A 3080  17.165   0.742  10.409 -0.0261  0.1184  0.2791
  193loPI   C3A 3081  17.151   0.743   9.993 -0.0367 -0.2677 -0.4162
  193loPI   C4A 3082  17.239   0.721   9.570  0.3908 -0.0315 -0.0657
  193loPI   C5A 3083  17.265   0.768   9.068 -0.2489 -0.0386  0.1241
  193loPI   C6A 3084  17.398   0.806   8.685  0.0572  0.2313 -0.0043
  193loPI   C1B 3085  17.103   0.208  10.712  0.1997  0.2570 -0.0000
  193loPI   C2B 3086  17.122   0.193  10.290 -0.2388  0.0842 -0.2196
  193loPI   C3B 3087  17.196   0.189   9.872 -0.0436  0.2374 -0.1082
  193loPI   C4B 3088  17.189   0.239   9.441  0.1143 -0.0230 -0.0871
  194loPI    C1 3089  13.787  17.089  11.874  0.1499 -0.0699 -0.1383
  194loPI    C2 3090  14.107  17.098  12.114 -0.0050  0.2777  0.0623
  194loPI    C3 3091  13.743  17.034  12.268 -0.0335 -0.1579 -0.1699
  194loPI   PO4 3092  13.879  17.006  11.625 -0.4353  0.1127  0.0036
  194loPI   GL1 3093  13.652  17.098  11.273 -0.1168 -0.4747 -0.2723
  194loPI   GL2 3094  13.632  17.430  11.300 -0.1421 -0.1194 -0.3161
  194loPI   C1A 3095  13.588  17.056  10.793  0.4863  0.0890 -0.1154
  194loPI   C2A 3096  13.537  16.999  10.425  0.0049 -0.1873 -0.2546
  194loPI   C3A 3097  13.509  16.926  10.033 -0.1701 -0.0513 -0.0832
  194loPI   C4A 3098  13.518  16.795   9.595  0.2035 -0.1343  0.2519
  194loPI   C5A 3099  13.545  16.828   9.183  0.2806  0.0080  0.0791
  194loPI   C6A 3100  13.241  16.695   8.923 -0.1866  0.0460 -0.2391
  194loPI   C1B 3101  13.584  17.550  10.771 -0.1533  0.1392  0.1076
  194loPI   C2B 3102  13.504  17.494  10.362 -0.3105 -0.0557  0.2170
  194loPI   C3B 3103  13.546  17.404   9.898 -0.1227  0.3062  0.0919
  194loPI   C4B 3104  13.548  17.315   9.511  0.0939  0.2436 -0.1975
  195loPI    C1 3105  15.057   5.381  11.350 -0.0887 -0.0393  0.0619
  195loPI    C2 3106  14.794   5.459  11.641 -0.1711 -0.0717 -0.0034
  195loPI    C3 3107  15.176   5.573  11.680 -0.2005 -0.0006  0.0801
  195loPI   PO4 3108  14.949   5.498  11.110  0.1567 -0.1184  0.0535
  195loPI   GL1 3109  14.893   5.264  10.756  0.2436 -0.1068  0.1647
  195loPI   GL2 3110  14.633   5.613  10.718 -0.3214  0.1063  0.1172
  195loPI   C1A 3111  15.006   5.245  10.446 -0.1069  0.2169 -0.1161
  195loPI   C2A 3112  14.922   5.137   9.987  0.0947 -0.2146 -0.3856
  195loPI   C3A 3113  14.954   5.215   9.645  0.1103  0.1977 -0.1042
  195loPI   C4A 3114  15.209   5.087   9.316  0.2442  0.1290 -0.0370
  195loPI   C5A 3115  15.274   5.013   8.894  0.0561  0.0925  0.0486
  195loPI   C6A 3116  15.069   4.705   8.618  0.1521 -0.0627 -0.1218
  195loPI   C1B 3117  14.739   5.641  10.257  0.0925 -0.0000 -0.0193
  195loPI   C2B 3118  14.596   5.471   9.890  0.0315 -0.1493  0.1279
  195loPI   C3B 3119  14.711   5.509   9.329 -0.0752 -0.2925  0.0803
  195loPI   C4B 3120  14.863   5.266   8.981  0.0340 -0.1869 -0.1176
  196loPI    C1 3121   5.138  10.307  11.629  0.0412  0.0039  0.0788
  196loPI    C2 3122   5.061  10.049  11.925 -0.1226  0.1292  0.1472
  196loPI    C3 3123   5.338  10.334  11.975  0.0617 -0.0338  0.0701
  196loPI   PO4 3124   4.999  10.201  11.459  0.0547 -0.0108 -0.1655
  196loPI   GL1 3125   4.822  10.260  11.061 -0.1071 -0.2600  0.0271
  196loPI   GL2 3126   4.880   9.893  10.992  0.1358  0.2007 -0.0649
  196loPI   C1A 3127   4.826  10.494  10.628 -0.3817  0.0945 -0.0975
  196loPI   C2A 3128   4.864  10.431  10.180 -0.1609  0.0193 -0.0755
  196loPI   C3A 3129   4.842  10.479   9.693  0.0082 -0.2205  0.0079
  196loPI   C4A 3130   4.926  10.527   9.253  0.0825 -0.0514  0.0468
  196loPI   C5A 3131   5.191  10.666   8.923 -0.1064 -0.0558  0.3820
  196loPI   C6A 3132   5.633  10.959   8.843  0.0529 -0.1112  0.2552
  196loPI   C1B 3133   4.864   9.914  10.518  0.1728  0.2447 -0.2465
  196loPI   C2B 3134   4.815   9.923  10.067 -0.3421 -0.0231 -0.2150
  196loPI   C3B 3135   4.754   9.916   9.629 -0.0523  0.2956 -0.4649
  196loPI   C4B 3136   4.913  10.064   9.190 -0.1052  0.0834  0.3363
  197loPI    C1 3137   7.816  13.205  11.727 -0.3649 -0.2061 -0.0100
  197loPI    C2 3138   7.785  12.995  12.066 -0.1925 -0.0447  0.1076
  197loPI    C3 3139   7.829  13.392  12.080 -0.0566 -0.0507 -0.1005
  197loPI   PO4 3140   8.001  13.105  11.566 -0.0836 -0.0727  0.3692
  197loPI   GL1 3141   7.821  13.023  11.152  0.0207 -0.1594 -0.1155
  197loPI   GL2 3142   7.607  13.208  11.245  0.2392  0.1363  0.1569
  197loPI   C1A 3143   7.813  13.037  10.731  0.0954 -0.0384  0.1596
  197loPI   C2A 3144   7.869  13.005  10.299 -0.1792 -0.2075  0.0747
  197loPI   C3A 3145   7.831  13.012   9.933 -0.4246  0.0937 -0.0883
  197loPI   C4A 3146   7.822  13.015   9.435 -0.2239 -0.2419  0.0909
  197loPI   C5A 3147   8.192  13.046   9.183 -0.0192 -0.0158  0.1153
  197loPI   C6A 3148   8.493  12.812   8.902 -0.0415 -0.1387  0.0087
  197loPI   C1B 3149   7.401  13.287  10.806 -0.0600 -0.4258 -0.2080
  197loPI   C2B 3150   7.427  13.359  10.383  0.0452  0.0363 -0.0119
  197loPI   C3B 3151   7.377  13.392  10.046 -0.1991 -0.1233 -0.0098
  197loPI   C4B 3152   7.380  13.233   9.754 -0.0229  0.2134 -0.0374
  198loPI    C1 3153  14.811  13.658  11.092  0.1014 -0.1498 -0.0542
  198loPI    C2 3154  14.992  13.786  11.425  0.3250 -0.3480 -0.0963
  198loPI    C3 3155  14.741  13.475  11.441 -0.2648  0.1153  0.0169
  198loPI   PO4 3156  14.768  13.894  10.993 -0.4916  0.1011  0.1066
  198loPI   GL1 3157  14.999  14.232  10.782 -0.0022 -0.2030 -0.2493
  198loPI   GL2 3158  15.121  14.001  10.559 -0.0267  0.1375  0.0527
  198loPI   C1A 3159  14.696  14.348  10.453 -0.0302  0.1744  0.1011
  198loPI   C2A 3160  14.636  14.377  10.054  0.1233 -0.0437 -0.0978
  198loPI   C3A 3161  14.578  14.385   9.593 -0.3206 -0.1693  0.0576
  198loPI   C4A 3162  14.629  14.435   9.132  0.0571 -0.0921 -0.0127
  198loPI   C5A 3163  14.741  14.364   8.662 -0.0796 -0.2600  0.0023
  198loPI   C6A 3164  14.753  14.563   8.185  0.0340 -0.2294 -0.0939
  198loPI   C1B 3165  15.040  14.053  10.053 -0.1382  0.2282 -0.3129
  198loPI   C2B 3166  15.023  14.074   9.558  0.2404  0.2299 -0.0469
  198loPI   C3B 3167  15.062  14.151   9.225  0.1284  0.4080  0.2756
  198loPI   C4B 3168  15.157  14.477   8.989  0.0910 -0.0144  0.1598
  199loPI    C1 3169   9.305   7.032  11.760  0.2230  0.0430  0.0587
  199loPI    C2 3170   9.212   7.410  11.667  0.3437  0.0487 -0.0413
  199loPI    C3 3171   9.119   7.264  12.028  0.0361  0.0836 -0.1038
  199loPI   PO4 3172   9.283   6.958  11.577 -0.0514  0.2269  0.2565
  199loPI   GL1 3173   9.117   6.607  11.306  0.1849  0.2462  0.1640
  199loPI   GL2 3174   8.918   6.912  11.273  0.2352  0.0627  0.1233
  199loPI   C1A 3175   9.104   6.667  10.865 -0.0498 -0.1506  0.0185
  199loPI   C2A 3176   9.073   6.679  10.448 -0.1246 -0.2117  0.0219
  199loPI   C3A 3177   9.130   6.599   9.934 -0.2078  0.0344  0.1790
  199loPI   C4A 3178   9.142   6.533   9.582 -0.2140 -0.2651  0.3445
  199loPI   C5A 3179   8.915   6.668   9.232 -0.0636 -0.1953  0.1387
  199loPI   C6A 3180   9.025   6.875   8.815 -0.1260  0.0991 -0.3227
  199loPI   C1B 3181   8.694   6.894  10.911 -0.1108 -0.0922 -0.0039
  199loPI   C2B 3182   8.680   7.047  10.405  0.0441 -0.0706 -0.0405
  199loPI   C3B 3183   8.712   6.813  10.048  0.2705  0.0381 -0.0990
  199loPI   C4B 3184   8.719   6.839   9.645  0.0541 -0.0118  0.0939
  200loPI    C1 3185   3.345   5.978  11.642 -0.1274 -0.1115  0.1219
  200loPI    C2 3186   3.049   6.192  11.479  0.0197  0.0017  0.0008
  200loPI    C3 3187   2.997   6.019  11.836 -0.2453 -0.1076 -0.0880
  200loPI   PO4 3188   3.404   5.857  11.443 -0.0933 -0.0372  0.0065
  200loPI   GL1 3189   3.536   5.654  11.055 -0.2325  0.2464 -0.0617
  200loPI   GL2 3190   3.243   5.570  10.797  0.0965  0.0214 -0.0753
  200loPI   C1A 3191   3.710   5.810  10.560  0.1522  0.2517 -0.1208
  200loPI   C2A 3192   3.710   5.800  10.113  0.0984 -0.3149 -0.1297
  200loPI   C3A 3193   3.728   5.793   9.667 -0.2549 -0.2467  0.1060
  200loPI   C4A 3194   3.793   5.867   9.257  0.1835  0.0702  0.0339
  200loPI   C5A 3195   4.152   5.850   8.918  0.1481 -0.4402 -0.1656
  200loPI   C6A 3196   4.466   5.832   8.593  0.0505  0.1587 -0.1063
  200loPI   C1B 3197   3.250   5.607  10.371  0.0216  0.1798 -0.1027
  200loPI   C2B 3198   3.351   5.532   9.989 -0.1632 -0.2563  0.1440
  200loPI   C3B 3199   3.286   5.433   9.556 -0.1029 -0.0823  0.2117
  200loPI   C4B 3200   3.239   5.605   9.111 -0.1994  0.0132  0.1708
  201loPI    C1 3201  11.548  10.423  11.602 -0.0225 -0.2121  0.0433
  201loPI    C2 3202  11.619  10.456  11.994 -0.0155  0.2301  0.0094
  201loPI    C3 3203  11.871  10.621  11.730 -0.1676  0.1755 -0.1722
  201loPI   PO4 3204  11.255  10.447  11.550 -0.1826  0.0736 -0.0324
  201loPI   GL1 3205  10.848  10.483  11.242  0.1126 -0.2714 -0.0956
  201loPI   GL2 3206  11.168  10.402  11.056 -0.1213  0.2227  0.2083
  201loPI   C1A 3207  10.593  10.424  10.924  0.5041 -0.1241  0.0381
  201loPI   C2A 3208  10.528  10.409  10.451  0.1971 -0.3152  0.1696
  201loPI   C3A 3209  10.501  10.624  10.146  0.0421 -0.0136  0.0970
  201loPI   C4A 3210  10.362  10.676   9.781 -0.2287 -0.0221  0.1216
  201loPI   C5A 3211  10.448  10.638   9.365 -0.3448  0.4488 -0.1129
  201loPI   C6A 3212  10.283  10.687   9.058  0.1694 -0.1452  0.0656
  201loPI   C1B 3213  11.086  10.442  10.654 -0.0120 -0.2513  0.0429
  201loPI   C2B 3214  11.009  10.454  10.213 -0.0461 -0.2420 -0.2037
  201loPI   C3B 3215  10.761  10.322   9.761  0.0908  0.0935  0.0551
  201loPI   C4B 3216  10.937  10.345   9.387  0.1088 -0.3384  0.0558
  202loPI    C1 3217  13.114  14.090  11.522  0.2044  0.0369  0.2892
  202loPI    C2 3218  13.211  13.826  11.237 -0.2955  0.2560 -0.1013
  202loPI    C3 3219  13.275  13.738  11.622  0.1439 -0.1573 -0.2583
  202loPI   PO4 3220  13.062  14.303  11.292 -0.2884 -0.3519  0.2042
  202loPI   GL1 3221  12.785  14.276  10.935  0.1225  0.0669 -0.3436
  202loPI   GL2 3222  12.820  14.645  10.914  0.0862 -0.1132  0.0159
  202loPI   C1A 3223  12.691  14.268  10.515 -0.1650 -0.0350 -0.5139
  202loPI   C2A 3224  12.551  14.307  10.051 -0.0578  0.0555  0.0542
  202loPI   C3A 3225  12.328  14.356   9.781 -0.1925 -0.0849  0.0012
  202loPI   C4A 3226  12.392  14.337   9.346 -0.2808  0.0777 -0.0749
  202loPI   C5A 3227  12.405  14.518   9.063  0.1554 -0.0043 -0.0438
  202loPI   C6A 3228  12.428  14.378   8.601 -0.1189 -0.0770  0.0133
  202loPI   C1B 3229  12.964  14.665  10.484  0.0400 -0.2480 -0.0914
  202loPI   C2B 3230  12.900  14.663  10.090  0.0491  0.1445  0.2863
  202loPI   C3B 3231  12.881  14.547   9.700 -0.1238  0.0138 -0.1360
  202loPI   C4B 3232  12.857  14.592   9.222  0.1042 -0.1189  0.0780
  203loPI    C1 3233   7.398   9.810  12.021  0.0515 -0.1188  0.0917
  203loPI    C2 3234   7.079   9.914  12.239  0.0742  0.0370  0.0523
  203loPI    C3 3235   7.251   9.557  12.292  0.0207  0.0357  0.2210
  203loPI   PO4 3236   7.383   9.785  11.727 -0.2253  0.1034 -0.0609
  203loPI   GL1 3237   7.418   9.460  11.354  0.2178  0.0520 -0.0815
  203loPI   GL2 3238   7.527   9.181  11.398 -0.2091  0.1121 -0.0859
  203loPI   C1A 3239   7.185   9.542  11.031  0.0885 -0.1635  0.0565
  203loPI   C2A 3240   7.155   9.686  10.675  0.2360 -0.0955  0.0317
  203loPI   C3A 3241   7.057   9.502  10.283  0.1877  0.1040  0.0587
  203loPI   C4A 3242   7.097   9.524   9.899 -0.3331  0.1884  0.0676
  203loPI   C5A 3243   7.074   9.469   9.465 -0.1693 -0.1404 -0.2616
  203loPI   C6A 3244   7.080   9.183   9.254 -0.0071 -0.1120  0.2329
  203loPI   C1B 3245   7.642   9.257  10.994  0.0434  0.2174 -0.2415
  203loPI   C2B 3246   7.590   9.347  10.505  0.0742 -0.3603  0.0877
  203loPI   C3B 3247   7.522   9.303  10.059  0.0156 -0.3504 -0.2301
  203loPI   C4B 3248   7.512   9.217   9.564 -0.1539  0.1663  0.0472
  204loPI    C1 3249   2.088  11.961  11.997  0.1079  0.2499  0.0238
  204loPI    C2 3250   1.750  12.034  12.199  0.0923  0.0849  0.0593
  204loPI    C3 3251   2.098  12.007  12.394  0.0427 -0.3198  0.1004
  204loPI   PO4 3252   2.191  12.083  11.785 -0.0315 -0.0376 -0.0315
  204loPI   GL1 3253   2.519  12.038  11.431  0.2369  0.2219  0.0828
  204loPI   GL2 3254   2.377  11.882  11.199  0.0600 -0.0793  0.2620
  204loPI   C1A 3255   2.645  12.216  10.932 -0.2808  0.1205 -0.1292
  204loPI   C2A 3256   2.678  12.423  10.531  0.2919 -0.1673  0.3449
  204loPI   C3A 3257   2.731  12.320  10.132 -0.0781 -0.0100  0.0433
  204loPI   C4A 3258   2.823  12.381   9.648 -0.1755 -0.4001 -0.0747
  204loPI   C5A 3259   2.820  12.359   9.205  0.0098 -0.1910  0.1087
  204loPI   C6A 3260   2.824  12.590   8.811  0.0001  0.0989  0.0022
  204loPI   C1B 3261   2.622  11.798  10.739 -0.0205  0.3223  0.2399
  204loPI   C2B 3262   2.625  11.855  10.317  0.1917 -0.2786 -0.1836
  204loPI   C3B 3263   2.693  11.858   9.853  0.3168 -0.2294 -0.0013
  204loPI   C4B 3264   2.769  11.901   9.391 -0.0134 -0.2259 -0.1853
  205loPI    C1 3265   5.887  10.141  12.023 -0.1095 -0.1322  0.2593
  205loPI    C2 3266   6.150   9.852  11.938  0.1247  0.1693 -0.0726
  205loPI    C3 3267   6.275  10.194  12.103 -0.1441  0.1032  0.2801
  205loPI   PO4 3268   5.753  10.216  11.706 -0.2489 -0.0219  0.0542
  205loPI   GL1 3269   5.864  10.456  11.254  0.1574  0.0334 -0.1330
  205loPI   GL2 3270   5.700  10.792  11.216 -0.1733  0.0630  0.1072
  205loPI   C1A 3271   5.799  10.458  10.797 -0.0306  0.0332 -0.0609
  205loPI   C2A 3272   5.807  10.498  10.353 -0.0256  0.0528 -0.3216
  205loPI   C3A 3273   5.793  10.419   9.921 -0.1354 -0.2070 -0.0658
  205loPI   C4A 3274   5.801  10.353   9.535  0.2884  0.0051 -0.0857
  205loPI   C5A 3275   5.530  10.322   9.136  0.1191  0.0137 -0.0841
  205loPI   C6A 3276   5.290  10.039   8.818 -0.0006  0.2017  0.2994
  205loPI   C1B 3277   5.783  10.962  10.802 -0.0486  0.0412  0.0772
  205loPI   C2B 3278   5.823  10.983  10.429 -0.0073 -0.0900 -0.1271
  205loPI   C3B 3279   5.911  10.899   9.999  0.1531  0.0099 -0.2102
  205loPI   C4B 3280   5.730  10.858   9.676  0.2604  0.0819  0.3310
  206loPI    C1 3281   1.860   4.178  11.283  0.0318 -0.0355 -0.0359
  206loPI    C2 3282   1.728   4.396  10.975 -0.0485 -0.0177  0.0106
  206loPI    C3 3283   1.544   4.419  11.330  0.0649 -0.0119  0.0696
  206loPI   PO4 3284   1.934   3.976  11.134  0.4316 -0.0297  0.0227
  206loPI   GL1 3285   2.224   3.898  10.818  0.2572  0.1045  0.1604
  206loPI   GL2 3286   2.114   4.229  10.724 -0.0353 -0.3139 -0.2654
  206loPI   C1A 3287   2.537   3.815  10.548  0.0827  0.1244  0.0699
  206loPI   C2A 3288   2.714   3.714  10.059 -0.0309 -0.4558 -0.0063
  206loPI   C3A 3289   2.719   3.666   9.595  0.1376 -0.2887 -0.0493
  206loPI   C4A 3290   2.811   3.664   9.195 -0.2708  0.0927  0.0893
  206loPI   C5A 3291   2.615   3.600   8.702 -0.0965 -0.0029  0.2669
  206loPI   C6A 3292   2.493   3.255   8.540  0.4186 -0.1202 -0.0084
  206loPI   C1B 3293   2.180   4.034  10.240 -0.3353 -0.3120  0.1281
  206loPI   C2B 3294   2.278   3.882   9.870 -0.0293  0.1405  0.0835
  206loPI   C3B 3295   2.293   3.889   9.494 -0.1955  0.0683  0.3094
  206loPI   C4B 3296   2.346   3.860   9.038 -0.2250 -0.2748  0.4406
  207loPI    C1 3297  15.714   3.731  11.576  0.0985 -0.1439 -0.0220
  207loPI    C2 3298  15.975   4.019  11.672 -0.1546  0.1039 -0.0632
  207loPI    C3 3299  15.804   3.800  11.960 -0.0822  0.1025 -0.0212
  207loPI   PO4 3300  15.749   3.589  11.375 -0.0467 -0.2537  0.0818
  207loPI   GL1 3301  15.568   3.435  11.010 -0.2778  0.0037  0.0968
  207loPI   GL2 3302  15.679   3.189  10.891  0.3237  0.0718 -0.0528
  207loPI   C1A 3303  15.316   3.413  10.594 -0.1399 -0.1883 -0.0769
  207loPI   C2A 3304  15.387   3.364  10.106  0.0753 -0.1328  0.0335
  207loPI   C3A 3305  15.467   3.449   9.732  0.0242 -0.1226 -0.2655
  207loPI   C4A 3306  15.267   3.276   9.341 -0.0550 -0.2236  0.1203
  207loPI   C5A 3307  15.571   3.402   8.981 -0.1403  0.0126  0.1277
  207loPI   C6A 3308  15.246   3.501   8.712 -0.1310 -0.2377 -0.1529
  207loPI   C1B 3309  15.782   3.100  10.447  0.1297 -0.0663 -0.1826
  207loPI   C2B 3310  15.797   3.140   9.949  0.0493 -0.1553  0.2229
  207loPI   C3B 3311  15.864   3.221   9.512  0.3501 -0.1236 -0.2079
  207loPI   C4B 3312  16.058   3.299   9.127  0.0969 -0.0134 -0.0604
  208loPI    C1 3313   9.032  12.723  11.902 -0.0203 -0.0885 -0.0970
  208loPI    C2 3314   9.381  12.889  11.799  0.0026 -0.2327 -0.2572
  208loPI    C3 3315   9.376  12.561  12.028 -0.0363 -0.1157 -0.0883
  208loPI   PO4 3316   8.852  12.621  11.656 -0.0774  0.0033 -0.2585
  208loPI   GL1 3317   9.027  12.801  11.399 -0.1359 -0.0018  0.1839
  208loPI   GL2 3318   8.803  12.867  11.225  0.0836  0.1041 -0.1880
  208loPI   C1A 3319   9.254  13.033  11.113  0.0525 -0.2375 -0.0460
  208loPI   C2A 3320   9.339  13.127  10.690  0.5220  0.0993 -0.0053
  208loPI   C3A 3321   9.274  13.097  10.307  0.0248  0.2484 -0.0182
  208loPI   C4A 3322   9.243  13.299   9.887 -0.1593 -0.0139 -0.0550
  208loPI   C5A 3323   9.324  13.496   9.511 -0.2435 -0.0964  0.2159
  208loPI   C6A 3324   9.381  13.825   9.293 -0.0406  0.1232  0.0057
  208loPI   C1B 3325   8.730  12.882  10.838 -0.2956  0.0049  0.0346
  208loPI   C2B 3326   8.661  12.909  10.395  0.0096 -0.2714 -0.0406
  208loPI   C3B 3327   8.752  12.993   9.898  0.0830  0.0448  0.1165
  208loPI   C4B 3328   8.943  13.052   9.549  0.0072  0.0209 -0.1771
  209loPI    C1 3329  15.358   2.786  11.678  0.0103 -0.1894 -0.0282
  209loPI    C2 3330  15.736   2.750  11.804  0.0292 -0.2583 -0.1036
  209loPI    C3 3331  15.436   2.761  12.069  0.0766 -0.2997 -0.0481
  209loPI   PO4 3332  15.286   2.616  11.422 -0.3037  0.2786 -0.0545
  209loPI   GL1 3333  15.258   2.672  11.059  0.2729 -0.1204  0.1635
  209loPI   GL2 3334  15.114   2.375  10.975 -0.1113 -0.0040  0.2483
  209loPI   C1A 3335  15.442   2.765  10.694 -0.1007  0.0023 -0.0956
  209loPI   C2A 3336  15.355   2.845  10.247  0.2786  0.1281  0.2320
  209loPI   C3A 3337  15.408   2.779   9.859 -0.1123 -0.0176  0.1870
  209loPI   C4A 3338  15.357   2.801   9.416 -0.1287  0.0107 -0.0204
  209loPI   C5A 3339  15.629   2.944   9.126 -0.3265  0.0795 -0.1798
  209loPI   C6A 3340  15.709   2.978   8.662  0.2118  0.0168 -0.0091
  209loPI   C1B 3341  15.334   2.226  10.550  0.3787  0.3437 -0.1492
  209loPI   C2B 3342  15.390   2.332  10.132 -0.2070 -0.0843 -0.1038
  209loPI   C3B 3343  15.323   2.201   9.736  0.1156  0.0763  0.1564
  209loPI   C4B 3344  15.269   2.144   9.324 -0.0087  0.0307 -0.2158
  210loPI    C1 3345  14.345   2.357  11.622  0.0435 -0.1043 -0.0905
  210loPI    C2 3346  14.454   2.138  11.939  0.0187  0.0487  0.0252
  210loPI    C3 3347  14.586   2.514  11.901 -0.0585  0.0642 -0.0953
  210loPI   PO4 3348  14.405   2.226  11.430 -0.1600 -0.4653  0.1385
  210loPI   GL1 3349  14.187   1.995  11.095  0.0371 -0.1381 -0.1587
  210loPI   GL2 3350  14.315   1.820  10.864 -0.0171  0.0680 -0.2231
  210loPI   C1A 3351  14.010   2.084  10.603 -0.0132 -0.1667  0.2024
  210loPI   C2A 3352  14.018   2.019  10.118  0.1553 -0.0423  0.0441
  210loPI   C3A 3353  14.080   1.968   9.777  0.1388  0.0784 -0.0871
  210loPI   C4A 3354  13.921   1.767   9.377  0.0467 -0.0045 -0.0976
  210loPI   C5A 3355  13.828   1.664   9.024 -0.3146  0.1515  0.0547
  210loPI   C6A 3356  14.121   1.542   8.597  0.1019  0.0714  0.1633
  210loPI   C1B 3357  14.413   1.760  10.444  0.0594  0.0833  0.2902
  210loPI   C2B 3358  14.468   1.727   9.989  0.0939 -0.0264  0.2080
  210loPI   C3B 3359  14.388   1.705   9.514 -0.1969 -0.2165 -0.0585
  210loPI   C4B 3360  14.333   1.681   9.053 -0.0097  0.1664  0.2482
  211loPI    C1 3361   9.261   4.538  11.864 -0.0013 -0.0832 -0.1897
  211loPI    C2 3362   8.972   4.268  11.803 -0.0427 -0.0434 -0.1707
  211loPI    C3 3363   8.996   4.459  12.153  0.2080 -0.2886 -0.0503
  211loPI   PO4 3364   9.452   4.380  11.715  0.0384  0.3210  0.2933
  211loPI   GL1 3365   9.540   4.353  11.260 -0.2180 -0.0191  0.0127
  211loPI   GL2 3366   9.113   4.323  11.193  0.0802  0.1694 -0.3437
  211loPI   C1A 3367   9.694   4.269  10.882 -0.4253  0.2729  0.1731
  211loPI   C2A 3368   9.653   4.191  10.453  0.0195  0.0848  0.2827
  211loPI   C3A 3369   9.522   4.157  10.051 -0.0230 -0.0870 -0.0103
  211loPI   C4A 3370   9.583   4.211   9.524 -0.0930  0.1588 -0.0890
  211loPI   C5A 3371   9.768   4.018   9.252 -0.0597 -0.2171  0.2074
  211loPI   C6A 3372  10.251   4.012   9.184  0.1074  0.1455  0.1764
  211loPI   C1B 3373   9.221   4.319  10.722  0.1021  0.1386  0.1032
  211loPI   C2B 3374   9.119   4.459  10.281  0.0033  0.1132  0.3248
  211loPI   C3B 3375   9.181   4.543   9.811  0.1875 -0.2020 -0.0989
  211loPI   C4B 3376   9.207   4.537   9.398  0.1476  0.0470  0.1338
  212loPI    C1 3377  13.913  15.224  11.484 -0.1614 -0.1124 -0.0826
  212loPI    C2 3378  13.594  15.009  11.375 -0.1278 -0.1962 -0.0174
  212loPI    C3 3379  13.697  15.032  11.761 -0.1319 -0.0617 -0.0239
  212loPI   PO4 3380  13.890  15.416  11.325 -0.0256  0.0609  0.0598
  212loPI   GL1 3381  13.703  15.412  10.972 -0.1400 -0.2353 -0.3385
  212loPI   GL2 3382  13.471  15.338  10.932 -0.0953  0.1274 -0.0427
  212loPI   C1A 3383  13.817  15.170  10.647 -0.0871 -0.1178 -0.0950
  212loPI   C2A 3384  13.833  15.070  10.177 -0.1633  0.3651 -0.1478
  212loPI   C3A 3385  13.786  15.067   9.776  0.0543 -0.2680  0.1150
  212loPI   C4A 3386  13.843  15.071   9.422 -0.3139 -0.1295 -0.0259
  212loPI   C5A 3387  13.850  14.969   9.072  0.1150 -0.0192 -0.0294
  212loPI   C6A 3388  14.112  15.025   8.603  0.1896 -0.1708 -0.1999
  212loPI   C1B 3389  13.468  15.423  10.458 -0.1820 -0.2974 -0.2223
  212loPI   C2B 3390  13.414  15.364  10.060 -0.2644 -0.2040  0.1305
  212loPI   C3B 3391  13.421  15.304   9.626  0.0433 -0.1185  0.3785
  212loPI   C4B 3392  13.416  15.332   9.268  0.1669  0.0689  0.0577
  213loPI    C1 3393  14.433  10.773  11.405  0.1621  0.1677 -0.0854
  213loPI    C2 3394  14.789  10.858  11.565  0.2438  0.0218 -0.1874
  213loPI    C3 3395  14.593  10.527  11.677 -0.0015  0.2562  0.0937
  213loPI   PO4 3396  14.489  10.855  11.162 -0.0708 -0.1192  0.2893
  213loPI   GL1 3397  14.586  10.589  10.734 -0.0375  0.3535 -0.2015
  213loPI   GL2 3398  14.848  10.673  10.602  0.0465  0.0170  0.0397
  213loPI   C1A 3399  14.335  10.545  10.369 -0.2877 -0.0705  0.1182
  213loPI   C2A 3400  14.388  10.573   9.881 -0.0488 -0.1326 -0.1342
  213loPI   C3A 3401  14.334  10.530   9.410 -0.0366 -0.2146  0.0602
  213loPI   C4A 3402  14.487  10.666   9.047 -0.2470  0.1526 -0.1408
  213loPI   C5A 3403  14.628  10.405   8.729 -0.4415  0.2599  0.0852
  213loPI   C6A 3404  14.761  10.112   8.428 -0.0506 -0.0136 -0.0600
  213loPI   C1B 3405  14.845  10.726  10.232  0.2687  0.2087  0.0610
  213loPI   C2B 3406  14.792  10.811   9.794  0.4808 -0.2302 -0.0359
  213loPI   C3B 3407  14.818  11.023   9.410  0.1602 -0.1903 -0.2048
  213loPI   C4B 3408  14.940  11.071   8.969 -0.1039 -0.0061  0.2281
  214loPI    C1 3409   2.295  15.910  11.779 -0.1982 -0.1715 -0.1888
  214loPI    C2 3410   1.943  15.888  11.967 -0.0153  0.0531  0.1926
  214loPI    C3 3411   2.200  16.181  12.058  0.2394 -0.0616 -0.1387
  214loPI   PO4 3412   2.287  15.890  11.504  0.1089  0.0876  0.0487
  214loPI   GL1 3413   2.181  15.666  11.144  0.1745 -0.1552  0.0529
  214loPI   GL2 3414   2.109  15.971  11.028  0.0585 -0.0451 -0.0555
  214loPI   C1A 3415   1.952  15.573  10.658 -0.1411  0.0542 -0.0233
  214loPI   C2A 3416   2.062  15.566  10.153  0.0021  0.0316 -0.1727
  214loPI   C3A 3417   2.076  15.557   9.707 -0.0176 -0.0694  0.0651
  214loPI   C4A 3418   2.088  15.483   9.329  0.1210  0.1294  0.0219
  214loPI   C5A 3419   2.411  15.633   8.938  0.0287 -0.0858  0.2826
  214loPI   C6A 3420   2.532  15.686   8.565 -0.1470  0.3941  0.1371
  214loPI   C1B 3421   2.086  16.081  10.569  0.4800 -0.3311  0.1044
  214loPI   C2B 3422   2.070  16.064  10.180 -0.2211  0.2498 -0.0177
  214loPI   C3B 3423   2.101  16.042   9.778 -0.0881 -0.2682 -0.1491
  214loPI   C4B 3424   2.157  16.012   9.308  0.0773  0.2696  0.0115
  215loPI    C1 3425   8.264  17.034  11.684  0.0484 -0.0960  0.1806
  215loPI    C2 3426   8.445  16.902  12.015  0.2655  0.0907  0.1393
  215loPI    C3 3427   8.267  17.260  12.014 -0.0924 -0.0827  0.1733
  215loPI   PO4 3428   8.441  16.957  11.474  0.1247 -0.1284  0.0142
  215loPI   GL1 3429   8.537  16.701  11.191  0.2190 -0.0786 -0.1984
  215loPI   GL2 3430   8.304  16.432  11.140 -0.1425  0.1167  0.0608
  215loPI   C1A 3431   8.481  16.922  10.807  0.1931  0.1912  0.2355
  215loPI   C2A 3432   8.476  16.851  10.369  0.0928  0.1221 -0.6309
  215loPI   C3A 3433   8.461  16.910   9.907 -0.0999 -0.0342  0.1094
  215loPI   C4A 3434   8.458  16.898   9.457 -0.0204 -0.0633 -0.1386
  215loPI   C5A 3435   8.819  17.055   9.388  0.0336  0.3111  0.0699
  215loPI   C6A 3436   8.975  17.330   9.094  0.0407  0.0841  0.1608
  215loPI   C1B 3437   8.498  16.347  10.777  0.1351 -0.0654  0.0269
  215loPI   C2B 3438   8.451  16.325  10.408  0.0010  0.0884 -0.0257
  215loPI   C3B 3439   8.465  16.411   9.977  0.1411 -0.1653 -0.1839
  215loPI   C4B 3440   8.527  16.354   9.551 -0.0470 -0.1966  0.4143
  216loPI    C1 3441   7.495   2.127  12.192  0.0560  0.0402 -0.1426
  216loPI    C2 3442   7.113   2.009  12.205  0.0113  0.1823 -0.1468
  216loPI    C3 3443   7.406   1.749  12.286 -0.0899  0.0942 -0.0603
  216loPI   PO4 3444   7.521   2.239  11.951 -0.2517 -0.1081  0.4059
  216loPI   GL1 3445   7.576   2.165  11.542  0.2307  0.1463 -0.1336
  216loPI   GL2 3446   7.912   2.104  11.530  0.4387 -0.1093  0.1461
  216loPI   C1A 3447   7.724   2.193  11.107  0.0510  0.4051  0.1228
  216loPI   C2A 3448   7.756   2.179  10.650 -0.0771 -0.2223 -0.0278
  216loPI   C3A 3449   7.730   2.255  10.219 -0.0380  0.3391 -0.1190
  216loPI   C4A 3450   7.637   2.154   9.856 -0.0344  0.1268  0.1911
  216loPI   C5A 3451   7.543   2.244   9.426 -0.0169  0.0988 -0.2006
  216loPI   C6A 3452   7.318   2.251   9.168 -0.0437  0.0653  0.1036
  216loPI   C1B 3453   8.176   1.951  11.161 -0.0942 -0.1680  0.4288
  216loPI   C2B 3454   8.208   1.886  10.724  0.2545 -0.0354  0.2641
  216loPI   C3B 3455   8.203   1.933  10.243  0.6037  0.2020 -0.3215
  216loPI   C4B 3456   8.102   1.957   9.866 -0.2032 -0.2346 -0.1662
  217loPI    C1 3457  10.462   8.663  11.658  0.1629  0.0222  0.1568
  217loPI    C2 3458  10.596   8.577  12.026 -0.1246 -0.3517  0.1804
  217loPI    C3 3459  10.208   8.656  11.967 -0.0060  0.1564  0.0228
  217loPI   PO4 3460  10.752   8.511  11.512  0.0588  0.1924 -0.0611
  217loPI   GL1 3461  10.636   8.380  11.059  0.0000 -0.4204  0.0929
  217loPI   GL2 3462  10.402   8.643  11.149 -0.2353  0.0255 -0.4465
  217loPI   C1A 3463  10.848   8.436  10.633 -0.0987  0.1734 -0.3861
  217loPI   C2A 3464  10.638   8.390  10.221  0.1002 -0.2178 -0.0228
  217loPI   C3A 3465  10.586   8.376   9.846 -0.0852 -0.0097 -0.1170
  217loPI   C4A 3466  10.697   8.401   9.530 -0.0754 -0.0550  0.1039
  217loPI   C5A 3467  10.992   8.370   9.135 -0.2529  0.5781 -0.0541
  217loPI   C6A 3468  11.378   8.276   8.949 -0.1916  0.2131  0.0973
  217loPI   C1B 3469  10.370   8.617  10.660  0.2540  0.1600  0.3387
  217loPI   C2B 3470  10.211   8.607  10.305 -0.0911  0.0180  0.2030
  217loPI   C3B 3471  10.252   8.717   9.973  0.0386 -0.1409 -0.4089
  217loPI   C4B 3472  10.125   8.604   9.646 -0.0585 -0.0283  0.1852
  218loPI    C1 3473  16.204  16.965  11.571 -0.1253  0.0233 -0.0012
  218loPI    C2 3474  15.901  17.095  11.797 -0.1307 -0.0610  0.0405
  218loPI    C3 3475  16.278  17.162  11.911 -0.1321 -0.3025  0.1927
  218loPI   PO4 3476  16.206  17.027  11.311 -0.2420  0.0168  0.2342
  218loPI   GL1 3477  16.045  16.999  10.894  0.0115  0.3164  0.0300
  218loPI   GL2 3478  15.741  17.136  10.888  0.2224 -0.0482 -0.5569
  218loPI   C1A 3479  15.862  16.679  10.579 -0.0575 -0.1129  0.1323
  218loPI   C2A 3480  15.773  16.703  10.151  0.2355  0.1910 -0.0185
  218loPI   C3A 3481  15.782  16.718   9.793  0.3131 -0.1613  0.0285
  218loPI   C4A 3482  15.675  16.589   9.363  0.0337  0.1310  0.1912
  218loPI   C5A 3483  15.324  16.629   9.237  0.0240 -0.0476  0.1494
  218loPI   C6A 3484  15.253  16.871   9.037  0.0252 -0.0350  0.2173
  218loPI   C1B 3485  15.792  17.153  10.452 -0.1392 -0.0940 -0.1534
  218loPI   C2B 3486  15.706  17.192  10.077 -0.1369 -0.0334 -0.4084
  218loPI   C3B 3487  15.713  17.253   9.680  0.4226  0.1804  0.1420
  218loPI   C4B 3488  15.539  17.157   9.343 -0.0085  0.3091 -0.1669
  219loPI    C1 3489  16.981  14.362  11.236 -0.1043 -0.0657  0.0262
  219loPI    C2 3490  17.318  14.188  11.363  0.0281  0.1570 -0.0148
  219loPI    C3 3491  17.073  14.364  11.625 -0.0779 -0.0399  0.0199
  219loPI   PO4 3492  16.986  14.456  10.987 -0.2171 -0.0353  0.0304
  219loPI   GL1 3493  16.770  14.226  10.712 -0.2464  0.1898  0.2189
  219loPI   GL2 3494  16.745  13.926  10.598  0.0046  0.0597 -0.1266
  219loPI   C1A 3495  16.860  14.300  10.273  0.2885 -0.3813  0.2895
  219loPI   C2A 3496  16.923  14.270   9.838 -0.0648 -0.1547  0.0851
  219loPI   C3A 3497  16.913  14.304   9.397 -0.1514  0.0975 -0.3078
  219loPI   C4A 3498  16.836  14.412   8.981  0.2892 -0.1345 -0.0002
  219loPI   C5A 3499  16.710  14.657   8.617  0.2766  0.0163 -0.2988
  219loPI   C6A 3500  16.508  14.872   8.313  0.2137 -0.0665 -0.0164
  219loPI   C1B 3501  16.928  13.808  10.130 -0.2204  0.1779 -0.2812
  219loPI   C2B 3502  16.966  13.836   9.672 -0.2813 -0.1619 -0.1926
  219loPI   C3B 3503  16.870  13.845   9.294  0.1504  0.0628 -0.1293
  219loPI   C4B 3504  17.001  13.916   8.942 -0.4454 -0.1764 -0.0039
  220loPI    C1 3505  13.544   4.296  11.709 -0.1445 -0.0539 -0.0448
  220loPI    C2 3506  13.774   4.409  12.016 -0.1323  0.0366 -0.0868
  220loPI    C3 3507  13.543   4.084  12.048  0.1049 -0.1355 -0.0927
  220loPI   PO4 3508  13.327   4.456  11.626 -0.3020  0.2811 -0.2320
  220loPI   GL1 3509  13.143   4.553  11.254 -0.1848 -0.2171 -0.0036
  220loPI   GL2 3510  12.862   4.576  11.151  0.2570  0.1996 -0.1329
  220loPI   C1A 3511  13.439   4.553  10.870  0.0759 -0.0591 -0.0174
  220loPI   C2A 3512  13.216   4.366  10.367 -0.4761  0.1139  0.1362
  220loPI   C3A 3513  13.221   4.216   9.912 -0.1598 -0.0504 -0.0000
  220loPI   C4A 3514  13.238   4.091   9.540 -0.0041  0.0806 -0.2167
  220loPI   C5A 3515  12.893   3.966   9.223 -0.0275  0.1413  0.0221
  220loPI   C6A 3516  12.959   3.852   8.844  0.0247  0.0030  0.0257
  220loPI   C1B 3517  12.950   4.710  10.765 -0.0520  0.1213  0.0791
  220loPI   C2B 3518  12.986   4.779  10.332 -0.0053 -0.1628  0.1924
  220loPI   C3B 3519  12.956   4.699   9.932  0.1005  0.3683  0.2582
  220loPI   C4B 3520  12.863   4.423   9.668  0.1266  0.0892 -0.1163
  221loPI    C1 3521  14.568   7.563  11.018 -0.0758  0.0968 -0.1235
  221loPI    C2 3522  14.894   7.755  11.149  0.0869 -0.1285 -0.1919
  221loPI    C3 3523  14.547   7.794  11.344  0.1986 -0.0336 -0.0099
  221loPI   PO4 3524  14.730   7.343  10.832  0.0092 -0.2954 -0.3124
  221loPI   GL1 3525  14.568   7.516  10.540  0.0633 -0.1946 -0.0494
  221loPI   GL2 3526  14.317   7.809  10.606 -0.0923 -0.2363 -0.2861
  221loPI   C1A 3527  14.785   7.613  10.206 -0.0791  0.3438  0.0131
  221loPI   C2A 3528  15.034   7.530   9.911 -0.0172 -0.3884  0.2081
  221loPI   C3A 3529  15.056   7.517   9.543  0.0086 -0.3182  0.4974
  221loPI   C4A 3530  15.092   7.411   9.131 -0.1451  0.0956 -0.0655
  221loPI   C5A 3531  15.273   7.274   8.824 -0.0630  0.1395  0.1332
  221loPI   C6A 3532  15.357   7.236   8.397  0.0403  0.0059  0.1514
  221loPI   C1B 3533  14.256   7.850  10.218 -0.2049 -0.0632  0.0798
  221loPI   C2B 3534  14.239   7.983   9.846  0.0880  0.3788 -0.1164
  221loPI   C3B 3535  14.149   8.184   9.428  0.1240 -0.0937  0.0205
  221loPI   C4B 3536  14.199   7.990   9.057 -0.0333  0.1295  0.2237
  222loPI    C1 3537   9.811   1.827  11.963 -0.2727 -0.3371  0.0099
  222loPI    C2 3538   9.660   2.187  12.047  0.0665 -0.1516 -0.1511
  222loPI    C3 3539   9.766   1.941  12.343 -0.0650 -0.0767 -0.0402
  222loPI   PO4 3540   9.618   1.707  11.802 -0.3091  0.1463  0.0513
  222loPI   GL1 3541   9.509   1.679  11.354 -0.0554 -0.1701  0.0279
  222loPI   GL2 3542   9.120   1.477  11.300  0.2701  0.0298  0.0590
  222loPI   C1A 3543   9.547   1.602  10.895  0.0166  0.3160 -0.0906
  222loPI   C2A 3544   9.568   1.650  10.487 -0.2927  0.1870  0.1376
  222loPI   C3A 3545   9.469   1.665  10.125 -0.0093  0.1377  0.0579
  222loPI   C4A 3546   9.503   1.643   9.679  0.0349  0.0884  0.1965
  222loPI   C5A 3547   9.540   1.510   9.218  0.0043  0.0240  0.1166
  222loPI   C6A 3548   9.690   1.381   8.817 -0.0609 -0.0099  0.0158
  222loPI   C1B 3549   9.063   1.393  10.831  0.0500 -0.1201  0.2347
  222loPI   C2B 3550   9.123   1.400  10.416  0.1535 -0.0934 -0.0997
  222loPI   C3B 3551   9.023   1.347   9.988 -0.2622  0.0591 -0.0906
  222loPI   C4B 3552   9.052   1.580   9.486 -0.2880 -0.0701  0.1799
  223loPI    C1 3553   1.074  14.143  11.536  0.0181  0.1576 -0.0867
  223loPI    C2 3554   1.049  13.791  11.723  0.1914  0.1079 -0.1547
  223loPI    C3 3555   0.761  14.064  11.772 -0.0233 -0.1016 -0.2243
  223loPI   PO4 3556   1.097  14.042  11.321 -0.2170 -0.2042 -0.0299
  223loPI   GL1 3557   1.293  13.876  11.011  0.0647 -0.1597  0.1749
  223loPI   GL2 3558   1.310  14.244  10.922 -0.1751  0.4874 -0.0086
  223loPI   C1A 3559   1.513  13.695  10.684  0.0693  0.1883 -0.2389
  223loPI   C2A 3560   1.483  13.794  10.343 -0.0321  0.2414  0.0501
  223loPI   C3A 3561   1.519  13.755   9.822  0.1374  0.3834 -0.1195
  223loPI   C4A 3562   1.573  13.868   9.388  0.1163  0.1159  0.1084
  223loPI   C5A 3563   1.430  13.715   9.025  0.0998 -0.2052  0.0634
  223loPI   C6A 3564   1.485  13.527   8.533  0.0194 -0.1113 -0.0308
  223loPI   C1B 3565   1.508  14.314  10.472  0.0017 -0.3132 -0.0606
  223loPI   C2B 3566   1.486  14.315   9.987 -0.4193 -0.3306 -0.2305
  223loPI   C3B 3567   1.510  14.304   9.517  0.1292 -0.1311 -0.0481
  223loPI   C4B 3568   1.709  14.243   9.149  0.3708 -0.2142  0.0389
  224loPI    C1 3569   3.261   0.170  11.688 -0.0983 -0.1681 -0.1109
  224loPI    C2 3570   3.247  -0.226  11.742  0.4010 -0.1866 -0.0720
  224loPI    C3 3571   3.298   0.016  12.056  0.0235 -0.0811 -0.0863
  224loPI   PO4 3572   3.186   0.208  11.426 -0.0923 -0.0660 -0.2434
  224loPI   GL1 3573   3.048   0.185  11.060 -0.1816  0.0775  0.1998
  224loPI   GL2 3574   3.301   0.080  10.883  0.0174  0.2862  0.0630
  224loPI   C1A 3575   2.932   0.317  10.616 -0.0617 -0.0341 -0.0626
  224loPI   C2A 3576   2.993   0.343  10.203  0.1861  0.0239 -0.3134
  224loPI   C3A 3577   3.123   0.262   9.706  0.1948 -0.0855 -0.1884
  224loPI   C4A 3578   3.129   0.246   9.302 -0.0567  0.1507  0.0285
  224loPI   C5A 3579   3.309   0.272   8.784  0.1031  0.1336  0.2601
  224loPI   C6A 3580   3.523   0.087   8.468  0.2366 -0.0304 -0.1396
  224loPI   C1B 3581   3.563   0.037  10.595  0.2209  0.1490  0.2418
  224loPI   C2B 3582   3.654  -0.009  10.239  0.1218 -0.1341  0.1535
  224loPI   C3B 3583   3.618  -0.002   9.824  0.0456 -0.0414 -0.1002
  224loPI   C4B 3584   3.708  -0.024   9.410 -0.2890 -0.1193  0.0583
  225loPI    C1 3585   1.530   4.962  11.422 -0.1105  0.1260 -0.2327
  225loPI    C2 3586   1.573   5.359  11.408  0.2523  0.1047  0.1001
  225loPI    C3 3587   1.338   5.193  11.686 -0.0597  0.0915 -0.1652
  225loPI   PO4 3588   1.469   4.865  11.140  0.2048 -0.0935  0.0024
  225loPI   GL1 3589   1.435   4.750  10.758  0.1576  0.3977 -0.0479
  225loPI   GL2 3590   1.124   4.801  10.771 -0.2279 -0.0370  0.0161
  225loPI   C1A 3591   1.735   4.621  10.510  0.1348  0.2494 -0.2735
  225loPI   C2A 3592   1.807   4.407  10.083  0.4545 -0.0899  0.0640
  225loPI   C3A 3593   1.927   4.213   9.646  0.1264  0.0926 -0.2283
  225loPI   C4A 3594   1.888   4.249   9.236  0.0147  0.1631  0.1411
  225loPI   C5A 3595   1.762   4.479   8.839 -0.0332  0.1581  0.3851
  225loPI   C6A 3596   1.682   4.462   8.448  0.2947  0.0996  0.1352
  225loPI   C1B 3597   1.268   4.641  10.328 -0.0419  0.1385  0.3382
  225loPI   C2B 3598   1.354   4.643   9.941  0.1993 -0.2201  0.1314
  225loPI   C3B 3599   1.433   4.544   9.541 -0.3315 -0.0969  0.1602
  225loPI   C4B 3600   1.418   4.484   9.216  0.3742  0.0554 -0.2753
  226loPI    C1 3601   0.776   6.004  11.083  0.1716  0.2227 -0.1149
  226loPI    C2 3602   0.479   6.202  11.263 -0.0244  0.0863 -0.2833
  226loPI    C3 3603   0.610   5.855  11.414  0.0998  0.1820 -0.1688
  226loPI   PO4 3604   0.729   5.973  10.795  0.1111 -0.0322  0.3416
  226loPI   GL1 3605   1.032   6.069  10.413  0.1933 -0.1630 -0.0390
  226loPI   GL2 3606   1.209   6.387  10.520  0.0366  0.0549  0.1562
  226loPI   C1A 3607   1.229   6.040  10.013  0.3748 -0.1460 -0.1891
  226loPI   C2A 3608   1.375   6.144   9.675 -0.1152 -0.0599  0.4854
  226loPI   C3A 3609   1.525   6.019   9.200  0.0689 -0.0635  0.0665
  226loPI   C4A 3610   1.730   5.956   8.906 -0.0056 -0.0721 -0.2575
  226loPI   C5A 3611   2.124   5.857   8.688  0.0243 -0.3013  0.0951
  226loPI   C6A 3612   2.543   6.052   8.641 -0.0666  0.0332 -0.2373
  226loPI   C1B 3613   1.350   6.510  10.124  0.0341  0.0198 -0.1035
  226loPI   C2B 3614   1.612   6.633   9.849 -0.0356  0.0180  0.0418
  226loPI   C3B 3615   1.583   6.606   9.416 -0.0920 -0.0153 -0.3700
  226loPI   C4B 3616   1.566   6.504   8.969  0.3588 -0.0621  0.1774
  227loPI    C1 3617   0.291   8.525  11.474  0.2051 -0.3658  0.0847
  227loPI    C2 3618   0.551   8.633  11.757 -0.0857  0.0711  0.1943
  227loPI    C3 3619   0.212   8.446  11.858 -0.2259  0.2964  0.1472
  227loPI   PO4 3620   0.573   8.589  11.254 -0.0443  0.0679  0.1213
  227loPI   GL1 3621   0.609   8.645  10.798 -0.0400  0.1916 -0.1135
  227loPI   GL2 3622   0.563   8.342  10.766  0.1551  0.1722  0.0524
  227loPI   C1A 3623   0.712   8.838  10.459  0.0541 -0.2683 -0.0359
  227loPI   C2A 3624   0.663   8.789  10.037  0.1314 -0.0634  0.3632
  227loPI   C3A 3625   0.719   8.817   9.578 -0.0853 -0.0175 -0.1422
  227loPI   C4A 3626   0.813   8.929   9.078  0.1567  0.1844  0.0422
  227loPI   C5A 3627   0.478   8.947   8.727  0.1756  0.0503  0.1347
  227loPI   C6A 3628   0.215   9.016   8.396  0.1003  0.0759  0.0872
  227loPI   C1B 3629   0.680   8.277  10.404  0.2493  0.0869 -0.2517
  227loPI   C2B 3630   0.671   8.249  10.021 -0.2064  0.1711  0.3400
  227loPI   C3B 3631   0.696   8.215   9.591  0.2756 -0.2092  0.1033
  227loPI   C4B 3632   0.659   8.394   9.117  0.1750  0.3255 -0.3069
  228loPI    C1 3633   4.374  10.965  11.546 -0.0607 -0.0591  0.0909
  228loPI    C2 3634   4.675  10.933  11.808 -0.0081 -0.1027  0.0253
  228loPI    C3 3635   4.331  10.740  11.873  0.0912 -0.3118 -0.0596
  228loPI   PO4 3636   4.583  11.021  11.332 -0.1715 -0.3640 -0.0787
  228loPI   GL1 3637   4.590  10.869  10.964 -0.2982 -0.2077 -0.0061
  228loPI   GL2 3638   4.812  11.148  10.924 -0.2443  0.3240 -0.0423
  228loPI   C1A 3639   4.397  10.719  10.652  0.0980 -0.0361 -0.1129
  228loPI   C2A 3640   4.484  10.718  10.204  0.1775  0.0962  0.0292
  228loPI   C3A 3641   4.507  10.807   9.760 -0.0547 -0.2211  0.0705
  228loPI   C4A 3642   4.512  10.845   9.346  0.4013  0.1060  0.2383
  228loPI   C5A 3643   4.426  11.035   8.948  0.0640  0.2938 -0.0537
  228loPI   C6A 3644   4.216  10.962   8.566 -0.0466 -0.3851 -0.1060
  228loPI   C1B 3645   4.950  10.957  10.504  0.1843 -0.0854  0.0207
  228loPI   C2B 3646   4.908  10.933  10.043  0.0715 -0.2657  0.1904
  228loPI   C3B 3647   4.943  10.976   9.527  0.0348  0.2719 -0.0392
  228loPI   C4B 3648   4.913  11.037   9.109  0.2426  0.2019 -0.0044
  229loPI    C1 3649   0.110   3.184  11.308  0.1516  0.1329  0.0020
  229loPI    C2 3650  -0.141   3.026  11.577 -0.0085  0.2126 -0.0991
  229loPI    C3 3651  -0.225   3.379  11.409  0.1629  0.2308 -0.1477
  229loPI   PO4 3652   0.126   3.071  11.189 -0.3254 -0.0667 -0.1333
  229loPI   GL1 3653   0.274   2.915  10.881  0.1377 -0.0653  0.3643
  229loPI   GL2 3654   0.300   2.616  10.787  0.3742  0.1845 -0.1070
  229loPI   C1A 3655   0.310   3.011  10.397 -0.1354  0.0999 -0.2307
  229loPI   C2A 3656   0.346   3.087   9.922  0.0481 -0.0808 -0.3006
  229loPI   C3A 3657   0.442   2.850   9.621 -0.0819  0.1378 -0.0044
  229loPI   C4A 3658   0.424   3.039   9.125  0.0085  0.0659  0.1217
  229loPI   C5A 3659   0.468   2.949   8.686 -0.0346 -0.4159 -0.0062
  229loPI   C6A 3660   0.434   2.882   8.323  0.0154  0.2198 -0.1176
  229loPI   C1B 3661   0.345   2.552  10.392 -0.1333 -0.1361 -0.1364
  229loPI   C2B 3662   0.322   2.420   9.994  0.2142  0.2367  0.2158
  229loPI   C3B 3663   0.443   2.376   9.561 -0.0666 -0.0337 -0.1133
  229loPI   C4B 3664   0.456   2.378   9.152 -0.0161 -0.2609  0.1932
  230loPI    C1 3665   1.059   3.635  11.252  0.1884 -0.2573  0.1336
  230loPI    C2 3666   0.685   3.711  11.373  0.2816  0.2634  0.1168
  230loPI    C3 3667   0.990   3.758  11.627  0.3750  0.2626  0.0055
  230loPI   PO4 3668   1.027   3.692  10.967  0.1474 -0.0825  0.4594
  230loPI   GL1 3669   0.979   3.657  10.457 -0.0541 -0.0419 -0.3217
  230loPI   GL2 3670   1.298   3.639  10.498 -0.0816 -0.0814 -0.1968
  230loPI   C1A 3671   1.032   3.803  10.094  0.1798 -0.2098  0.0268
  230loPI   C2A 3672   0.989   3.834   9.681 -0.2928  0.1436 -0.1392
  230loPI   C3A 3673   0.948   3.780   9.323  0.1209  0.0368  0.1042
  230loPI   C4A 3674   0.941   3.820   8.918  0.1287 -0.2176  0.0131
  230loPI   C5A 3675   0.760   3.940   8.535 -0.0983 -0.1069  0.5224
  230loPI   C6A 3676   0.371   3.915   8.477 -0.1207  0.3421 -0.2022
  230loPI   C1B 3677   1.289   3.375  10.194  0.2432 -0.1384 -0.0054
  230loPI   C2B 3678   1.228   3.378   9.676 -0.0511  0.2524  0.2124
  230loPI   C3B 3679   1.346   3.497   9.371 -0.1249 -0.1570 -0.2457
  230loPI   C4B 3680   1.386   3.478   9.010 -0.1081  0.1241  0.1927
  231loPI    C1 3681   6.353  15.487  11.696 -0.0783 -0.0689 -0.1059
  231loPI    C2 3682   6.264  15.338  12.056  0.1073 -0.1212 -0.0807
  231loPI    C3 3683   6.574  15.588  12.014  0.0956 -0.1273 -0.2066
  231loPI   PO4 3684   6.135  15.514  11.582 -0.1091  0.3158 -0.1037
  231loPI   GL1 3685   5.852  15.476  11.168  0.0842 -0.0459  0.2123
  231loPI   GL2 3686   5.631  15.784  11.009  0.0665 -0.1385 -0.0949
  231loPI   C1A 3687   5.593  15.312  10.905  0.1964 -0.1811  0.1527
  231loPI   C2A 3688   5.703  15.244  10.525 -0.0200 -0.2594  0.0935
  231loPI   C3A 3689   5.712  15.335  10.104 -0.1020 -0.0316  0.1604
  231loPI   C4A 3690   5.771  15.460   9.677  0.0981 -0.1285 -0.0001
  231loPI   C5A 3691   5.856  15.332   9.263 -0.2577  0.2158 -0.1583
  231loPI   C6A 3692   5.685  15.003   9.035 -0.0657  0.0953  0.0231
  231loPI   C1B 3693   5.642  15.712  10.459 -0.0201 -0.0136 -0.0271
  231loPI   C2B 3694   5.764  15.907  10.015  0.0348 -0.2265 -0.0649
  231loPI   C3B 3695   5.833  15.960   9.556  0.0312  0.0399  0.2115
  231loPI   C4B 3696   5.608  15.806   9.227  0.3929 -0.2083  0.2844
  232loPI    C1 3697  16.702   2.080  11.381  0.1249 -0.1004  0.1552
  232loPI    C2 3698  16.776   1.780  11.635  0.0499 -0.1758  0.0887
  232loPI    C3 3699  16.484   2.042  11.714  0.3797  0.1223  0.3518
  232loPI   PO4 3700  16.668   2.060  11.172 -0.0467 -0.0527 -0.0850
  232loPI   GL1 3701  16.288   2.317  10.947  0.0643 -0.0505 -0.1140
  232loPI   GL2 3702  16.256   1.953  10.989  0.0351 -0.0473 -0.0780
  232loPI   C1A 3703  16.172   2.261  10.527 -0.3269  0.3609 -0.0929
  232loPI   C2A 3704  16.217   2.380  10.120  0.2579 -0.0443  0.0004
  232loPI   C3A 3705  16.270   2.377   9.650  0.2269  0.0566  0.1503
  232loPI   C4A 3706  16.226   2.480   9.233 -0.0949 -0.0628  0.0272
  232loPI   C5A 3707  16.179   2.756   8.937 -0.4936 -0.0550  0.2879
  232loPI   C6A 3708  16.158   3.059   8.745 -0.3821 -0.0954  0.0765
  232loPI   C1B 3709  16.080   1.786  10.595 -0.2554  0.2527 -0.2428
  232loPI   C2B 3710  16.067   1.747  10.104 -0.2656 -0.1394  0.0167
  232loPI   C3B 3711  16.194   1.709   9.683 -0.2777  0.2598  0.0247
  232loPI   C4B 3712  16.262   1.955   9.341  0.2514 -0.1528  0.1453
  233loPI    C1 3713   9.207  11.881  11.755 -0.3400 -0.3292  0.1835
  233loPI    C2 3714   9.064  12.239  11.861  0.0998 -0.0216 -0.2197
  233loPI    C3 3715   9.304  12.039  12.110 -0.0816 -0.0026 -0.0263
  233loPI   PO4 3716   9.000  11.754  11.646 -0.1270 -0.0340  0.0459
  233loPI   GL1 3717   8.987  11.704  11.228 -0.0232 -0.2080 -0.0329
  233loPI   GL2 3718   8.660  11.746  11.279 -0.0001  0.0708  0.1292
  233loPI   C1A 3719   9.007  11.860  10.837 -0.0235  0.0072 -0.2692
  233loPI   C2A 3720   9.093  11.940  10.458 -0.1553 -0.2794  0.1267
  233loPI   C3A 3721   9.061  12.095  10.020 -0.0127 -0.3805  0.1847
  233loPI   C4A 3722   9.187  12.024   9.614 -0.1351  0.0576 -0.1183
  233loPI   C5A 3723   9.339  11.739   9.243  0.0264 -0.1425  0.0660
  233loPI   C6A 3724   9.399  11.443   9.005 -0.0267  0.3166  0.2952
  233loPI   C1B 3725   8.515  11.898  10.972 -0.4281 -0.0214  0.1521
  233loPI   C2B 3726   8.548  11.925  10.502 -0.1909 -0.0168  0.1668
  233loPI   C3B 3727   8.646  11.801  10.062  0.0025 -0.1426 -0.1354
  233loPI   C4B 3728   8.679  11.963   9.695 -0.0230  0.0935  0.1274
  234loPI    C1 3729  10.167   4.938  11.986  0.0088 -0.1527  0.0298
  234loPI    C2 3730  10.536   4.974  12.135  0.1098 -0.0695 -0.2360
  234loPI    C3 3731  10.262   5.255  12.210  0.1354 -0.0707 -0.1380
  234loPI   PO4 3732  10.271   4.708  11.747 -0.0425 -0.1231 -0.2067
  234loPI   GL1 3733  10.151   4.396  11.345 -0.0202  0.2689  0.0035
  234loPI   GL2 3734  10.230   4.112  11.426  0.0991 -0.0115  0.1574
  234loPI   C1A 3735  10.042   4.596  10.995  0.0288 -0.2449 -0.0882
  234loPI   C2A 3736  10.089   4.467  10.533  0.2332  0.3131 -0.2350
  234loPI   C3A 3737  10.024   4.473  10.171  0.0618 -0.1307  0.2937
  234loPI   C4A 3738  10.051   4.414   9.749  0.3934 -0.1031  0.1273
  234loPI   C5A 3739   9.978   4.442   9.380  0.0473 -0.0293 -0.3262
  234loPI   C6A 3740  10.267   4.540   9.097 -0.1067 -0.0846  0.1581
  234loPI   C1B 3741  10.159   4.090  10.962 -0.0946 -0.0567 -0.0108
  234loPI   C2B 3742  10.062   3.899  10.598  0.1084 -0.2186 -0.0903
  234loPI   C3B 3743  10.001   3.946  10.231  0.2678  0.0124 -0.2476
  234loPI   C4B 3744   9.970   3.931   9.766  0.0367 -0.2370 -0.0435
  235loPI    C1 3745   0.762  10.904  11.487 -0.1691 -0.2544 -0.1550
  235loPI    C2 3746   1.137  10.872  11.620 -0.1576 -0.1830 -0.1704
  235loPI    C3 3747   0.836  10.912  11.880 -0.1187  0.1274 -0.1687
  235loPI   PO4 3748   0.804  11.017  11.165  0.0173 -0.3935  0.1575
  235loPI   GL1 3749   1.000  10.880  10.868 -0.2085 -0.0370 -0.3708
  235loPI   GL2 3750   1.269  10.632  10.805  0.1768 -0.0072  0.1411
  235loPI   C1A 3751   0.725  10.958  10.536 -0.0305  0.2084 -0.1838
  235loPI   C2A 3752   0.789  11.023  10.073  0.0949  0.0993 -0.0356
  235loPI   C3A 3753   0.832  10.958   9.629  0.2549 -0.2198 -0.1287
  235loPI   C4A 3754   1.046  10.897   9.188  0.0230  0.1449  0.1189
  235loPI   C5A 3755   1.056  10.883   8.767 -0.0305  0.1173  0.1088
  235loPI   C6A 3756   1.086  10.908   8.371 -0.2024  0.1595 -0.1703
  235loPI   C1B 3757   1.221  10.617  10.294 -0.4260 -0.1462  0.0576
  235loPI   C2B 3758   1.186  10.679   9.831  0.1345  0.2134 -0.0333
  235loPI   C3B 3759   1.316  10.594   9.451  0.0008  0.0315 -0.3063
  235loPI   C4B 3760   1.366  10.524   8.996 -0.2973 -0.1722  0.2672
  236loPI    C1 3761  11.959  11.134  11.846 -0.1696  0.1658 -0.0886
  236loPI    C2 3762  12.028  11.524  11.794  0.1589  0.1156 -0.0491
  236loPI    C3 3763  11.767  11.403  12.072  0.2360  0.2996  0.1060
  236loPI   PO4 3764  12.001  11.049  11.590  0.1188  0.0289  0.0921
  236loPI   GL1 3765  11.957  10.925  11.193  0.2226  0.1920 -0.0568
  236loPI   GL2 3766  11.668  10.665  11.100 -0.1100 -0.0157 -0.0574
  236loPI   C1A 3767  11.903  10.942  10.719 -0.3997  0.0350  0.0819
  236loPI   C2A 3768  11.838  11.027  10.328  0.0888 -0.1427  0.2014
  236loPI   C3A 3769  11.839  10.950   9.880  0.0497  0.2238  0.2466
  236loPI   C4A 3770  11.869  10.945   9.484  0.1764 -0.3845  0.0863
  236loPI   C5A 3771  12.135  10.782   9.192  0.1617 -0.0435 -0.1398
  236loPI   C6A 3772  12.189  10.742   8.755  0.0481 -0.1582  0.1029
  236loPI   C1B 3773  11.503  10.642  10.778  0.2565  0.0884  0.0151
  236loPI   C2B 3774  11.459  10.667  10.320 -0.2715  0.0076 -0.1901
  236loPI   C3B 3775  11.394  10.694   9.948 -0.1313  0.1017 -0.4082
  236loPI   C4B 3776  11.310  10.677   9.500 -0.2885  0.0695 -0.0720
  237loPI    C1 3777   0.569   8.080  11.313  0.0109  0.1706  0.1285
  237loPI    C2 3778   0.783   7.823  11.533 -0.1058 -0.0001  0.0453
  237loPI    C3 3779   0.654   8.166  11.694 -0.0255 -0.0342  0.1841
  237loPI   PO4 3780   0.644   7.995  11.077  0.0875  0.0442  0.0463
  237loPI   GL1 3781   0.377   7.881  10.663  0.0253 -0.1324 -0.2509
  237loPI   GL2 3782   0.682   7.815  10.569 -0.3332  0.2447  0.3880
  237loPI   C1A 3783   0.261   7.987  10.240 -0.2952 -0.1192 -0.0089
  237loPI   C2A 3784   0.290   8.010   9.843  0.0577 -0.1598 -0.0920
  237loPI   C3A 3785   0.278   8.149   9.404 -0.2873 -0.2669  0.0989
  237loPI   C4A 3786   0.180   8.115   8.987  0.0526  0.3400 -0.2428
  237loPI   C5A 3787   0.221   8.337   8.575  0.2233  0.2358 -0.2276
  237loPI   C6A 3788   0.265   7.951   8.358  0.0783 -0.1447  0.1297
  237loPI   C1B 3789   0.696   7.757  10.179 -0.0765 -0.4378 -0.2167
  237loPI   C2B 3790   0.645   7.712   9.783 -0.2397  0.0992  0.0864
  237loPI   C3B 3791   0.683   7.623   9.345 -0.1751 -0.2801 -0.0761
  237loPI   C4B 3792   0.862   7.941   9.119  0.0656  0.0932  0.1053
  238loPI    C1 3793   3.585  11.806  11.873  0.1275 -0.0605 -0.0534
  238loPI    C2 3794   3.687  11.498  12.107  0.0443 -0.0362  0.0149
  238loPI    C3 3795   3.571  11.845  12.270 -0.1609 -0.0679 -0.0607
  238loPI   PO4 3796   3.738  11.808  11.710 -0.2264  0.2275  0.2575
  238loPI   GL1 3797   3.673  11.889  11.257 -0.1772  0.1870 -0.0978
  238loPI   GL2 3798   3.873  11.733  11.243 -0.0040  0.0918 -0.3851
  238loPI   C1A 3799   3.524  11.951  10.868 -0.2821 -0.0648 -0.1046
  238loPI   C2A 3800   3.615  11.827  10.535  0.1194  0.1526 -0.1313
  238loPI   C3A 3801   3.631  11.771  10.091  0.1563 -0.0106  0.0518
  238loPI   C4A 3802   3.670  11.891   9.734  0.3246  0.0454  0.1477
  238loPI   C5A 3803   3.739  11.926   9.313  0.3221 -0.0906 -0.0016
  238loPI   C6A 3804   3.718  11.984   8.908 -0.0623 -0.2273  0.2001
  238loPI   C1B 3805   3.988  11.532  10.912  0.4758  0.2941  0.3062
  238loPI   C2B 3806   4.076  11.495  10.490  0.0336 -0.0306  0.0422
  238loPI   C3B 3807   4.046  11.438  10.134 -0.0533  0.2744  0.3397
  238loPI   C4B 3808   4.079  11.603   9.720 -0.1948  0.0630  0.0049
  239loPI    C1 3809   4.353  16.025  11.784  0.0301 -0.0001  0.1196
  239loPI    C2 3810   4.074  15.743  11.729 -0.1258  0.1411  0.1796
  239loPI    C3 3811   4.220  15.812  12.095  0.0715 -0.0096  0.1308
  239loPI   PO4 3812   4.566  15.959  11.600  0.2456 -0.1627  0.2058
  239loPI   GL1 3813   4.466  15.749  11.137 -0.0261  0.3123 -0.2936
  239loPI   GL2 3814   4.538  15.467  11.279  0.0266  0.0046  0.0302
  239loPI   C1A 3815   4.439  15.706  10.774 -0.1097 -0.4515  0.1161
  239loPI   C2A 3816   4.368  15.659  10.357 -0.3397 -0.3265  0.1696
  239loPI   C3A 3817   4.253  15.505  10.062 -0.6303 -0.0577 -0.0390
  239loPI   C4A 3818   4.241  15.254   9.762 -0.0503  0.1678 -0.0525
  239loPI   C5A 3819   4.169  15.456   9.402  0.1003  0.2613  0.0331
  239loPI   C6A 3820   3.883  15.494   9.175  0.1442  0.0624 -0.0662
  239loPI   C1B 3821   4.552  15.297  10.892 -0.1765  0.2116 -0.0819
  239loPI   C2B 3822   4.627  15.254  10.420 -0.2915 -0.1745 -0.0531
  239loPI   C3B 3823   4.728  15.106  10.047 -0.1427 -0.2675  0.0334
  239loPI   C4B 3824   5.058  15.257   9.743 -0.3233 -0.0851  0.1180
  240loPI    C1 3825   7.335   8.707  12.090 -0.0585  0.0916  0.0643
  240loPI    C2 3826   7.654   8.924  12.195 -0.0551  0.1330 -0.0308
  240loPI    C3 3827   7.700   8.543  12.085 -0.0482  0.1154  0.0329
  240loPI   PO4 3828   7.206   8.852  11.875  0.0053 -0.3094 -0.2061
  240loPI   GL1 3829   7.133   8.871  11.454  0.0468  0.2832 -0.0561
  240loPI   GL2 3830   6.989   8.602  11.430 -0.1771 -0.4306 -0.0379
  240loPI   C1A 3831   7.117   9.063  11.070 -0.1419 -0.0830 -0.0207
  240loPI   C2A 3832   7.129   9.087  10.603  0.0560 -0.0893  0.2955
  240loPI   C3A 3833   7.064   9.022  10.153  0.0280 -0.4065 -0.0553
  240loPI   C4A 3834   7.041   8.972   9.777  0.2035 -0.3995  0.0879
  240loPI   C5A 3835   6.939   8.780   9.517 -0.0091  0.1221 -0.2721
  240loPI   C6A 3836   7.137   8.411   9.261 -0.2277 -0.2701  0.0349
  240loPI   C1B 3837   7.068   8.499  10.992  0.3081  0.0687 -0.0541
  240loPI   C2B 3838   7.131   8.601  10.583  0.0386  0.2076  0.1228
  240loPI   C3B 3839   7.048   8.489  10.207 -0.3806 -0.2674  0.1405
  240loPI   C4B 3840   7.134   8.435   9.810  0.1786 -0.1509 -0.0606
  241loPI    C1 3841   3.135  14.614  11.684  0.0022 -0.0116  0.2272
  241loPI    C2 3842   3.316  14.967  11.631 -0.0970 -0.0138 -0.1578
  241loPI    C3 3843   3.096  14.902  11.959 -0.0368  0.2628 -0.0597
  241loPI   PO4 3844   2.982  14.531  11.419 -0.2631 -0.3933 -0.0657
  241loPI   GL1 3845   2.937  14.632  11.081 -0.0805 -0.0234 -0.0734
  241loPI   GL2 3846   2.705  14.443  10.958  0.1570 -0.4116 -0.0825
  241loPI   C1A 3847   3.195  14.748  10.646 -0.1035  0.1403  0.1278
  241loPI   C2A 3848   3.217  14.726  10.161  0.1600 -0.1415  0.2420
  241loPI   C3A 3849   3.372  14.705   9.799  0.1238  0.1868 -0.3187
  241loPI   C4A 3850   3.409  14.675   9.325 -0.0413  0.2337  0.1878
  241loPI   C5A 3851   3.311  14.757   8.826 -0.0950  0.0295  0.1979
  241loPI   C6A 3852   3.255  14.838   8.348  0.1978 -0.1708  0.2424
  241loPI   C1B 3853   2.806  14.416  10.624 -0.1765 -0.0647  0.0839
  241loPI   C2B 3854   2.793  14.478  10.180 -0.2168  0.0262  0.0178
  241loPI   C3B 3855   2.918  14.498   9.698 -0.1361  0.1074  0.0391
  241loPI   C4B 3856   2.877  14.382   9.250 -0.2045 -0.1727 -0.2105
  242loPI    C1 3857   3.214   1.687  11.380 -0.1350  0.1096 -0.0864
  242loPI    C2 3858   3.071   1.336  11.509  0.0952 -0.0247 -0.1906
  242loPI    C3 3859   3.328   1.543  11.736  0.0391  0.0268 -0.1740
  242loPI   PO4 3860   3.217   1.649  11.101  0.0359 -0.0430  0.1021
  242loPI   GL1 3861   3.131   1.798  10.674 -0.2003 -0.2337 -0.2825
  242loPI   GL2 3862   3.087   1.440  10.637 -0.0433 -0.1842  0.0388
  242loPI   C1A 3863   3.105   1.834  10.215  0.1986 -0.1164 -0.1125
  242loPI   C2A 3864   3.096   1.909   9.772 -0.0923 -0.0123  0.1066
  242loPI   C3A 3865   3.173   1.750   9.300 -0.1020  0.0041 -0.2096
  242loPI   C4A 3866   3.005   1.816   8.907 -0.0185  0.1005 -0.0902
  242loPI   C5A 3867   2.606   1.884   8.715 -0.1875 -0.1212  0.1399
  242loPI   C6A 3868   2.244   2.097   8.650  0.2098  0.0943  0.4655
  242loPI   C1B 3869   3.077   1.337  10.260 -0.1564  0.0590  0.1324
  242loPI   C2B 3870   3.214   1.424   9.870  0.0118 -0.2609 -0.0974
  242loPI   C3B 3871   3.183   1.208   9.503 -0.4665 -0.0087  0.3883
  242loPI   C4B 3872   3.227   1.189   9.113 -0.0721 -0.3207 -0.0745
  243loPI    C1 3873   2.255   1.752  11.497  0.2171  0.2194  0.1417
  243loPI    C2 3874   2.000   1.492  11.662 -0.0539  0.2386 -0.2353
  243loPI    C3 3875   2.329   1.602  11.860 -0.1033 -0.1371  0.0660
  243loPI   PO4 3876   2.258   1.648  11.265  0.1949 -0.0468 -0.0779
  243loPI   GL1 3877   2.134   1.377  10.919  0.0578  0.0930  0.1651
  243loPI   GL2 3878   2.422   1.252  11.019  0.1325 -0.1596  0.0266
  243loPI   C1A 3879   2.293   1.359  10.549  0.0682  0.2268 -0.0209
  243loPI   C2A 3880   2.193   1.356  10.060 -0.0795  0.2460 -0.2201
  243loPI   C3A 3881   2.188   1.366   9.587 -0.2424  0.0562 -0.0310
  243loPI   C4A 3882   2.254   1.186   9.273  0.0050 -0.1168 -0.1648
  243loPI   C5A 3883   2.302   0.760   9.101  0.0497 -0.1640 -0.0356
  243loPI   C6A 3884   2.196   0.544   8.722 -0.1025 -0.2051  0.2221
  243loPI   C1B 3885   2.690   1.142  10.637 -0.1667 -0.1134  0.0628
  243loPI   C2B 3886   2.666   1.096  10.133  0.2130 -0.1535 -0.3180
  243loPI   C3B 3887   2.623   1.000   9.714  0.2169 -0.2068 -0.0599
  243loPI   C4B 3888   2.777   1.050   9.305 -0.0860  0.0848 -0.0512
  244loPI    C1 3889   6.774  15.899  11.661 -0.0859  0.0294  0.1145
  244loPI    C2 3890   6.406  15.992  11.535  0.0314  0.1094 -0.1761
  244loPI    C3 3891   6.532  16.116  11.894 -0.2392  0.0437 -0.0564
  244loPI   PO4 3892   6.818  15.712  11.560  0.0289  0.0887  0.0229
  244loPI   GL1 3893   6.460  15.550  11.180 -0.0594 -0.1221 -0.1380
  244loPI   GL2 3894   6.244  15.730  11.116 -0.0198 -0.1178 -0.1198
  244loPI   C1A 3895   6.545  15.398  10.702  0.2415  0.1643  0.1725
  244loPI   C2A 3896   6.552  15.411  10.308 -0.0945  0.0223  0.0872
  244loPI   C3A 3897   6.665  15.338   9.927  0.2338  0.1951  0.0026
  244loPI   C4A 3898   6.727  15.372   9.475  0.1169  0.0975 -0.1120
  244loPI   C5A 3899   6.906  15.469   9.172  0.0727  0.1721  0.0406
  244loPI   C6A 3900   7.245  15.361   9.096 -0.1097 -0.3036 -0.1092
  244loPI   C1B 3901   6.109  15.604  10.653  0.0941  0.1829 -0.0808
  244loPI   C2B 3902   6.183  15.708  10.269 -0.1811  0.4315  0.0400
  244loPI   C3B 3903   6.264  15.643   9.815 -0.1151 -0.0218  0.0505
  244loPI   C4B 3904   6.233  15.622   9.418 -0.2406  0.0856  0.0575
  245loPI    C1 3905  15.271   8.036  11.033  0.2855 -0.0490 -0.0716
  245loPI    C2 3906  15.337   8.357  11.262 -0.0826 -0.1608  0.2002
  245loPI    C3 3907  15.542   8.019  11.327  0.2285 -0.0184 -0.0171
  245loPI   PO4 3908  15.336   8.122  10.785  0.0966  0.0438 -0.1373
  245loPI   GL1 3909  15.207   7.907  10.436  0.0670 -0.0541  0.0826
  245loPI   GL2 3910  15.558   7.929  10.432 -0.1885 -0.0355 -0.0448
  245loPI   C1A 3911  15.106   7.996  10.061 -0.2503  0.0595  0.3370
  245loPI   C2A 3912  15.154   7.979   9.689 -0.2709  0.0442  0.1373
  245loPI   C3A 3913  15.338   7.862   9.255  0.0810 -0.1384  0.1785
  245loPI   C4A 3914  15.517   8.108   9.008 -0.0933 -0.1148  0.2587
  245loPI   C5A 3915  15.707   8.194   8.714  0.2402  0.3503  0.0482
  245loPI   C6A 3916  15.424   8.172   8.432  0.0016  0.2024 -0.0782
  245loPI   C1B 3917  15.624   7.967  10.020 -0.0326  0.1841 -0.1062
  245loPI   C2B 3918  15.642   7.956   9.636 -0.0204 -0.0858 -0.2862
  245loPI   C3B 3919  15.878   7.924   9.307 -0.1693  0.0539  0.2661
  245loPI   C4B 3920  16.103   8.011   8.951 -0.1233 -0.1826 -0.1526
  246loPI    C1 3921   4.651   8.929  11.829 -0.0725 -0.0896 -0.1869
  246loPI    C2 3922   4.332   9.123  11.973  0.0356  0.0418 -0.1219
  246loPI    C3 3923   4.435   8.767  12.124  0.1937  0.2133  0.1852
  246loPI   PO4 3924   4.561   8.848  11.606  0.2112 -0.3230 -0.0188
  246loPI   GL1 3925   4.490   8.937  11.215  0.0348  0.2064 -0.0659
  246loPI   GL2 3926   4.574   9.252  11.043  0.0538  0.1018  0.1656
  246loPI   C1A 3927   4.274   8.806  10.771 -0.1301  0.0836  0.2189
  246loPI   C2A 3928   4.166   8.739  10.371  0.0303 -0.0509 -0.1014
  246loPI   C3A 3929   4.225   8.601   9.888 -0.0562 -0.0446  0.0089
  246loPI   C4A 3930   4.211   8.548   9.423  0.2907  0.0910  0.1877
  246loPI   C5A 3931   4.378   8.568   8.990 -0.0391 -0.2789  0.2064
  246loPI   C6A 3932   4.657   8.365   8.712 -0.0229  0.0525 -0.0710
  246loPI   C1B 3933   4.417   9.265  10.584  0.0932  0.0019  0.0120
  246loPI   C2B 3934   4.329   9.196  10.158 -0.0251  0.0720 -0.2623
  246loPI   C3B 3935   4.321   9.119   9.791 -0.2528 -0.1211 -0.1186
  246loPI   C4B 3936   4.359   9.232   9.377  0.1666  0.0920  0.0494
  247loPI    C1 3937   1.507  15.489  11.794  0.0524  0.2873  0.0703
  247loPI    C2 3938   1.138  15.335  11.813  0.0915  0.1755 -0.0640
  247loPI    C3 3939   1.268  15.580  12.102 -0.0227  0.0715  0.0768
  247loPI   PO4 3940   1.520  15.393  11.461  0.3343 -0.0201 -0.2184
  247loPI   GL1 3941   1.780  15.201  11.246 -0.0510 -0.1985 -0.0486
  247loPI   GL2 3942   2.000  15.221  11.106 -0.0282  0.0599  0.1464
  247loPI   C1A 3943   1.562  15.337  10.763  0.3337 -0.3214 -0.1589
  247loPI   C2A 3944   1.590  15.380  10.363  0.0251  0.3685  0.1809
  247loPI   C3A 3945   1.614  15.344   9.960 -0.1290  0.5159 -0.1355
  247loPI   C4A 3946   1.697  15.252   9.536  0.1548  0.0145  0.1146
  247loPI   C5A 3947   1.632  15.356   9.078  0.2001  0.1924 -0.0181
  247loPI   C6A 3948   1.468  15.645   8.752  0.1072  0.1408  0.2659
  247loPI   C1B 3949   1.916  15.024  10.766 -0.4026  0.1645 -0.2239
  247loPI   C2B 3950   2.015  15.018  10.277  0.1994 -0.2590 -0.0032
  247loPI   C3B 3951   2.063  15.090   9.858  0.1082 -0.6175  0.0971
  247loPI   C4B 3952   2.101  14.956   9.384  0.0763  0.1410  0.1097
  248loPI    C1 3953  13.014   2.466  11.892 -0.0570 -0.1470 -0.0439
  248loPI    C2 3954  12.708   2.512  12.145 -0.0577 -0.1284 -0.0481
  248loPI    C3 3955  12.992   2.792  12.123 -0.0850 -0.1051 -0.1052
  248loPI   PO4 3956  12.864   2.274  11.700  0.1067 -0.4015 -0.3340
  248loPI   GL1 3957  12.876   2.136  11.269 -0.0551  0.0517 -0.2385
  248loPI   GL2 3958  13.057   1.833  11.196  0.1191 -0.2937  0.1786
  248loPI   C1A 3959  12.699   2.049  10.804 -0.0002  0.2692  0.0525
  248loPI   C2A 3960  12.653   1.856  10.438  0.0074  0.2604 -0.2248
  248loPI   C3A 3961  12.649   1.797  10.051  0.2215  0.1430  0.0158
  248loPI   C4A 3962  12.618   1.794   9.657 -0.3239 -0.2631 -0.2292
  248loPI   C5A 3963  12.626   1.628   9.126 -0.2246 -0.0461  0.0182
  248loPI   C6A 3964  12.835   1.287   8.802  0.1104  0.3936 -0.1127
  248loPI   C1B 3965  13.070   1.664  10.837 -0.1426 -0.2854  0.1850
  248loPI   C2B 3966  13.162   1.596  10.390 -0.2041  0.0321  0.1793
  248loPI   C3B 3967  13.107   1.523   9.895  0.0797 -0.1961 -0.0972
  248loPI   C4B 3968  13.010   1.568   9.478 -0.0015 -0.0718 -0.3798
  249loPI    C1 3969   3.237   9.793  11.602  0.0466 -0.0311  0.0383
  249loPI    C2 3970   3.341  10.014  11.918 -0.1096  0.0748  0.0166
  249loPI    C3 3971   3.211   9.639  11.971  0.0094  0.0400  0.0655
  249loPI   PO4 3972   3.097  10.035  11.449  0.0353  0.1009  0.0758
  249loPI   GL1 3973   2.772  10.223  11.168 -0.2294  0.4005  0.2242
  249loPI   GL2 3974   2.578   9.934  11.181 -0.2844  0.0180  0.0711
  249loPI   C1A 3975   2.560  10.200  10.646 -0.0871 -0.2174 -0.1115
  249loPI   C2A 3976   2.467  10.312  10.065 -0.2039  0.1835 -0.2343
  249loPI   C3A 3977   2.631  10.342   9.669  0.1634  0.2646  0.0954
  249loPI   C4A 3978   2.751  10.314   9.223  0.0995  0.1651 -0.2907
  249loPI   C5A 3979   3.124   9.997   9.085 -0.0561 -0.1544 -0.0757
  249loPI   C6A 3980   3.326   9.855   8.703 -0.0201  0.1887 -0.3197
  249loPI   C1B 3981   2.555   9.686  10.704  0.4531  0.3868 -0.0651
  249loPI   C2B 3982   2.460   9.800  10.257  0.3542 -0.0584  0.0092
  249loPI   C3B 3983   2.558   9.848   9.800  0.0341 -0.1316 -0.1166
  249loPI   C4B 3984   2.718   9.842   9.447  0.0050  0.0855  0.0392
  250loPI    C1 3985  15.032   6.130  11.016  0.1406 -0.0178 -0.1625
  250loPI    C2 3986  14.856   6.403  11.250  0.1708  0.0146 -0.1773
  250loPI    C3 3987  15.236   6.297  11.317  0.0425 -0.3080  0.0707
  250loPI   PO4 3988  14.799   6.006  10.935 -0.2996 -0.2054  0.0034
  250loPI   GL1 3989  14.766   6.097  10.491  0.1946 -0.0431 -0.2433
  250loPI   GL2 3990  14.408   6.046  10.560 -0.0559  0.2056 -0.3499
  250loPI   C1A 3991  14.752   6.286  10.165  0.3146 -0.2067  0.0148
  250loPI   C2A 3992  14.669   6.242   9.805 -0.2484  0.1399  0.1645
  250loPI   C3A 3993  14.708   6.512   9.530 -0.2426 -0.0307  0.0409
  250loPI   C4A 3994  14.494   6.831   9.313 -0.3738 -0.2455  0.2250
  250loPI   C5A 3995  14.210   6.842   9.026 -0.2112 -0.0259  0.0268
  250loPI   C6A 3996  14.302   6.941   8.655  0.3298  0.0101 -0.2051
  250loPI   C1B 3997  14.341   5.952  10.055  0.1116 -0.0883 -0.5072
  250loPI   C2B 3998  14.376   5.890   9.638  0.0926 -0.1595  0.1518
  250loPI   C3B 3999  14.262   5.713   9.375  0.1874 -0.1234  0.1249
  250loPI   C4B 4000  14.222   5.739   8.880 -0.2721 -0.2957  0.0453
  251loPI    C1 4001   1.644  13.936  11.540 -0.0399  0.2586  0.0084
  251loPI    C2 4002   1.619  13.611  11.772  0.1190  0.1870 -0.0732
  251loPI    C3 4003   1.858  13.915  11.878  0.1666  0.1680 -0.1259
  251loPI   PO4 4004   1.652  13.883  11.364 -0.0757 -0.3260  0.1269
  251loPI   GL1 4005   1.861  13.855  11.004  0.0793 -0.2043 -0.0317
  251loPI   GL2 4006   1.732  13.470  11.057  0.2743 -0.0371  0.3984
  251loPI   C1A 4007   1.983  13.966  10.486 -0.1878  0.2052 -0.1607
  251loPI   C2A 4008   1.838  13.980  10.138  0.3365  0.1871  0.3285
  251loPI   C3A 4009   2.037  13.957   9.630 -0.1550 -0.0759  0.1348
  251loPI   C4A 4010   2.097  13.978   9.228 -0.1322 -0.1904 -0.0991
  251loPI   C5A 4011   2.012  14.120   8.776 -0.0828 -0.1264 -0.0305
  251loPI   C6A 4012   2.310  13.928   8.433  0.0181  0.0916 -0.0906
  251loPI   C1B 4013   1.942  13.472  10.632 -0.2320 -0.0182 -0.1572
  251loPI   C2B 4014   1.903  13.505  10.202 -0.4381  0.0196 -0.0217
  251loPI   C3B 4015   1.999  13.501   9.825 -0.0474 -0.0111  0.0775
  251loPI   C4B 4016   2.078  13.526   9.385 -0.1550  0.0929 -0.3273
  252loPI    C1 4017   7.401  15.019  11.869 -0.0872 -0.0192  0.0494
  252loPI    C2 4018   7.666  14.936  12.158  0.1316  0.3440 -0.0394
  252loPI    C3 4019   7.356  15.177  12.234 -0.0416  0.1131 -0.0016
  252loPI   PO4 4020   7.564  15.027  11.697  0.3111 -0.2199 -0.0450
  252loPI   GL1 4021   7.497  14.983  11.203 -0.0422  0.1715  0.0993
  252loPI   GL2 4022   7.748  15.107  11.285  0.1414  0.1255  0.2895
  252loPI   C1A 4023   7.446  14.810  10.866 -0.1234 -0.1292 -0.0138
  252loPI   C2A 4024   7.552  14.827  10.503 -0.3345 -0.0278 -0.1240
  252loPI   C3A 4025   7.533  14.855   9.975  0.3715 -0.2065 -0.2369
  252loPI   C4A 4026   7.540  14.769   9.563 -0.0893  0.1131  0.2848
  252loPI   C5A 4027   7.383  14.892   9.173  0.0966 -0.0833  0.0250
  252loPI   C6A 4028   6.981  14.962   8.997 -0.2834  0.1800  0.1286
  252loPI   C1B 4029   7.924  15.051  10.933  0.1032 -0.0326 -0.0473
  252loPI   C2B 4030   8.024  15.077  10.510 -0.0994  0.0992 -0.0269
  252loPI   C3B 4031   7.983  15.018  10.085 -0.1825  0.1133  0.1032
  252loPI   C4B 4032   7.994  15.031   9.650  0.1729 -0.0316  0.5301
  253loPI    C1 4033  15.252   0.516  11.619 -0.2094  0.2488 -0.1713
  253loPI    C2 4034  14.973   0.677  11.855 -0.2201 -0.0555  0.0291
  253loPI    C3 4035  15.341   0.613  11.996 -0.1423  0.0335 -0.1307
  253loPI   PO4 4036  15.103   0.415  11.401  0.0552  0.1068  0.1532
  253loPI   GL1 4037  14.906   0.222  11.121 -0.1411  0.2973 -0.2027
  253loPI   GL2 4038  14.985  -0.023  10.863 -0.4267  0.3103  0.2619
  253loPI   C1A 4039  14.898   0.463  10.675 -0.0806  0.2937 -0.1833
  253loPI   C2A 4040  14.903   0.395  10.280 -0.0566  0.0831  0.3535
  253loPI   C3A 4041  14.874   0.439   9.816  0.1858  0.2169  0.0598
  253loPI   C4A 4042  14.635   0.420   9.400  0.0380  0.1191  0.0515
  253loPI   C5A 4043  14.559   0.135   9.091  0.0674  0.1442 -0.0020
  253loPI   C6A 4044  14.299   0.025   8.849 -0.2965 -0.4566  0.1673
  253loPI   C1B 4045  14.872  -0.061  10.496 -0.3843 -0.1908 -0.0004
  253loPI   C2B 4046  14.861  -0.136  10.077 -0.3410 -0.1183 -0.0973
  253loPI   C3B 4047  14.738  -0.168   9.687  0.2378 -0.1575 -0.0462
  253loPI   C4B 4048  14.718  -0.339   9.298  0.0594 -0.2619 -0.0385
  254loPI    C1 4049   2.228   3.077  11.607  0.0975  0.0460 -0.1334
  254loPI    C2 4050   1.859   3.208  11.689  0.0880 -0.0071 -0.0910
  254loPI    C3 4051   2.175   3.379  11.864  0.0658 -0.1399  0.0813
  254loPI   PO4 4052   2.266   3.066  11.309 -0.2726 -0.1177  0.1521
  254loPI   GL1 4053   2.359   2.799  11.000 -0.3559  0.3845  0.0985
  254loPI   GL2 4054   2.531   2.627  10.904 -0.1049  0.1874 -0.1828
  254loPI   C1A 4055   2.174   2.918  10.665  0.0930  0.0310 -0.0453
  254loPI   C2A 4056   2.165   2.976  10.236 -0.0834  0.2421 -0.1020
  254loPI   C3A 4057   2.217   2.941   9.771 -0.1469 -0.0282 -0.0929
  254loPI   C4A 4058   2.229   2.838   9.428  0.0950  0.2142 -0.0574
  254loPI   C5A 4059   2.337   2.869   9.045  0.1567 -0.3339  0.2013
  254loPI   C6A 4060   2.501   2.808   8.641 -0.1137  0.2938  0.0937
  254loPI   C1B 4061   2.569   2.648  10.489  0.0939  0.2500  0.0465
  254loPI   C2B 4062   2.649   2.625  10.164 -0.0540 -0.2695  0.2437
  254loPI   C3B 4063   2.648   2.600   9.736  0.0164 -0.0305 -0.2014
  254loPI   C4B 4064   2.708   2.573   9.353 -0.2085 -0.1225  0.2103
  255loPI    C1 4065  12.179   0.007  11.975  0.0680  0.0039 -0.0331
  255loPI    C2 4066  12.561   0.063  11.872  0.0142  0.0632 -0.2037
  255loPI    C3 4067  12.368   0.344  12.081 -0.0328  0.1828 -0.4051
  255loPI   PO4 4068  12.036  -0.095  11.758 -0.0445  0.5111  0.0099
  255loPI   GL1 4069  12.130  -0.281  11.388  0.1023  0.1670  0.1804
  255loPI   GL2 4070  12.388  -0.185  11.319  0.2468 -0.0936 -0.2408
  255loPI   C1A 4071  12.168  -0.557  11.014 -0.1327 -0.1597 -0.2560
  255loPI   C2A 4072  12.177  -0.537  10.552 -0.1221  0.0245 -0.0518
  255loPI   C3A 4073  12.128  -0.499  10.042 -0.0765 -0.0520 -0.1229
  255loPI   C4A 4074  12.059  -0.492   9.672  0.1130  0.1780 -0.0771
  255loPI   C5A 4075  12.062  -0.570   9.259 -0.1078 -0.5034  0.0682
  255loPI   C6A 4076  12.213  -0.606   8.903  0.1184  0.0407 -0.1869
  255loPI   C1B 4077  12.215  -0.019  10.878  0.3115  0.0379 -0.1775
  255loPI   C2B 4078  12.244   0.098  10.505 -0.0619  0.2514  0.1601
  255loPI   C3B 4079  12.200  -0.002  10.036 -0.1160  0.0054 -0.0807
  255loPI   C4B 4080  12.099   0.036   9.595  0.1119 -0.0014 -0.2133
  256loPI    C1 4081  16.638   6.539  11.441 -0.3367 -0.1444  0.0494
  256loPI    C2 4082  16.455   6.485  11.792 -0.0868 -0.3376  0.1541
  256loPI    C3 4083  16.754   6.243  11.685  0.1723  0.0296  0.0296
  256loPI   PO4 4084  16.452   6.565  11.294 -0.0820  0.3745 -0.0868
  256loPI   GL1 4085  16.453   6.725  10.856 -0.1693  0.2626 -0.1221
  256loPI   GL2 4086  16.717   6.764  10.661 -0.1776 -0.1576 -0.1664
  256loPI   C1A 4087  16.384   7.070  10.655 -0.0836  0.0512  0.0073
  256loPI   C2A 4088  16.346   7.211  10.295  0.2039  0.4174  0.1696
  256loPI   C3A 4089  16.369   7.163   9.797 -0.5224 -0.0148 -0.0797
  256loPI   C4A 4090  16.491   7.119   9.439  0.0193 -0.0117 -0.0349
  256loPI   C5A 4091  16.267   7.079   8.983 -0.0159  0.2218 -0.0588
  256loPI   C6A 4092  15.789   7.132   8.697  0.0825  0.2762  0.0614
  256loPI   C1B 4093  16.583   6.704  10.258  0.2092  0.0717 -0.1392
  256loPI   C2B 4094  16.602   6.672   9.746  0.1562 -0.1081 -0.1371
  256loPI   C3B 4095  16.765   6.740   9.371  0.0518 -0.1234  0.2270
  256loPI   C4B 4096  16.759   6.913   8.944  0.0506 -0.4534 -0.1956
  257loPI    C1 4097   6.112   4.063  11.724 -0.0138  0.0137  0.0674
  257loPI    C2 4098   5.958   4.190  12.071 -0.5333 -0.1148 -0.1062
  257loPI    C3 4099   6.001   4.445  11.766  0.0608  0.0333  0.0876
  257loPI   PO4 4100   5.836   3.850  11.753 -0.3186 -0.1195 -0.2069
  257loPI   GL1 4101   5.736   3.565  11.440 -0.1730 -0.2022  0.1429
  257loPI   GL2 4102   5.425   3.346  11.353 -0.3097  0.1003 -0.2037
  257loPI   C1A 4103   5.793   3.788  10.997  0.2527  0.0264 -0.1110
  257loPI   C2A 4104   5.831   3.816  10.595 -0.0887 -0.0793 -0.2226
  257loPI   C3A 4105   5.858   3.857  10.119  0.3011 -0.1779  0.1300
  257loPI   C4A 4106   5.859   3.839   9.683  0.1365  0.0743 -0.2624
  257loPI   C5A 4107   6.126   4.037   9.330  0.0616  0.1539 -0.2541
  257loPI   C6A 4108   6.303   3.921   8.984  0.0482  0.1161 -0.3784
  257loPI   C1B 4109   5.366   3.593  10.870  0.1560  0.2084  0.1433
  257loPI   C2B 4110   5.314   3.630  10.428  0.1796 -0.2635 -0.2729
  257loPI   C3B 4111   5.322   3.627  10.015 -0.3197  0.1341  0.1492
  257loPI   C4B 4112   5.471   3.558   9.584 -0.1900  0.0412 -0.0766
  258loPI    C1 4113   5.600   1.057  11.809  0.0391  0.1161  0.1336
  258loPI    C2 4114   5.511   0.667  11.821  0.0150  0.1172  0.0001
  258loPI    C3 4115   5.528   0.878  12.160  0.1822 -0.0342  0.0876
  258loPI   PO4 4116   5.526   1.141  11.598  0.2749 -0.2105  0.1689
  258loPI   GL1 4117   5.588   1.261  11.174 -0.0029 -0.0497 -0.1563
  258loPI   GL2 4118   5.382   1.551  11.018  0.1760  0.2845  0.0246
  258loPI   C1A 4119   5.689   1.154  10.744  0.1439  0.2351  0.0767
  258loPI   C2A 4120   5.801   1.229  10.289  0.1285 -0.0575 -0.1190
  258loPI   C3A 4121   5.916   1.241   9.776 -0.2489 -0.1921 -0.1404
  258loPI   C4A 4122   5.745   1.280   9.303 -0.0596 -0.0940 -0.1645
  258loPI   C5A 4123   5.563   1.456   8.980 -0.0713  0.1583 -0.0512
  258loPI   C6A 4124   5.327   1.515   8.664 -0.1080  0.0057  0.1154
  258loPI   C1B 4125   5.340   1.502  10.598  0.1257 -0.1790 -0.0466
  258loPI   C2B 4126   5.379   1.581  10.208  0.1873  0.1686  0.0778
  258loPI   C3B 4127   5.480   1.312   9.886 -0.1558 -0.3056 -0.1699
  258loPI   C4B 4128   5.391   1.021   9.622  0.1098 -0.2422  0.0652
  259loPI    C1 4129   5.477   7.875  11.818 -0.2743 -0.1990  0.0372
  259loPI    C2 4130   5.309   8.233  11.877 -0.0950 -0.1060 -0.0092
  259loPI    C3 4131   5.615   8.115  12.106  0.1178 -0.0544 -0.2624
  259loPI   PO4 4132   5.390   7.822  11.602 -0.0913  0.0603 -0.0556
  259loPI   GL1 4133   5.462   7.758  11.287  0.4873  0.0328  0.1655
  259loPI   GL2 4134   5.149   7.751  11.165 -0.2255 -0.2112 -0.1877
  259loPI   C1A 4135   5.558   7.769  10.828 -0.0129 -0.1830  0.0581
  259loPI   C2A 4136   5.682   7.848  10.396 -0.0672 -0.2421  0.1818
  259loPI   C3A 4137   5.664   7.800   9.883 -0.0102  0.1405 -0.1691
  259loPI   C4A 4138   5.597   7.791   9.462  0.1273 -0.1698  0.3710
  259loPI   C5A 4139   5.656   7.964   9.044  0.0522  0.1476 -0.0235
  259loPI   C6A 4140   6.005   8.115   8.754 -0.0540 -0.3635  0.0800
  259loPI   C1B 4141   4.974   7.502  10.757 -0.1237  0.0045 -0.1240
  259loPI   C2B 4142   5.183   7.485  10.423 -0.1197 -0.0532 -0.0936
  259loPI   C3B 4143   5.144   7.562  10.019  0.1264  0.2658 -0.1136
  259loPI   C4B 4144   5.160   7.540   9.549  0.1423 -0.1306  0.0103
  260loPI    C1 4145   1.392   0.933  11.678  0.1293  0.1203 -0.1137
  260loPI    C2 4146   1.093   1.159  11.536  0.0367  0.2768  0.3162
  260loPI    C3 4147   1.027   0.906  11.839  0.2006 -0.1486  0.0072
  260loPI   PO4 4148   1.586   0.961  11.558  0.1892  0.0345 -0.0478
  260loPI   GL1 4149   1.660   0.858  11.182 -0.2463 -0.0257  0.1853
  260loPI   GL2 4150   1.632   0.583  11.070  0.3225  0.0196 -0.1120
  260loPI   C1A 4151   1.670   1.112  10.850  0.0146 -0.3652 -0.1810
  260loPI   C2A 4152   1.724   1.204  10.488  0.0424  0.2112  0.3221
  260loPI   C3A 4153   1.661   1.063  10.126  0.0053  0.0659  0.0753
  260loPI   C4A 4154   1.728   1.116   9.625  0.0222  0.0466  0.0031
  260loPI   C5A 4155   1.775   1.069   9.264 -0.0273 -0.3283 -0.4069
  260loPI   C6A 4156   1.844   0.874   8.949  0.0409 -0.2609  0.0887
  260loPI   C1B 4157   1.628   0.632  10.660 -0.0647  0.1186 -0.1895
  260loPI   C2B 4158   1.642   0.572  10.269  0.0381  0.2980 -0.3122
  260loPI   C3B 4159   1.694   0.604   9.785  0.0793 -0.3289 -0.0719
  260loPI   C4B 4160   1.823   0.560   9.341  0.1047 -0.1236  0.0549
  261loPI    C1 4161   7.214  14.111  11.768 -0.0595  0.3073  0.0707
  261loPI    C2 4162   7.133  13.812  12.022  0.1557 -0.0086 -0.2236
  261loPI    C3 4163   7.205  14.180  12.162  0.1726 -0.1551  0.1638
  261loPI   PO4 4164   7.416  14.029  11.633 -0.2268 -0.1090 -0.0003
  261loPI   GL1 4165   7.219  13.955  11.292 -0.3840  0.1958 -0.0597
  261loPI   GL2 4166   7.419  13.666  11.201 -0.2938 -0.2903 -0.2661
  261loPI   C1A 4167   7.094  14.098  10.873 -0.0936  0.2196 -0.0429
  261loPI   C2A 4168   7.054  14.166  10.460 -0.3958  0.2230  0.3169
  261loPI   C3A 4169   7.074  14.065  10.029 -0.0411 -0.0062 -0.0288
  261loPI   C4A 4170   6.987  13.931   9.659  0.1391 -0.0297 -0.0041
  261loPI   C5A 4171   7.016  14.038   9.238 -0.1413  0.1953 -0.5527
  261loPI   C6A 4172   7.144  13.747   8.963  0.0090  0.0189 -0.4223
  261loPI   C1B 4173   7.424  13.789  10.725 -0.2669 -0.1555 -0.0808
  261loPI   C2B 4174   7.562  13.843  10.355 -0.0527 -0.2937  0.0355
  261loPI   C3B 4175   7.526  13.882   9.890 -0.1003  0.3213  0.2671
  261loPI   C4B 4176   7.439  13.757   9.424  0.0636 -0.1256  0.1939
  262loPI    C1 4177  15.416   0.027  11.501  0.1545 -0.1472 -0.1947
  262loPI    C2 4178  15.331  -0.281  11.742  0.0684  0.0198 -0.0090
  262loPI    C3 4179  15.266   0.093  11.865 -0.1164  0.1033 -0.3481
  262loPI   PO4 4180  15.321  -0.045  11.244 -0.0114  0.0174  0.3895
  262loPI   GL1 4181  15.374   0.277  10.980  0.4699  0.0951 -0.0009
  262loPI   GL2 4182  15.758   0.357  10.817  0.2530 -0.1180  0.1066
  262loPI   C1A 4183  15.333   0.216  10.503  0.2509 -0.3423  0.0630
  262loPI   C2A 4184  15.276   0.190  10.066 -0.1683  0.1446 -0.1571
  262loPI   C3A 4185  15.228   0.104   9.699 -0.0482  0.0252  0.1688
  262loPI   C4A 4186  15.067   0.037   9.307  0.0714 -0.0574  0.1548
  262loPI   C5A 4187  15.199   0.118   8.989 -0.3485 -0.2287  0.0356
  262loPI   C6A 4188  15.452   0.525   8.855  0.0600  0.1162  0.0823
  262loPI   C1B 4189  15.736   0.507  10.436  0.2906  0.1696  0.2904
  262loPI   C2B 4190  15.723   0.429  10.016 -0.2070  0.1853 -0.0220
  262loPI   C3B 4191  15.804   0.486   9.579  0.0864 -0.1470 -0.3744
  262loPI   C4B 4192  15.940   0.504   9.087 -0.0535  0.1345  0.0174
  263loPI    C1 4193  17.049  13.020  11.202  0.1761  0.2388  0.2194
  263loPI    C2 4194  16.954  13.106  11.581  0.1032  0.0833  0.2375
  263loPI    C3 4195  16.911  12.733  11.445 -0.2859  0.2244 -0.0471
  263loPI   PO4 4196  17.047  13.304  11.044 -0.0894 -0.0773 -0.0389
  263loPI   GL1 4197  17.327  13.504  10.760 -0.0448 -0.2143 -0.0783
  263loPI   GL2 4198  17.117  13.584  10.597  0.2409  0.0391 -0.1810
  263loPI   C1A 4199  17.440  13.579  10.261 -0.0367  0.1086 -0.0860
  263loPI   C2A 4200  17.462  13.505   9.805  0.0764 -0.0881  0.1025
  263loPI   C3A 4201  17.319  13.539   9.411 -0.1802  0.0034 -0.0247
  263loPI   C4A 4202  17.368  13.387   9.079 -0.0631 -0.2899  0.0877
  263loPI   C5A 4203  17.308  12.994   8.882  0.1001  0.1131 -0.0170
  263loPI   C6A 4204  17.748  12.994   8.799 -0.1062 -0.2705 -0.3047
  263loPI   C1B 4205  16.851  13.358  10.299 -0.1737  0.2108  0.1667
  263loPI   C2B 4206  16.936  13.379   9.861 -0.0142  0.0808 -0.0871
  263loPI   C3B 4207  16.878  13.312   9.405 -0.3297  0.2033 -0.2392
  263loPI   C4B 4208  16.957  12.876   9.163 -0.1128  0.0130 -0.1710
  264loPI    C1 4209   8.729   2.982  11.780  0.2365  0.0241  0.0896
  264loPI    C2 4210   8.534   3.058  11.440  0.3236 -0.0273  0.0279
  264loPI    C3 4211   8.330   2.953  11.768  0.2319  0.1124  0.0164
  264loPI   PO4 4212   8.904   2.755  11.676 -0.1439 -0.1016  0.1876
  264loPI   GL1 4213   9.033   2.597  11.310  0.1233  0.1070 -0.1199
  264loPI   GL2 4214   9.127   2.374  11.338  0.1315  0.2416  0.3654
  264loPI   C1A 4215   9.105   2.451  10.774  0.0457  0.2588  0.1181
  264loPI   C2A 4216   9.062   2.401  10.320  0.1675 -0.0358 -0.2549
  264loPI   C3A 4217   9.050   2.449   9.903 -0.1457 -0.0833  0.1518
  264loPI   C4A 4218   8.923   2.511   9.600 -0.1299  0.1017 -0.2534
  264loPI   C5A 4219   8.975   2.456   9.284 -0.1934  0.0158  0.0483
  264loPI   C6A 4220   8.806   2.177   8.944 -0.0222 -0.2596  0.2351
  264loPI   C1B 4221   9.474   2.056  11.094 -0.0627  0.0424 -0.0742
  264loPI   C2B 4222   9.545   2.106  10.657  0.3294  0.1321 -0.3403
  264loPI   C3B 4223   9.517   2.184  10.288 -0.0773  0.0137  0.2825
  264loPI   C4B 4224   9.630   2.201   9.875  0.0858 -0.0773  0.0735
  265loPI    C1 4225  13.026  11.959  11.441 -0.0234 -0.0819  0.1796
  265loPI    C2 4226  13.364  11.755  11.507  0.1705  0.1290 -0.1323
  265loPI    C3 4227  13.265  12.062  11.744  0.1560  0.0171  0.0075
  265loPI   PO4 4228  12.976  11.883  11.168 -0.2729  0.0087  0.1192
  265loPI   GL1 4229  12.975  12.028  10.918  0.0108  0.1443 -0.0592
  265loPI   GL2 4230  13.161  12.277  10.669 -0.1404  0.0670  0.0738
  265loPI   C1A 4231  12.830  12.000  10.456 -0.1585  0.1613 -0.0075
  265loPI   C2A 4232  12.856  11.948  10.060  0.4068  0.0181  0.0644
  265loPI   C3A 4233  12.896  11.948   9.614  0.2812  0.0281 -0.0591
  265loPI   C4A 4234  12.847  11.920   9.117 -0.0425 -0.1278 -0.1923
  265loPI   C5A 4235  13.319  11.941   8.838  0.2606  0.2362  0.2214
  265loPI   C6A 4236  13.438  12.274   8.505  0.2617  0.0035  0.1498
  265loPI   C1B 4237  13.075  12.358  10.249  0.1873  0.1471 -0.0660
  265loPI   C2B 4238  12.931  12.437   9.734  0.4809  0.1370  0.0740
  265loPI   C3B 4239  12.861  12.442   9.345  0.1562  0.1938 -0.1353
  265loPI   C4B 4240  12.741  12.765   9.064  0.1279 -0.5028  0.2375
  266loPI    C1 4241   4.954   6.451  11.923 -0.0517  0.1958 -0.2229
  266loPI    C2 4242   4.605   6.274  12.007 -0.0160  0.1017 -0.2716
  266loPI    C3 4243   4.682   6.640  12.146 -0.0626  0.0515 -0.1122
  266loPI   PO4 4244   4.997   6.367  11.686  0.1014  0.3754 -0.1729
  266loPI   GL1 4245   4.925   6.385  11.256  0.1626 -0.1431  0.1449
  266loPI   GL2 4246   5.308   6.375  11.272 -0.2626  0.2790  0.0284
  266loPI   C1A 4247   4.975   6.601  10.876 -0.1944  0.1462 -0.1234
  266loPI   C2A 4248   5.073   6.482  10.432 -0.2159 -0.0790 -0.1014
  266loPI   C3A 4249   5.077   6.473  10.127 -0.0440  0.0902 -0.0202
  266loPI   C4A 4250   5.183   6.590   9.710 -0.1765  0.2401 -0.2574
  266loPI   C5A 4251   5.338   6.564   9.314 -0.0016 -0.0041  0.0297
  266loPI   C6A 4252   5.325   6.252   9.111 -0.1504 -0.1777 -0.0532
  266loPI   C1B 4253   5.580   6.317  10.993 -0.0272 -0.0874 -0.1810
  266loPI   C2B 4254   5.500   6.206  10.501 -0.0090  0.0966  0.0473
  266loPI   C3B 4255   5.530   6.228  10.061  0.4301  0.1236 -0.3308
  266loPI   C4B 4256   5.579   6.167   9.611  0.2457  0.0177  0.0498
  267loPI    C1 4257   9.922  17.224  11.833  0.0283 -0.3564  0.0344
  267loPI    C2 4258   9.841  17.135  12.214 -0.1359  0.1564  0.1275
  267loPI    C3 4259  10.151  17.372  12.126  0.0298 -0.1308 -0.0783
  267loPI   PO4 4260   9.709  17.291  11.706  0.1566  0.1629  0.0324
  267loPI   GL1 4261   9.587  17.133  11.335 -0.1921  0.1620  0.0585
  267loPI   GL2 4262   9.514  16.895  11.168  0.1600  0.1341  0.2010
  267loPI   C1A 4263   9.614  17.322  10.902 -0.0318 -0.0028  0.0932
  267loPI   C2A 4264   9.518  17.297  10.490 -0.0551  0.0846  0.1986
  267loPI   C3A 4265   9.395  17.332  10.115 -0.1736 -0.2007  0.1321
  267loPI   C4A 4266   9.405  17.386   9.787 -0.2936 -0.1160  0.1710
  267loPI   C5A 4267   9.488  17.401   9.343  0.1879 -0.4334  0.1656
  267loPI   C6A 4268   9.430  17.259   8.950 -0.1041  0.2378  0.0778
  267loPI   C1B 4269   9.479  16.769  10.740  0.2083  0.1127 -0.1910
  267loPI   C2B 4270   9.456  16.811  10.322  0.0863  0.1938 -0.0747
  267loPI   C3B 4271   9.416  16.859   9.958  0.1117  0.2033 -0.2062
  267loPI   C4B 4272   9.389  16.845   9.488 -0.0476  0.1454  0.0669
  268loPI    C1 4273   9.233   1.037  12.257 -0.2110 -0.0285 -0.1665
  268loPI    C2 4274   9.005   1.361  12.314 -0.1053  0.0033  0.0875
  268loPI    C3 4275   9.016   1.073  12.592  0.0183 -0.0866 -0.0093
  268loPI   PO4 4276   9.373   1.141  11.939 -0.1875  0.2418 -0.0302
  268loPI   GL1 4277   9.449   1.177  11.493 -0.0212 -0.2104  0.1419
  268loPI   GL2 4278   9.136   1.006  11.441  0.2979  0.0167  0.0443
  268loPI   C1A 4279   9.546   1.108  10.981  0.2759  0.0680 -0.0305
  268loPI   C2A 4280   9.516   1.157  10.513  0.1102  0.3356  0.1505
  268loPI   C3A 4281   9.528   1.107  10.107 -0.1819  0.1171  0.1052
  268loPI   C4A 4282   9.429   1.159   9.626 -0.0376 -0.2573  0.2866
  268loPI   C5A 4283   9.009   1.071   9.316 -0.2577  0.0115 -0.3437
  268loPI   C6A 4284   8.681   1.014   9.015  0.0021  0.0018  0.1759
  268loPI   C1B 4285   9.046   0.971  11.042 -0.2086  0.1288  0.1006
  268loPI   C2B 4286   9.156   0.902  10.696  0.2238  0.2955 -0.0436
  268loPI   C3B 4287   8.992   0.876  10.280 -0.2247  0.3649  0.2949
  268loPI   C4B 4288   9.042   0.859   9.833  0.1083 -0.3064  0.0647
  269loPI    C1 4289   6.483  12.252  12.009  0.0765 -0.1235 -0.0966
  269loPI    C2 4290   6.570  11.862  11.999 -0.0536 -0.1601  0.1230
  269loPI    C3 4291   6.317  12.003  12.274  0.0340  0.0884  0.0789
  269loPI   PO4 4292   6.533  12.342  11.672 -0.0316  0.2771  0.3338
  269loPI   GL1 4293   6.385  12.330  11.317  0.0731  0.1708  0.0087
  269loPI   GL2 4294   6.424  11.965  11.259 -0.3766 -0.1351 -0.1664
  269loPI   C1A 4295   6.370  12.282  10.865 -0.0240 -0.1359  0.1352
  269loPI   C2A 4296   6.338  12.313  10.448  0.1647  0.0555 -0.2172
  269loPI   C3A 4297   6.413  12.244   9.987 -0.0589 -0.2272  0.0989
  269loPI   C4A 4298   6.298  12.231   9.620  0.0594 -0.1092  0.2397
  269loPI   C5A 4299   6.205  12.159   9.138 -0.0357  0.2142 -0.0006
  269loPI   C6A 4300   6.387  12.197   8.796 -0.0956  0.0125  0.0900
  269loPI   C1B 4301   6.729  11.965  11.040 -0.0529 -0.1064  0.2572
  269loPI   C2B 4302   6.743  12.054  10.565 -0.0849 -0.0427  0.1584
  269loPI   C3B 4303   6.817  11.976  10.220  0.0230 -0.0670  0.1253
  269loPI   C4B 4304   6.797  11.906   9.843  0.1751  0.0218  0.0164
  270loPI    C1 4305  15.840   5.387  11.202 -0.0556 -0.0063  0.0294
  270loPI    C2 4306  15.886   5.139  11.512 -0.2377 -0.0686  0.0078
  270loPI    C3 4307  15.537   5.326  11.455 -0.2376 -0.1327 -0.2146
  270loPI   PO4 4308  15.924   5.316  11.028 -0.1263 -0.0010 -0.2019
  270loPI   GL1 4309  15.828   5.044  10.719 -0.0194  0.0728 -0.2997
  270loPI   GL2 4310  15.542   4.968  10.646 -0.1279 -0.1467  0.2040
  270loPI   C1A 4311  15.807   4.775  10.294 -0.3822  0.0682 -0.1461
  270loPI   C2A 4312  15.903   4.689   9.900  0.1339 -0.1844  0.3186
  270loPI   C3A 4313  15.962   4.402   9.564 -0.2214 -0.0941  0.0325
  270loPI   C4A 4314  15.712   4.254   9.256  0.1474 -0.0207 -0.0930
  270loPI   C5A 4315  15.342   4.300   9.304  0.0020  0.0085  0.0780
  270loPI   C6A 4316  15.123   4.545   9.107  0.1491  0.0578  0.3031
  270loPI   C1B 4317  15.372   4.987  10.217  0.0425  0.0449  0.1205
  270loPI   C2B 4318  15.431   4.986   9.793  0.0251 -0.0602  0.2353
  270loPI   C3B 4319  15.544   4.731   9.412  0.0654 -0.1734  0.0701
  270loPI   C4B 4320  15.647   4.658   8.932 -0.0119 -0.1438  0.0651
  271loPI    C1 4321   3.032   2.521  11.490  0.1094  0.0782 -0.0329
  271loPI    C2 4322   3.057   2.144  11.621  0.0496  0.1123  0.0777
  271loPI    C3 4323   2.858   2.417  11.834 -0.0254  0.1750 -0.0712
  271loPI   PO4 4324   2.940   2.551  11.234 -0.0748  0.2179 -0.0034
  271loPI   GL1 4325   3.072   2.627  10.880  0.0829 -0.1771 -0.0275
  271loPI   GL2 4326   3.231   2.340  10.775 -0.0322  0.0872  0.0196
  271loPI   C1A 4327   3.048   2.842  10.483 -0.2301  0.1627  0.0642
  271loPI   C2A 4328   3.075   2.921  10.062  0.1544 -0.0759  0.1252
  271loPI   C3A 4329   3.100   2.862   9.627 -0.1313  0.1961  0.0504
  271loPI   C4A 4330   3.226   2.814   9.260  0.0358  0.2416 -0.0642
  271loPI   C5A 4331   3.313   2.942   8.833  0.0646  0.0702  0.1330
  271loPI   C6A 4332   3.605   2.906   8.490 -0.1847  0.1146  0.2552
  271loPI   C1B 4333   3.164   2.392  10.266  0.1268  0.1161  0.1562
  271loPI   C2B 4334   3.075   2.389   9.808  0.3987 -0.2106  0.1105
  271loPI   C3B 4335   3.115   2.256   9.400 -0.0834  0.1124  0.1169
  271loPI   C4B 4336   3.200   2.304   9.012 -0.1892 -0.2159 -0.1790
  272loPI    C1 4337   5.980  10.659  11.968  0.0865 -0.0583 -0.2481
  272loPI    C2 4338   5.968  11.051  12.044 -0.0232 -0.0773 -0.1635
  272loPI    C3 4339   6.137  10.801  12.307 -0.2404 -0.1227 -0.0651
  272loPI   PO4 4340   6.041  10.650  11.704  0.2453 -0.1153  0.0405
  272loPI   GL1 4341   6.326  10.582  11.365  0.1093  0.1157 -0.4317
  272loPI   GL2 4342   6.672  10.790  11.281  0.0253 -0.1986 -0.2892
  272loPI   C1A 4343   6.233  10.675  10.978  0.1632  0.0993  0.2295
  272loPI   C2A 4344   6.243  10.720  10.610 -0.1892 -0.0281 -0.1488
  272loPI   C3A 4345   6.307  10.660  10.215  0.2276  0.0300 -0.0107
  272loPI   C4A 4346   6.272  10.591   9.752 -0.0845 -0.0659 -0.1703
  272loPI   C5A 4347   6.314  10.440   9.395 -0.0511  0.0271  0.1308
  272loPI   C6A 4348   6.380  10.110   9.133  0.2044 -0.2136 -0.0703
  272loPI   C1B 4349   6.775  11.021  10.927 -0.1827 -0.2060 -0.1304
  272loPI   C2B 4350   6.659  11.005  10.545 -0.0760 -0.0761  0.2785
  272loPI   C3B 4351   6.789  10.949  10.083  0.0285 -0.0556 -0.1364
  272loPI   C4B 4352   6.694  10.928   9.625  0.0395 -0.1099 -0.0639
  273loPI    C1 4353  15.329   3.352  11.544 -0.2060 -0.2000  0.1782
  273loPI    C2 4354  15.209   3.230  11.906 -0.1627  0.1961  0.3318
  273loPI    C3 4355  15.369   3.594  11.861  0.0941  0.0438 -0.0389
  273loPI   PO4 4356  15.132   3.345  11.360 -0.2116  0.0563  0.4172
  273loPI   GL1 4357  15.036   3.423  10.969  0.1756 -0.1404  0.2075
  273loPI   GL2 4358  15.079   3.085  10.818 -0.4254  0.0482  0.0200
  273loPI   C1A 4359  14.586   3.342  10.727  0.1451  0.2911  0.3932
  273loPI   C2A 4360  14.354   3.102  10.513 -0.0280  0.1775  0.1482
  273loPI   C3A 4361  14.502   2.985  10.230  0.0473  0.0836 -0.2866
  273loPI   C4A 4362  14.515   2.809   9.799 -0.1539 -0.0515  0.2168
  273loPI   C5A 4363  14.323   2.752   9.433  0.1006 -0.0404 -0.0332
  273loPI   C6A 4364  14.186   2.950   9.043 -0.1200 -0.3656 -0.1607
  273loPI   C1B 4365  14.925   3.155  10.397  0.1718  0.1659 -0.0935
  273loPI   C2B 4366  14.973   3.041   9.890  0.1334  0.1601 -0.0906
  273loPI   C3B 4367  14.822   2.993   9.412 -0.3513 -0.1461  0.0745
  273loPI   C4B 4368  14.744   2.619   9.096 -0.1507 -0.2996 -0.1369
  274loPI    C1 4369  10.457   9.381  11.471 -0.1334 -0.0459  0.0834
  274loPI    C2 4370  10.144   9.606  11.576  0.0155  0.1366  0.1427
  274loPI    C3 4371  10.458   9.574  11.821  0.1484  0.1536 -0.0234
  274loPI   PO4 4372  10.262   9.103  11.405  0.0773 -0.3066  0.0222
  274loPI   GL1 4373  10.113   9.008  11.025  0.3420  0.0138  0.1582
  274loPI   GL2 4374   9.719   9.037  11.089 -0.0594  0.1501 -0.0702
  274loPI   C1A 4375  10.205   9.144  10.709  0.1229  0.1486  0.0280
  274loPI   C2A 4376  10.247   9.129  10.348  0.3598 -0.1841 -0.1757
  274loPI   C3A 4377  10.180   9.171   9.878 -0.0935 -0.3246  0.1844
  274loPI   C4A 4378  10.194   9.127   9.485 -0.2510 -0.0016 -0.0783
  274loPI   C5A 4379  10.204   9.217   9.022  0.1220  0.1556  0.1096
  274loPI   C6A 4380  10.184   9.567   8.831  0.0022  0.0851  0.2619
  274loPI   C1B 4381   9.792   8.898  10.661  0.0579 -0.1551  0.0340
  274loPI   C2B 4382   9.819   8.905  10.185  0.2873  0.0489  0.2037
  274loPI   C3B 4383   9.689   8.888   9.680 -0.2046 -0.5296  0.1654
  274loPI   C4B 4384   9.783   8.990   9.283 -0.3931  0.3335 -0.0447
  275loPI    C1 4385  13.098  16.602  11.562 -0.2226 -0.0889  0.1299
  275loPI    C2 4386  13.273  16.752  11.889  0.0646  0.1231 -0.1157
  275loPI    C3 4387  13.316  16.365  11.800  0.0967  0.0935  0.0254
  275loPI   PO4 4388  13.241  16.786  11.325 -0.1196  0.0304 -0.0317
  275loPI   GL1 4389  13.419  16.649  10.955  0.0197 -0.1128 -0.0873
  275loPI   GL2 4390  13.388  16.388  10.972  0.4535  0.1471  0.0987
  275loPI   C1A 4391  13.153  16.824  10.628 -0.0654  0.0742  0.4868
  275loPI   C2A 4392  13.110  16.702  10.278  0.1603  0.0157 -0.0626
  275loPI   C3A 4393  13.086  16.598   9.826 -0.0288 -0.2382  0.1849
  275loPI   C4A 4394  12.923  16.621   9.444 -0.0304 -0.2307  0.0075
  275loPI   C5A 4395  12.583  16.889   9.226  0.0326 -0.0664  0.1632
  275loPI   C6A 4396  12.423  17.238   9.127 -0.0518 -0.1753 -0.3756
  275loPI   C1B 4397  13.552  16.440  10.487  0.0064  0.2313  0.2233
  275loPI   C2B 4398  13.533  16.405  10.080 -0.0134 -0.1359 -0.1208
  275loPI   C3B 4399  13.466  16.303   9.664 -0.1223  0.1270 -0.2298
  275loPI   C4B 4400  13.356  16.375   9.276 -0.1125 -0.0512 -0.0417
  276loPI    C1 4401  13.143   5.242  11.724  0.0639 -0.0007 -0.1552
  276loPI    C2 4402  13.076   4.847  11.711  0.0537  0.0026 -0.2044
  276loPI    C3 4403  13.079   5.038  12.062 -0.0770 -0.0180 -0.1913
  276loPI   PO4 4404  13.313   5.322  11.510 -0.0845  0.1068  0.1963
  276loPI   GL1 4405  13.505   5.237  11.107 -0.0044  0.0157  0.2255
  276loPI   GL2 4406  13.632   5.526  10.958  0.1288 -0.1100  0.2530
  276loPI   C1A 4407  13.314   5.075  10.730  0.0667  0.2382 -0.1112
  276loPI   C2A 4408  13.456   4.905  10.442  0.0591  0.0863 -0.2414
  276loPI   C3A 4409  13.444   4.735   9.976 -0.0188 -0.4400 -0.1544
  276loPI   C4A 4410  13.296   4.699   9.529  0.0582 -0.2717  0.3263
  276loPI   C5A 4411  13.195   4.535   9.202 -0.0507  0.0845  0.2357
  276loPI   C6A 4412  12.993   4.671   8.670 -0.4898 -0.0005 -0.0229
  276loPI   C1B 4413  13.577   5.471  10.527  0.0560 -0.1865 -0.0501
  276loPI   C2B 4414  13.658   5.415  10.125  0.0855  0.0191  0.2585
  276loPI   C3B 4415  13.656   5.250   9.713 -0.1356  0.0155  0.1792
  276loPI   C4B 4416  13.726   5.106   9.318 -0.0898  0.0002 -0.1918
  277loPI    C1 4417   9.298   3.883  11.607  0.2053 -0.2207 -0.0275
  277loPI    C2 4418   9.246   3.597  11.881 -0.1406  0.0946  0.2484
  277loPI    C3 4419   9.525   3.878  11.936  0.0664 -0.0729  0.0726
  277loPI   PO4 4420   8.995   3.813  11.506  0.0299  0.4052 -0.1178
  277loPI   GL1 4421   8.968   3.667  11.064 -0.0858  0.3067 -0.0914
  277loPI   GL2 4422   8.966   3.914  10.977  0.0180 -0.2462 -0.0283
  277loPI   C1A 4423   8.996   3.419  10.768 -0.3818  0.0393 -0.1799
  277loPI   C2A 4424   9.164   3.393  10.442  0.3228  0.0912  0.1293
  277loPI   C3A 4425   9.087   3.525  10.087 -0.1802  0.0549 -0.1000
  277loPI   C4A 4426   9.186   3.534   9.714  0.1300  0.1991 -0.2163
  277loPI   C5A 4427   9.357   3.172   9.421 -0.2601 -0.0913 -0.1521
  277loPI   C6A 4428   9.577   2.817   9.164  0.0019 -0.2218 -0.0628
  277loPI   C1B 4429   8.978   3.874  10.553 -0.0223 -0.1139 -0.0547
  277loPI   C2B 4430   9.060   4.018  10.199  0.2615 -0.1180 -0.0123
  277loPI   C3B 4431   9.110   4.061   9.696 -0.2127 -0.0277 -0.3998
  277loPI   C4B 4432   8.842   4.197   9.344 -0.1426 -0.0705 -0.3058
  278loPI    C1 4433   8.053   7.588  11.981  0.3000 -0.0831 -0.0328
  278loPI    C2 4434   8.372   7.800  11.863  0.0973  0.2977  0.0872
  278loPI    C3 4435   8.236   7.834  12.238 -0.0096  0.0405  0.0739
  278loPI   PO4 4436   7.896   7.570  11.780  0.3665 -0.1128 -0.0820
  278loPI   GL1 4437   7.747   7.588  11.248  0.1040  0.0445 -0.4698
  278loPI   GL2 4438   7.476   7.621  11.139 -0.1126  0.2479  0.0864
  278loPI   C1A 4439   7.855   7.599  10.892  0.2085  0.0953  0.1124
  278loPI   C2A 4440   7.751   7.448  10.496  0.0410 -0.2063  0.0321
  278loPI   C3A 4441   7.828   7.385   9.986  0.2411 -0.0168 -0.0649
  278loPI   C4A 4442   7.892   7.324   9.605  0.1648  0.0564  0.2100
  278loPI   C5A 4443   8.258   7.087   9.366  0.2000  0.2011  0.2636
  278loPI   C6A 4444   8.380   6.743   9.305 -0.2198 -0.2661  0.0281
  278loPI   C1B 4445   7.437   7.744  10.712 -0.2235 -0.0847 -0.1659
  278loPI   C2B 4446   7.347   7.677  10.316  0.1465  0.1291 -0.2664
  278loPI   C3B 4447   7.435   7.678   9.875 -0.1636 -0.0037 -0.0396
  278loPI   C4B 4448   7.483   7.608   9.445  0.1082 -0.1770  0.2318
  279loPI    C1 4449  16.427  11.855  11.513  0.0375  0.0260  0.0484
  279loPI    C2 4450  16.055  11.717  11.567  0.0145  0.0670 -0.0028
  279loPI    C3 4451  16.169  12.059  11.741 -0.0850  0.2418 -0.2761
  279loPI   PO4 4452  16.470  11.974  11.240 -0.1329  0.0756  0.3730
  279loPI   GL1 4453  16.570  11.795  10.755 -0.1531 -0.3088 -0.2287
  279loPI   GL2 4454  16.267  11.798  10.688 -0.5148 -0.0815 -0.0926
  279loPI   C1A 4455  16.828  11.622  10.412 -0.0227  0.0455  0.1259
  279loPI   C2A 4456  17.165  11.447  10.052  0.1806  0.3074 -0.1256
  279loPI   C3A 4457  17.136  11.493   9.668  0.2551 -0.0067  0.1282
  279loPI   C4A 4458  17.384  11.474   9.268 -0.1567 -0.0473 -0.0143
  279loPI   C5A 4459  17.600  11.481   8.932  0.0251 -0.0802 -0.2880
  279loPI   C6A 4460  17.864  11.184   8.654  0.1518  0.2315  0.1864
  279loPI   C1B 4461  16.425  11.912  10.282 -0.0850 -0.0021 -0.1091
  279loPI   C2B 4462  16.589  11.795   9.980 -0.2922  0.3863 -0.0968
  279loPI   C3B 4463  16.685  11.811   9.648 -0.0379 -0.2476  0.0323
  279loPI   C4B 4464  16.784  12.056   9.233  0.0405 -0.2712  0.1281
  280loPI    C1 4465   8.244   2.139  12.013  0.0949 -0.0880  0.0099
  280loPI    C2 4466   7.964   2.310  12.241  0.0591 -0.2123  0.0601
  280loPI    C3 4467   8.311   2.195  12.403  0.1108 -0.1249  0.0124
  280loPI   PO4 4468   8.319   2.384  11.790  0.2529 -0.1243 -0.1009
  280loPI   GL1 4469   8.430   2.578  11.365  0.1389 -0.1882  0.0173
  280loPI   GL2 4470   8.237   2.388  11.287  0.1298 -0.1359  0.0448
  280loPI   C1A 4471   8.549   2.741  10.996  0.1528  0.0633  0.1872
  280loPI   C2A 4472   8.652   2.595  10.597  0.0965 -0.2467  0.0590
  280loPI   C3A 4473   8.536   2.673  10.229 -0.0352 -0.4032  0.1846
  280loPI   C4A 4474   8.619   2.785   9.783  0.1503  0.0287 -0.2268
  280loPI   C5A 4475   8.892   2.901   9.347 -0.3208  0.0485 -0.3042
  280loPI   C6A 4476   9.115   2.884   8.964  0.1297  0.0263  0.0346
  280loPI   C1B 4477   8.148   2.396  10.883  0.0275 -0.0746 -0.0925
  280loPI   C2B 4478   8.179   2.401  10.444 -0.1084 -0.3278 -0.1469
  280loPI   C3B 4479   8.126   2.494   9.954  0.1269  0.1022  0.5211
  280loPI   C4B 4480   7.988   2.402   9.584 -0.1321  0.1911 -0.1276
  281loPI    C1 4481   4.177   5.282  11.906 -0.0829 -0.2210  0.1501
  281loPI    C2 4482   3.779   5.317  11.935 -0.0463  0.3450  0.0863
  281loPI    C3 4483   4.012   5.434  12.237  0.0761 -0.0321  0.1437
  281loPI   PO4 4484   4.220   5.087  11.687 -0.2836  0.0420 -0.3220
  281loPI   GL1 4485   4.529   5.077  11.448 -0.2162 -0.1579 -0.1307
  281loPI   GL2 4486   4.431   4.781  11.281 -0.1393 -0.2211  0.2659
  281loPI   C1A 4487   4.692   5.109  10.989 -0.0064 -0.0185  0.0132
  281loPI   C2A 4488   4.628   5.229  10.600 -0.1384  0.0982  0.0163
  281loPI   C3A 4489   4.533   5.189  10.182  0.2253  0.0833 -0.0286
  281loPI   C4A 4490   4.724   5.223   9.782  0.3275 -0.1062  0.0439
  281loPI   C5A 4491   4.531   5.120   9.411 -0.3256  0.0076  0.2083
  281loPI   C6A 4492   4.154   5.197   9.112  0.4225  0.1600  0.1828
  281loPI   C1B 4493   4.461   4.615  10.914 -0.1697 -0.2607  0.1595
  281loPI   C2B 4494   4.660   4.684  10.496  0.0252  0.0216  0.0330
  281loPI   C3B 4495   4.606   4.720  10.005  0.2316  0.0284 -0.1525
  281loPI   C4B 4496   4.517   4.675   9.622  0.0703 -0.1745 -0.0052
  282loPI    C1 4497   2.575   7.441  11.623  0.0721 -0.2414  0.0484
  282loPI    C2 4498   2.448   7.678  11.919 -0.1127 -0.2522 -0.0214
  282loPI    C3 4499   2.656   7.347  12.003  0.3908  0.0752  0.0652
  282loPI   PO4 4500   2.444   7.442  11.463 -0.1793 -0.0713  0.0793
  282loPI   GL1 4501   2.474   7.585  11.031  0.1312  0.1997 -0.0898
  282loPI   GL2 4502   2.692   7.741  10.846 -0.0209 -0.0757  0.1802
  282loPI   C1A 4503   2.225   7.584  10.694  0.3031 -0.0312 -0.0403
  282loPI   C2A 4504   2.025   7.534  10.267 -0.0131  0.2166  0.0895
  282loPI   C3A 4505   2.092   7.451   9.752 -0.1982 -0.1238  0.4416
  282loPI   C4A 4506   2.030   7.512   9.351 -0.2271  0.1137  0.0918
  282loPI   C5A 4507   1.809   7.314   8.983 -0.0144  0.0479 -0.1568
  282loPI   C6A 4508   1.352   7.089   8.837  0.0366 -0.0087  0.0253
  282loPI   C1B 4509   2.559   7.685  10.394 -0.1220  0.2718 -0.0093
  282loPI   C2B 4510   2.436   7.721   9.955  0.0979 -0.0152 -0.0023
  282loPI   C3B 4511   2.530   7.641   9.536 -0.0218 -0.5015  0.1099
  282loPI   C4B 4512   2.398   7.747   9.095  0.0024 -0.2903 -0.1109
  283loPI    C1 4513   5.410  16.430  11.799  0.0644 -0.0852 -0.1097
  283loPI    C2 4514   5.256  16.066  11.864  0.1106 -0.1015 -0.0918
  283loPI    C3 4515   5.645  16.135  11.932  0.0166  0.0608  0.3149
  283loPI   PO4 4516   5.322  16.528  11.540 -0.0128  0.0283  0.1492
  283loPI   GL1 4517   5.354  16.309  11.128 -0.3166 -0.1011  0.0322
  283loPI   GL2 4518   5.132  16.547  11.044 -0.0121  0.1364  0.3009
  283loPI   C1A 4519   5.523  16.484  10.702  0.2601  0.1796  0.0391
  283loPI   C2A 4520   5.610  16.477  10.220 -0.2749  0.2142  0.0293
  283loPI   C3A 4521   5.880  16.440   9.870  0.1298  0.2441 -0.4470
  283loPI   C4A 4522   5.837  16.485   9.502 -0.4042 -0.2645  0.0235
  283loPI   C5A 4523   5.868  16.221   9.087 -0.0692 -0.3139  0.0335
  283loPI   C6A 4524   6.111  15.904   8.972 -0.0916  0.1438  0.0174
  283loPI   C1B 4525   5.054  16.561  10.584  0.1842 -0.1075 -0.2605
  283loPI   C2B 4526   5.073  16.548  10.144 -0.2131  0.0504  0.1503
  283loPI   C3B 4527   5.460  16.739   9.763  0.1085  0.0133  0.0088
  283loPI   C4B 4528   5.416  16.816   9.256 -0.2610  0.4442 -0.2159
  284loPI    C1 4529   5.472   6.546  11.739 -0.1131 -0.0401 -0.1678
  284loPI    C2 4530   5.543   6.168  11.631  0.1969  0.0521 -0.2979
  284loPI    C3 4531   5.441   6.253  12.008 -0.0839 -0.1823 -0.3175
  284loPI   PO4 4532   5.626   6.699  11.556 -0.3141  0.2908 -0.1139
  284loPI   GL1 4533   5.780   6.803  11.167 -0.2321  0.1358 -0.2788
  284loPI   GL2 4534   5.873   7.058  11.310  0.0916 -0.0947 -0.2337
  284loPI   C1A 4535   5.980   6.907  10.811  0.2486 -0.1243  0.0526
  284loPI   C2A 4536   6.032   6.861  10.419  0.2340 -0.1222  0.0706
  284loPI   C3A 4537   6.065   6.968   9.996 -0.0230  0.0523  0.1072
  284loPI   C4A 4538   6.041   7.025   9.549  0.1722  0.2292  0.3189
  284loPI   C5A 4539   6.064   7.533   9.403 -0.0106 -0.2244  0.0110
  284loPI   C6A 4540   6.109   7.947   9.243  0.2259 -0.1068 -0.2860
  284loPI   C1B 4541   5.553   7.313  11.015  0.0624  0.0346 -0.1503
  284loPI   C2B 4542   5.597   7.190  10.596 -0.0830  0.0078  0.1764
  284loPI   C3B 4543   5.628   7.277  10.108 -0.1419 -0.1001  0.0577
  284loPI   C4B 4544   5.642   7.274   9.638  0.0439 -0.1971 -0.2999
  285loPI    C1 4545   6.112   8.897  11.879 -0.0009  0.0797  0.0396
  285loPI    C2 4546   5.720   8.976  11.903 -0.0472 -0.1728  0.1488
  285loPI    C3 4547   5.941   8.951  12.237  0.0422 -0.1297  0.0934
  285loPI   PO4 4548   6.173   8.795  11.664  0.0818 -0.1909 -0.1323
  285loPI   GL1 4549   6.176   8.582  11.245 -0.2297 -0.0231 -0.0562
  285loPI   GL2 4550   6.214   8.277  11.247  0.4904 -0.1534 -0.2137
  285loPI   C1A 4551   6.189   8.545  10.787  0.0964 -0.0482  0.1955
  285loPI   C2A 4552   6.139   8.524  10.339  0.1256 -0.1152  0.2354
  285loPI   C3A 4553   6.065   8.503   9.881 -0.1869 -0.0316 -0.1199
  285loPI   C4A 4554   6.216   8.406   9.501 -0.1442 -0.0901  0.0349
  285loPI   C5A 4555   6.338   8.365   9.008  0.0321 -0.1320  0.2614
  285loPI   C6A 4556   6.657   8.239   8.859  0.1024 -0.1680 -0.0281
  285loPI   C1B 4557   6.000   8.070  10.939 -0.1336  0.2973  0.2409
  285loPI   C2B 4558   6.139   8.055  10.474 -0.0044  0.3620 -0.1563
  285loPI   C3B 4559   6.035   8.058  10.079  0.0983 -0.2560 -0.3101
  285loPI   C4B 4560   6.134   8.000   9.756 -0.0674 -0.1269  0.3177
  286loPI    C1 4561  15.425  15.115  11.294 -0.0916  0.1311  0.0051
  286loPI    C2 4562  15.418  15.323  11.635  0.2054  0.1726 -0.0109
  286loPI    C3 4563  15.547  14.944  11.635  0.1078  0.1390 -0.0606
  286loPI   PO4 4564  15.550  15.285  11.169 -0.1197 -0.0720  0.1512
  286loPI   GL1 4565  15.551  15.429  10.798 -0.0056 -0.0836 -0.2531
  286loPI   GL2 4566  15.171  15.211  10.856 -0.0098  0.0701 -0.0840
  286loPI   C1A 4567  15.705  15.326  10.410 -0.2457 -0.2144  0.0513
  286loPI   C2A 4568  15.812  15.382   9.990  0.1524 -0.1657 -0.2033
  286loPI   C3A 4569  15.638  15.280   9.674 -0.1857  0.5234  0.0392
  286loPI   C4A 4570  15.578  15.201   9.126  0.4738 -0.0930 -0.2234
  286loPI   C5A 4571  15.513  15.477   8.778  0.2350 -0.0118  0.1195
  286loPI   C6A 4572  15.342  15.860   8.689  0.1039 -0.0654  0.3501
  286loPI   C1B 4573  15.230  15.367  10.458  0.0517 -0.0017  0.2813
  286loPI   C2B 4574  15.238  15.283   9.969 -0.4185 -0.0654 -0.0985
  286loPI   C3B 4575  15.217  15.181   9.515 -0.0000 -0.0615 -0.2771
  286loPI   C4B 4576  15.092  15.045   9.104  0.1771  0.0565 -0.1526
  287loPI    C1 4577   5.893   6.064  12.056  0.0626 -0.1585  0.1571
  287loPI    C2 4578   5.667   5.909  12.347  0.0664 -0.0922  0.1955
  287loPI    C3 4579   5.789   6.289  12.369 -0.1560 -0.0057 -0.0218
  287loPI   PO4 4580   5.940   5.895  11.916 -0.0545  0.1880 -0.3843
  287loPI   GL1 4581   5.854   5.733  11.518  0.3087 -0.3033 -0.1066
  287loPI   GL2 4582   5.820   5.965  11.240  0.1437 -0.1589  0.2591
  287loPI   C1A 4583   5.889   5.520  11.063 -0.0463  0.0631 -0.0528
  287loPI   C2A 4584   5.883   5.523  10.604 -0.4177  0.2433  0.1252
  287loPI   C3A 4585   5.967   5.410  10.255  0.1665  0.1909 -0.1220
  287loPI   C4A 4586   6.002   5.422   9.833 -0.1291 -0.0630  0.2369
  287loPI   C5A 4587   5.809   5.356   9.433  0.1469  0.0930  0.0866
  287loPI   C6A 4588   5.635   5.319   8.988 -0.1301 -0.1130  0.0651
  287loPI   C1B 4589   5.894   5.982  10.770  0.0497  0.0760 -0.4135
  287loPI   C2B 4590   5.924   5.995  10.373  0.2273  0.0902  0.4358
  287loPI   C3B 4591   5.943   5.985   9.929 -0.2325 -0.0170 -0.0703
  287loPI   C4B 4592   6.072   5.806   9.510  0.0994 -0.2597 -0.0743
  288loPI    C1 4593   9.414  16.720  12.069 -0.0160  0.3406 -0.0582
  288loPI    C2 4594   9.412  16.449  12.363 -0.2332  0.1491 -0.2330
  288loPI    C3 4595   9.454  16.837  12.450  0.1794  0.0551  0.0115
  288loPI   PO4 4596   9.260  16.589  11.876 -0.1973 -0.0474  0.3281
  288loPI   GL1 4597   9.276  16.596  11.480  0.1917  0.0670  0.3136
  288loPI   GL2 4598   8.923  16.467  11.408  0.3472 -0.1953 -0.1342
  288loPI   C1A 4599   9.378  16.367  11.116 -0.2403  0.2410  0.0078
  288loPI   C2A 4600   9.447  16.229  10.741  0.0735 -0.0094  0.0203
  288loPI   C3A 4601   9.394  16.316  10.276 -0.0755 -0.1592  0.3236
  288loPI   C4A 4602   9.306  16.303   9.767 -0.0618  0.1955 -0.1518
  288loPI   C5A 4603   9.336  16.318   9.323  0.1876  0.0076  0.0077
  288loPI   C6A 4604   9.222  16.122   8.923 -0.0913  0.1151  0.2460
  288loPI   C1B 4605   9.006  16.587  11.008  0.1474  0.0050  0.2023
  288loPI   C2B 4606   9.024  16.549  10.542  0.0246 -0.1451  0.1723
  288loPI   C3B 4607   8.923  16.656  10.152 -0.0436  0.2816  0.0463
  288loPI   C4B 4608   8.908  16.616   9.702  0.2498  0.0470  0.0718
  289loPI    C1 4609  13.908  13.659  11.375 -0.1647  0.0102 -0.0277
  289loPI    C2 4610  13.808  13.774  11.744 -0.0976 -0.0323  0.0037
  289loPI    C3 4611  14.061  13.995  11.527  0.1071 -0.1680  0.1007
  289loPI   PO4 4612  13.645  13.568  11.242 -0.2437  0.0169 -0.0367
  289loPI   GL1 4613  13.538  13.664  10.904 -0.0618 -0.1428  0.0199
  289loPI   GL2 4614  13.831  13.830  10.811  0.1337 -0.2551 -0.1850
  289loPI   C1A 4615  13.444  13.736  10.493 -0.0994 -0.0630  0.2555
  289loPI   C2A 4616  13.427  13.772  10.011  0.0476 -0.0739 -0.2221
  289loPI   C3A 4617  13.193  13.813   9.548  0.0011 -0.1712 -0.1553
  289loPI   C4A 4618  12.764  13.636   9.506  0.1756  0.0053 -0.4393
  289loPI   C5A 4619  12.501  13.611   9.141  0.2919  0.0168  0.2918
  289loPI   C6A 4620  12.204  14.029   8.914  0.1658  0.0311 -0.0619
  289loPI   C1B 4621  13.807  14.091  10.521 -0.0424 -0.0110 -0.5058
  289loPI   C2B 4622  13.747  14.101  10.035  0.1774 -0.1377 -0.1291
  289loPI   C3B 4623  13.751  14.119   9.651 -0.2281 -0.1951  0.1200
  289loPI   C4B 4624  13.578  13.986   9.274 -0.0786 -0.1419  0.3559
  290loPI    C1 4625   7.112  10.671  11.922 -0.1132 -0.2137  0.0552
  290loPI    C2 4626   6.905  10.968  11.751  0.0706  0.0415  0.2677
  290loPI    C3 4627   6.978  10.975  12.144  0.0697 -0.2924  0.2769
  290loPI   PO4 4628   7.318  10.655  11.762 -0.0698 -0.0703 -0.0735
  290loPI   GL1 4629   7.467  10.983  11.469 -0.0117  0.0356 -0.1186
  290loPI   GL2 4630   7.137  10.872  11.307  0.0595  0.0471 -0.0979
  290loPI   C1A 4631   7.605  10.924  11.046 -0.0955  0.2972  0.1615
  290loPI   C2A 4632   7.676  10.951  10.644 -0.0946  0.0885 -0.2107
  290loPI   C3A 4633   7.673  10.757  10.258 -0.0170  0.0274 -0.1515
  290loPI   C4A 4634   7.636  10.794   9.939  0.1200  0.1423  0.3245
  290loPI   C5A 4635   7.573  10.857   9.540 -0.0321 -0.0052 -0.0628
  290loPI   C6A 4636   7.385  10.493   9.239  0.1367  0.3844  0.1031
  290loPI   C1B 4637   7.171  10.611  10.956  0.0307 -0.1226  0.1030
  290loPI   C2B 4638   7.173  10.663  10.506  0.0512  0.1910  0.1347
  290loPI   C3B 4639   7.194  10.601  10.060 -0.0963  0.1128  0.0164
  290loPI   C4B 4640   7.180  10.624   9.727  0.0543 -0.5412 -0.1107
  291loPI    C1 4641   5.120   5.364  11.978  0.0184  0.0109  0.0467
  291loPI    C2 4642   5.413   5.113  12.083  0.1120  0.1053  0.0132
  291loPI    C3 4643   5.365   5.458  12.279  0.0283  0.0942  0.0129
  291loPI   PO4 4644   5.156   5.376  11.699 -0.0242  0.1699 -0.1594
  291loPI   GL1 4645   5.050   5.264  11.441  0.4281 -0.2218  0.2065
  291loPI   GL2 4646   4.810   5.527  11.445  0.2199  0.0424 -0.1214
  291loPI   C1A 4647   5.117   5.418  11.058 -0.2636  0.1902  0.0807
  291loPI   C2A 4648   5.032   5.539  10.679 -0.0312  0.4200 -0.0277
  291loPI   C3A 4649   5.007   5.509  10.260 -0.2265 -0.1844  0.0163
  291loPI   C4A 4650   5.158   5.473   9.855  0.0494 -0.1438 -0.1174
  291loPI   C5A 4651   5.163   5.317   9.496 -0.1009 -0.1405 -0.1159
  291loPI   C6A 4652   5.183   5.068   9.141  0.1480 -0.0948  0.0573
  291loPI   C1B 4653   4.608   5.626  11.016  0.1191 -0.0640 -0.0476
  291loPI   C2B 4654   4.617   5.784  10.580 -0.1573  0.3385 -0.0666
  291loPI   C3B 4655   4.509   5.683  10.126  0.0243 -0.0492 -0.0094
  291loPI   C4B 4656   4.678   5.705   9.706 -0.0681 -0.0652  0.1258
  292loPI    C1 4657  10.755  11.693  11.995 -0.0623  0.1091  0.0299
  292loPI    C2 4658  11.152  11.740  11.977 -0.0520  0.0621  0.1226
  292loPI    C3 4659  10.926  12.016  12.157 -0.0588  0.0756  0.0934
  292loPI   PO4 4660  10.629  11.702  11.732 -0.4462  0.0899  0.1018
  292loPI   GL1 4661  10.627  11.742  11.320 -0.0275 -0.0632  0.1913
  292loPI   GL2 4662  10.360  11.801  11.195 -0.2039  0.1298  0.0612
  292loPI   C1A 4663  10.720  11.778  10.887  0.0123  0.2442  0.3322
  292loPI   C2A 4664  10.569  11.774  10.466 -0.1127 -0.1432  0.1695
  292loPI   C3A 4665  10.558  11.722   9.957 -0.0293  0.1295 -0.0407
  292loPI   C4A 4666  10.604  11.753   9.480 -0.3336  0.0598  0.1704
  292loPI   C5A 4667  10.454  11.575   9.128  0.0997 -0.0038  0.1906
  292loPI   C6A 4668  10.211  11.594   8.750  0.2958  0.0987 -0.2308
  292loPI   C1B 4669  10.229  11.677  10.797  0.0802  0.2054  0.2640
  292loPI   C2B 4670  10.116  11.493  10.483 -0.0100  0.1492 -0.2140
  292loPI   C3B 4671  10.135  11.485  10.105  0.3118  0.1342  0.2708
  292loPI   C4B 4672  10.103  11.567   9.709 -0.0844  0.2761  0.0528
  293loPI    C1 4673  11.044   7.067  11.872  0.0617 -0.3338  0.0209
  293loPI    C2 4674  11.383   6.864  11.810  0.1786 -0.1766  0.1336
  293loPI    C3 4675  11.398   7.250  11.913 -0.0410 -0.1109 -0.0706
  293loPI   PO4 4676  10.896   7.131  11.659  0.0497  0.0369  0.1131
  293loPI   GL1 4677  10.703   7.010  11.355 -0.2329  0.0203 -0.0994
  293loPI   GL2 4678  10.974   7.079  11.170  0.1370  0.1509 -0.1545
  293loPI   C1A 4679  10.534   6.974  11.005  0.0780 -0.3419  0.0179
  293loPI   C2A 4680  10.382   7.073  10.555  0.0562 -0.1673 -0.3333
  293loPI   C3A 4681  10.259   7.078  10.090  0.2637  0.0999 -0.0508
  293loPI   C4A 4682  10.029   7.088   9.756 -0.2552  0.0836  0.0910
  293loPI   C5A 4683   9.979   7.220   9.392  0.0898 -0.0747  0.1073
  293loPI   C6A 4684   9.862   7.394   8.978 -0.0967  0.0493 -0.0055
  293loPI   C1B 4685  11.088   7.055  10.722  0.2654  0.2607  0.3932
  293loPI   C2B 4686  11.188   7.011  10.270 -0.1267  0.4945 -0.0945
  293loPI   C3B 4687  11.384   6.913   9.900  0.0227  0.1958  0.0429
  293loPI   C4B 4688  11.531   7.050   9.520 -0.2242 -0.2460 -0.1213
  294loPI    C1 4689   3.148  14.029  11.745 -0.0748  0.4325  0.1819
  294loPI    C2 4690   3.358  13.807  12.003 -0.0246  0.2596 -0.0054
  294loPI    C3 4691   3.002  13.955  12.110 -0.2676 -0.2860 -0.0242
  294loPI   PO4 4692   3.187  13.909  11.518 -0.4497 -0.0322 -0.0674
  294loPI   GL1 4693   3.108  13.648  11.239 -0.3683 -0.1474  0.0820
  294loPI   GL2 4694   2.888  13.826  11.072  0.2004 -0.1489  0.3393
  294loPI   C1A 4695   3.255  13.595  10.785  0.2659 -0.1753 -0.0051
  294loPI   C2A 4696   3.290  13.636  10.365  0.0355  0.2567  0.0879
  294loPI   C3A 4697   3.250  13.631   9.999  0.2562 -0.0881 -0.0810
  294loPI   C4A 4698   3.272  13.758   9.556  0.2423  0.2484 -0.0492
  294loPI   C5A 4699   3.197  13.645   9.141 -0.1965 -0.0931 -0.1109
  294loPI   C6A 4700   3.333  13.719   8.747  0.0283 -0.0009  0.1905
  294loPI   C1B 4701   2.845  13.886  10.590 -0.1699 -0.0406  0.1012
  294loPI   C2B 4702   2.851  13.939  10.233  0.2863 -0.2247  0.3687
  294loPI   C3B 4703   2.808  14.011   9.792  0.2175 -0.1148  0.0230
  294loPI   C4B 4704   2.874  13.970   9.411 -0.4989  0.1314 -0.2400
  295loPI    C1 4705   4.970   5.957  12.010 -0.0190 -0.0708 -0.1261
  295loPI    C2 4706   4.852   5.686  12.281 -0.0941  0.1084  0.0224
  295loPI    C3 4707   5.157   5.932  12.363 -0.0978  0.1438 -0.0679
  295loPI   PO4 4708   5.032   5.846  11.778  0.1077  0.0441 -0.2032
  295loPI   GL1 4709   5.133   5.883  11.337  0.3367  0.1396  0.1249
  295loPI   GL2 4710   5.407   5.727  11.381 -0.1520 -0.1530 -0.1607
  295loPI   C1A 4711   5.044   5.992  10.954  0.1493  0.0172  0.0468
  295loPI   C2A 4712   5.044   6.024  10.536 -0.2695 -0.0053 -0.1572
  295loPI   C3A 4713   5.068   6.005  10.157  0.2520  0.3044 -0.1529
  295loPI   C4A 4714   5.139   6.017   9.802  0.2250  0.1391 -0.1955
  295loPI   C5A 4715   4.979   5.921   9.341 -0.0650  0.1313 -0.3446
  295loPI   C6A 4716   4.923   6.071   8.859  0.2641  0.0928 -0.2512
  295loPI   C1B 4717   5.485   5.774  10.915  0.2405  0.0058  0.1994
  295loPI   C2B 4718   5.469   5.729  10.507  0.0735 -0.2164 -0.1127
  295loPI   C3B 4719   5.537   5.741  10.053  0.1655 -0.2901 -0.0375
  295loPI   C4B 4720   5.556   5.674   9.679 -0.2589  0.0263 -0.0559
  296loPI    C1 4721  15.934   6.911  10.915 -0.1489  0.0261  0.1891
  296loPI    C2 4722  16.038   7.298  10.920 -0.2215  0.0503 -0.0672
  296loPI    C3 4723  16.139   7.060  11.225  0.1819  0.1780 -0.0964
  296loPI   PO4 4724  15.596   7.003  10.911  0.1081  0.0738 -0.0394
  296loPI   GL1 4725  15.331   7.021  10.623  0.0767  0.0467  0.3445
  296loPI   GL2 4726  15.130   7.139  10.602 -0.4100 -0.1097  0.1653
  296loPI   C1A 4727  15.428   6.936  10.178 -0.3817 -0.0451 -0.1973
  296loPI   C2A 4728  15.548   6.772   9.742  0.0748 -0.2007  0.3114
  296loPI   C3A 4729  15.611   6.652   9.323  0.0996  0.2560 -0.0077
  296loPI   C4A 4730  15.827   6.670   8.975  0.1976 -0.0757  0.1152
  296loPI   C5A 4731  16.091   6.810   8.573 -0.1529  0.0291 -0.0935
  296loPI   C6A 4732  16.462   6.582   8.580 -0.1092  0.1420  0.0616
  296loPI   C1B 4733  14.971   7.164  10.196  0.2785  0.1556 -0.2326
  296loPI   C2B 4734  15.146   7.068   9.689  0.0023 -0.0948  0.0927
  296loPI   C3B 4735  14.987   6.873   9.284  0.4040 -0.0441 -0.1025
  296loPI   C4B 4736  14.753   6.919   8.889 -0.1835 -0.1474 -0.0450
  297loPI    C1 4737   3.182   3.641  11.452 -0.0267  0.2532  0.0678
  297loPI    C2 4738   3.141   4.029  11.365 -0.1235  0.1845 -0.1992
  297loPI    C3 4739   3.153   3.911  11.746  0.0970  0.4688 -0.1143
  297loPI   PO4 4740   3.306   3.451  11.303  0.0271 -0.1876 -0.0898
  297loPI   GL1 4741   3.386   3.592  10.993  0.0900  0.1099 -0.1871
  297loPI   GL2 4742   3.282   3.913  10.930  0.3473 -0.0576 -0.2798
  297loPI   C1A 4743   3.502   3.722  10.558 -0.2642  0.2037  0.1498
  297loPI   C2A 4744   3.515   3.764  10.032 -0.1056  0.0509 -0.1590
  297loPI   C3A 4745   3.591   3.698   9.612  0.0986  0.0337  0.3118
  297loPI   C4A 4746   3.747   3.672   9.284  0.0396  0.0858  0.1504
  297loPI   C5A 4747   4.076   3.820   8.997 -0.0360  0.1665 -0.2638
  297loPI   C6A 4748   4.360   4.129   8.738  0.0589  0.2121 -0.1240
  297loPI   C1B 4749   3.075   3.963  10.550 -0.1540 -0.1697  0.1189
  297loPI   C2B 4750   3.129   3.984  10.187 -0.2075  0.0198  0.1629
  297loPI   C3B 4751   3.126   3.911   9.799 -0.0824  0.0021  0.2770
  297loPI   C4B 4752   3.215   3.954   9.316  0.1472  0.2757  0.0126
  298loPI    C1 4753   8.263  11.790  11.899 -0.1467 -0.0126  0.0722
  298loPI    C2 4754   8.640  11.915  11.950 -0.0528 -0.1220 -0.3187
  298loPI    C3 4755   8.484  11.644  12.199  0.0296  0.1289  0.0139
  298loPI   PO4 4756   8.276  11.774  11.660  0.1402 -0.0562  0.0580
  298loPI   GL1 4757   8.072  11.755  11.254 -0.3580  0.1526 -0.0269
  298loPI   GL2 4758   8.062  12.083  11.259  0.0261  0.1114 -0.1560
  298loPI   C1A 4759   8.147  11.597  10.840  0.1649  0.0934 -0.2507
  298loPI   C2A 4760   8.147  11.698  10.449 -0.2435  0.1215  0.1950
  298loPI   C3A 4761   8.202  11.643  10.103  0.0680 -0.2803  0.3148
  298loPI   C4A 4762   8.144  11.556   9.641 -0.1050 -0.2888  0.4580
  298loPI   C5A 4763   8.465  11.799   9.272  0.0597 -0.0736 -0.4955
  298loPI   C6A 4764   8.476  12.240   9.208 -0.0728  0.1697  0.3268
  298loPI   C1B 4765   8.126  12.146  10.774  0.0786 -0.0281 -0.0793
  298loPI   C2B 4766   8.204  12.157  10.274  0.2906 -0.2298 -0.2195
  298loPI   C3B 4767   8.224  12.134   9.879  0.0096  0.2447 -0.0470
  298loPI   C4B 4768   8.069  12.109   9.484 -0.0185  0.1906 -0.0815
  299loPI    C1 4769   1.430  12.147  11.474  0.0516 -0.0632  0.0061
  299loPI    C2 4770   1.655  11.944  11.736 -0.0143 -0.0892  0.0428
  299loPI    C3 4771   1.345  12.162  11.865  0.0591  0.0390  0.0040
  299loPI   PO4 4772   1.507  12.343  11.207 -0.3599  0.1418 -0.2603
  299loPI   GL1 4773   1.596  12.377  10.808 -0.1173  0.0573  0.1455
  299loPI   GL2 4774   1.297  12.241  10.627 -0.0666  0.0611 -0.2676
  299loPI   C1A 4775   1.830  12.401  10.434 -0.0530 -0.3674 -0.3027
  299loPI   C2A 4776   1.813  12.387   9.956  0.1264 -0.0511 -0.0616
  299loPI   C3A 4777   1.924  12.415   9.555  0.2547  0.0282 -0.5854
  299loPI   C4A 4778   1.827  12.360   9.120  0.1668 -0.0842  0.2485
  299loPI   C5A 4779   1.865  12.611   8.708  0.1675  0.0217  0.0915
  299loPI   C6A 4780   1.538  12.717   8.465 -0.2594  0.3380  0.3032
  299loPI   C1B 4781   1.381  12.300  10.144 -0.2394  0.3956 -0.0364
  299loPI   C2B 4782   1.424  12.215   9.738  0.2525  0.1934  0.3458
  299loPI   C3B 4783   1.517  12.117   9.381 -0.0454 -0.0228  0.0242
  299loPI   C4B 4784   1.546  12.020   8.903 -0.1002 -0.1070 -0.1410
  300loPI    C1 4785   1.668  14.494  11.825  0.1985 -0.1000 -0.0623
  300loPI    C2 4786   1.827  14.706  12.125 -0.0882  0.1111 -0.0558
  300loPI    C3 4787   1.481  14.513  12.178 -0.0209 -0.0455 -0.1798
  300loPI   PO4 4788   1.880  14.400  11.702 -0.0011  0.0112  0.2660
  300loPI   GL1 4789   2.037  14.273  11.280 -0.2083  0.0001 -0.1164
  300loPI   GL2 4790   2.320  13.969  11.140 -0.1006 -0.3549 -0.2867
  300loPI   C1A 4791   1.884  14.357  10.827  0.4839  0.2507  0.1332
  300loPI   C2A 4792   1.913  14.533  10.380 -0.2763 -0.0484 -0.0623
  300loPI   C3A 4793   1.962  14.590   9.927  0.0756  0.0552 -0.0954
  300loPI   C4A 4794   2.022  14.509   9.530  0.1349  0.1595  0.0640
  300loPI   C5A 4795   2.156  14.495   9.112  0.0646 -0.0232  0.1808
  300loPI   C6A 4796   2.352  14.611   8.691  0.0148  0.0777 -0.1960
  300loPI   C1B 4797   2.329  14.113  10.792 -0.0252  0.0088  0.2231
  300loPI   C2B 4798   2.462  14.167  10.430 -0.0028  0.0372 -0.0309
  300loPI   C3B 4799   2.351  14.240   9.961 -0.1798 -0.2128 -0.3771
  300loPI   C4B 4800   2.450  14.249   9.501  0.2997 -0.0877 -0.1732
  301loPI    C1 4801  12.362  13.975  11.714 -0.0950 -0.0806  0.2047
  301loPI    C2 4802  12.135  13.690  11.881  0.0064 -0.1127  0.2883
  301loPI    C3 4803  12.408  13.885  12.101  0.1098 -0.1242  0.1715
  301loPI   PO4 4804  12.152  13.973  11.457  0.1537 -0.1827 -0.1117
  301loPI   GL1 4805  12.213  13.849  11.095  0.3481  0.1877 -0.4061
  301loPI   GL2 4806  11.861  13.949  11.062 -0.0852 -0.1407 -0.0321
  301loPI   C1A 4807  12.493  13.842  10.686 -0.0134  0.2766 -0.1058
  301loPI   C2A 4808  12.394  13.941  10.354  0.0756 -0.3009  0.1082
  301loPI   C3A 4809  12.413  13.845   9.968 -0.1984  0.0533  0.1840
  301loPI   C4A 4810  12.350  13.893   9.578 -0.2656 -0.1428 -0.0499
  301loPI   C5A 4811  12.044  13.701   9.278  0.2120 -0.0453 -0.0719
  301loPI   C6A 4812  11.707  13.545   9.097  0.0174 -0.0019  0.0948
  301loPI   C1B 4813  11.864  13.895  10.645 -0.5620  0.1815 -0.1001
  301loPI   C2B 4814  11.893  13.897  10.220  0.1180 -0.3511 -0.0708
  301loPI   C3B 4815  11.955  14.095   9.929  0.2059 -0.0671 -0.1555
  301loPI   C4B 4816  11.964  14.152   9.556  0.1928 -0.0227 -0.0609
  302loPI    C1 4817   7.427  17.202  11.609 -0.0296  0.1521 -0.0821
  302loPI    C2 4818   7.519  17.337  11.973  0.0501 -0.2511  0.0530
  302loPI    C3 4819   7.136  17.276  11.873  0.0237 -0.0764  0.0432
  302loPI   PO4 4820   7.454  17.361  11.359  0.1635  0.0589  0.2637
  302loPI   GL1 4821   7.808  17.542  11.159 -0.2072  0.0532  0.0731
  302loPI   GL2 4822   7.759  17.841  11.342 -0.0232  0.0414 -0.1692
  302loPI   C1A 4823   7.711  17.526  10.729 -0.1592 -0.0661 -0.1366
  302loPI   C2A 4824   7.701  17.450  10.224 -0.0183 -0.0224 -0.0625
  302loPI   C3A 4825   7.716  17.478   9.823  0.0268  0.0499 -0.1426
  302loPI   C4A 4826   7.625  17.455   9.410  0.4092  0.0357 -0.1389
  302loPI   C5A 4827   7.776  17.369   8.932  0.1511 -0.0108  0.1149
  302loPI   C6A 4828   7.761  17.312   8.512  0.2171  0.0381  0.0644
  302loPI   C1B 4829   7.742  17.982  10.885  0.1275  0.1202 -0.0355
  302loPI   C2B 4830   7.600  17.956  10.467  0.0702 -0.3673  0.0952
  302loPI   C3B 4831   7.680  17.958   9.960 -0.1676  0.1046  0.2770
  302loPI   C4B 4832   7.674  18.031   9.586  0.1728 -0.0589 -0.2074
  303loPI    C1 4833   8.176   5.870  11.832 -0.1280  0.0469  0.0549
  303loPI    C2 4834   8.504   6.091  11.896 -0.1139  0.0175  0.0845
  303loPI    C3 4835   8.412   5.792  12.146 -0.1155 -0.0306  0.0265
  303loPI   PO4 4836   8.150   5.829  11.619 -0.1393 -0.3574 -0.1834
  303loPI   GL1 4837   7.888   6.002  11.356  0.0281 -0.5836 -0.2067
  303loPI   GL2 4838   8.174   6.107  11.194 -0.2811  0.0861  0.2377
  303loPI   C1A 4839   7.776   5.934  10.977  0.2321  0.1043 -0.1123
  303loPI   C2A 4840   7.848   5.893  10.567  0.0998  0.0726 -0.1088
  303loPI   C3A 4841   7.872   5.940  10.119  0.0565 -0.0180  0.1394
  303loPI   C4A 4842   7.802   5.952   9.631 -0.0476 -0.0495  0.2333
  303loPI   C5A 4843   7.980   5.750   9.201 -0.0354 -0.1525 -0.3074
  303loPI   C6A 4844   8.130   5.910   8.804 -0.1363 -0.4196 -0.0734
  303loPI   C1B 4845   8.293   6.209  10.721 -0.2129 -0.2466  0.2173
  303loPI   C2B 4846   8.278   6.203  10.296  0.1042 -0.1946 -0.1652
  303loPI   C3B 4847   8.262   6.156   9.894 -0.3588 -0.0087 -0.2432
  303loPI   C4B 4848   8.322   6.093   9.378 -0.1448 -0.1469 -0.2093
  304loPI    C1 4849  12.539  11.756  11.770  0.0698 -0.1188 -0.1981
  304loPI    C2 4850  12.791  12.034  11.910 -0.0471  0.0398 -0.2996
  304loPI    C3 4851  12.437  12.142  11.759 -0.1994 -0.1857 -0.1106
  304loPI   PO4 4852  12.590  11.656  11.526  0.3125  0.0016 -0.0943
  304loPI   GL1 4853  12.572  11.584  11.129  0.1231  0.1796 -0.1828
  304loPI   GL2 4854  12.453  11.815  10.941 -0.1729 -0.1504  0.1247
  304loPI   C1A 4855  12.454  11.431  10.701  0.0391  0.4063  0.3376
  304loPI   C2A 4856  12.322  11.301  10.327 -0.1824 -0.2206  0.0907
  304loPI   C3A 4857  12.266  11.189   9.979 -0.1246  0.2406  0.0665
  304loPI   C4A 4858  12.340  11.217   9.630  0.1386 -0.2059  0.1766
  304loPI   C5A 4859  12.173  11.306   9.293  0.0083  0.1334 -0.0500
  304loPI   C6A 4860  11.799  11.407   9.244  0.2384 -0.1096  0.1971
  304loPI   C1B 4861  12.342  11.883  10.555  0.1466 -0.0648 -0.3256
  304loPI   C2B 4862  12.347  11.801  10.223 -0.0036 -0.1071  0.0459
  304loPI   C3B 4863  12.246  11.776   9.877 -0.3047 -0.0847  0.2338
  304loPI   C4B 4864  12.408  11.728   9.536  0.0326 -0.2322 -0.2532
  305loPI    C1 4865   0.323   4.447  11.242 -0.1466  0.1167  0.1290
  305loPI    C2 4866   0.509   4.754  11.066 -0.0942 -0.1146 -0.2285
  305loPI    C3 4867   0.596   4.658  11.444  0.2626 -0.0059 -0.2794
  305loPI   PO4 4868   0.273   4.322  11.068 -0.0243 -0.1798 -0.2807
  305loPI   GL1 4869   0.425   4.360  10.644 -0.3094 -0.0054 -0.1947
  305loPI   GL2 4870   0.711   4.522  10.686  0.1119 -0.2399 -0.0306
  305loPI   C1A 4871   0.391   4.369  10.242  0.1409 -0.0238  0.0672
  305loPI   C2A 4872   0.534   4.508   9.940  0.0215  0.0583  0.1182
  305loPI   C3A 4873   0.543   4.622   9.445  0.3720 -0.4381 -0.2820
  305loPI   C4A 4874   0.421   4.610   8.956 -0.0988 -0.0125 -0.1298
  305loPI   C5A 4875   0.580   4.900   8.691 -0.2077  0.0665 -0.0429
  305loPI   C6A 4876   0.919   5.083   8.570 -0.4180  0.3903  0.0345
  305loPI   C1B 4877   0.776   4.763  10.325 -0.1286 -0.0540  0.3406
  305loPI   C2B 4878   0.875   4.902   9.922  0.2058 -0.2175  0.2415
  305loPI   C3B 4879   1.015   4.833   9.482 -0.2500  0.2549  0.2287
  305loPI   C4B 4880   0.998   4.869   9.016 -0.2843  0.1009 -0.2437
  306loPI    C1 4881   4.313   9.677  11.767  0.1969 -0.0585 -0.0855
  306loPI    C2 4882   4.542   9.398  11.592  0.1083 -0.2338  0.0749
  306loPI    C3 4883   4.675   9.593  11.915  0.1526 -0.1198 -0.0114
  306loPI   PO4 4884   4.156   9.770  11.585 -0.2241 -0.2969 -0.2088
  306loPI   GL1 4885   4.218   9.672  11.231 -0.1349  0.2428 -0.1038
  306loPI   GL2 4886   3.955   9.679  11.089 -0.2173  0.2879 -0.2578
  306loPI   C1A 4887   4.498   9.686  10.802 -0.2869 -0.0338 -0.0369
  306loPI   C2A 4888   4.360   9.728  10.384 -0.0883 -0.0457 -0.0073
  306loPI   C3A 4889   4.365   9.669   9.887 -0.1150  0.0539  0.0295
  306loPI   C4A 4890   4.336   9.680   9.442 -0.2597 -0.1139  0.4044
  306loPI   C5A 4891   4.097   9.909   9.183  0.1594 -0.1504  0.0078
  306loPI   C6A 4892   3.967  10.255   9.117 -0.0589 -0.1901 -0.2822
  306loPI   C1B 4893   4.025   9.961  10.774  0.1803 -0.1125  0.2030
  306loPI   C2B 4894   3.926  10.060  10.381  0.2784  0.2496 -0.0070
  306loPI   C3B 4895   3.997   9.907  10.019 -0.0545  0.0115  0.1861
  306loPI   C4B 4896   4.065  10.044   9.662  0.1744 -0.0525 -0.0559
  307loPI    C1 4897  11.088   2.511  12.145  0.1217  0.3131 -0.2008
  307loPI    C2 4898  10.816   2.682  12.383  0.2180 -0.1974  0.2959
  307loPI    C3 4899  11.206   2.742  12.449  0.2430 -0.2103  0.1631
  307loPI   PO4 4900  10.951   2.463  11.889 -0.2504 -0.1241  0.2485
  307loPI   GL1 4901  11.137   2.450  11.495  0.0752 -0.4118 -0.0206
  307loPI   GL2 4902  10.817   2.427  11.294 -0.2476  0.2566  0.2569
  307loPI   C1A 4903  11.241   2.573  11.010 -0.1132  0.1597  0.0020
  307loPI   C2A 4904  11.322   2.618  10.577  0.0684 -0.1457  0.1670
  307loPI   C3A 4905  11.343   2.619  10.133  0.2071  0.1779  0.3069
  307loPI   C4A 4906  11.291   2.674   9.684  0.3203 -0.0155 -0.1935
  307loPI   C5A 4907  11.452   2.647   9.254 -0.2021  0.1094 -0.1154
  307loPI   C6A 4908  11.754   2.663   8.910 -0.1833 -0.0204 -0.0769
  307loPI   C1B 4909  10.831   2.440  10.851  0.1233 -0.1170  0.4081
  307loPI   C2B 4910  10.892   2.381  10.385 -0.0851  0.2415  0.1015
  307loPI   C3B 4911  10.913   2.462   9.956 -0.0880  0.4395 -0.0015
  307loPI   C4B 4912  10.821   2.479   9.455 -0.1774 -0.0991  0.0831
  308loPI    C1 4913   9.678  10.861  11.570 -0.0916  0.0652 -0.2722
  308loPI    C2 4914   9.998  10.886  11.332  0.1047  0.1965  0.0002
  308loPI    C3 4915   9.991  10.620  11.631 -0.1575  0.0035 -0.1733
  308loPI   PO4 4916   9.521  11.117  11.427  0.1634 -0.1298 -0.0056
  308loPI   GL1 4917   9.058  11.172  11.202 -0.0739 -0.1704  0.1650
  308loPI   GL2 4918   9.247  11.328  11.043 -0.1177 -0.0056  0.0909
  308loPI   C1A 4919   9.008  10.919  10.932 -0.1735  0.1578  0.0750
  308loPI   C2A 4920   8.975  10.966  10.479  0.2898  0.1753 -0.2442
  308loPI   C3A 4921   9.023  11.014   9.963 -0.0525  0.2021 -0.0740
  308loPI   C4A 4922   8.991  11.022   9.500 -0.2160  0.4069 -0.0006
  308loPI   C5A 4923   9.015  11.092   9.046 -0.0879 -0.1649  0.0199
  308loPI   C6A 4924   8.721  11.332   8.858 -0.3055 -0.2713  0.1656
  308loPI   C1B 4925   9.268  11.360  10.566 -0.1200  0.0157 -0.1532
  308loPI   C2B 4926   9.133  11.478  10.257  0.1469  0.2485 -0.1814
  308loPI   C3B 4927   9.029  11.559   9.819 -0.0655 -0.3210  0.0636
  308loPI   C4B 4928   8.884  11.541   9.432  0.0304  0.0435 -0.0887
  309loPI    C1 4929  16.551  14.077  11.189 -0.3970  0.0235 -0.1571
  309loPI    C2 4930  16.382  13.970  11.535 -0.2159  0.0925 -0.0458
  309loPI    C3 4931  16.568  14.323  11.504  0.1969 -0.1202 -0.0637
  309loPI   PO4 4932  16.435  13.880  11.011 -0.3065  0.1410  0.1835
  309loPI   GL1 4933  16.291  13.715  10.620  0.2503 -0.1320 -0.0017
  309loPI   GL2 4934  16.574  13.480  10.762  0.0219 -0.1093  0.1026
  309loPI   C1A 4935  16.437  13.664  10.265 -0.2273  0.0082 -0.2432
  309loPI   C2A 4936  16.411  13.601   9.904 -0.0242  0.1438  0.0178
  309loPI   C3A 4937  16.312  13.619   9.461 -0.0792  0.2621  0.0743
  309loPI   C4A 4938  16.421  13.654   9.075 -0.0373 -0.3874 -0.0827
  309loPI   C5A 4939  16.530  13.837   8.712 -0.0498  0.2919  0.0226
  309loPI   C6A 4940  16.862  14.143   8.527 -0.1325  0.1193 -0.1583
  309loPI   C1B 4941  16.389  13.199  10.488  0.1580 -0.2090  0.2939
  309loPI   C2B 4942  16.459  13.173  10.088  0.0170  0.3896  0.0606
  309loPI   C3B 4943  16.484  13.160   9.692 -0.1656 -0.1663  0.4494
  309loPI   C4B 4944  16.365  13.142   9.270  0.0279 -0.0836  0.0937
  310loPI    C1 4945   4.437  16.511  11.606 -0.0833 -0.0121  0.1914
  310loPI    C2 4946   4.751  16.435  11.841  0.1849 -0.1588 -0.2031
  310loPI    C3 4947   4.388  16.481  12.001  0.3490 -0.3171  0.2292
  310loPI   PO4 4948   4.536  16.530  11.358 -0.0017 -0.3119  0.2798
  310loPI   GL1 4949   4.512  16.235  11.075 -0.3703  0.5787  0.2085
  310loPI   GL2 4950   4.763  16.124  10.938 -0.0393 -0.0360  0.0015
  310loPI   C1A 4951   4.353  16.131  10.589  0.4577 -0.0056 -0.2737
  310loPI   C2A 4952   4.292  16.094  10.121  0.1238 -0.1900 -0.0153
  310loPI   C3A 4953   4.351  16.032   9.753  0.3897 -0.2004 -0.1099
  310loPI   C4A 4954   4.405  16.036   9.296  0.1469  0.0554 -0.1817
  310loPI   C5A 4955   4.453  15.685   8.999 -0.0658 -0.3729  0.1337
  310loPI   C6A 4956   4.403  15.577   8.473  0.1079  0.1550 -0.1858
  310loPI   C1B 4957   4.846  16.146  10.430 -0.2382  0.0440 -0.0679
  310loPI   C2B 4958   4.842  16.094   9.969 -0.0000  0.0547  0.1129
  310loPI   C3B 4959   4.868  16.096   9.583  0.1024 -0.0174 -0.0249
  310loPI   C4B 4960   4.811  16.304   9.246  0.0658 -0.1216 -0.0596
  311loPI    C1 4961   6.755   9.576  12.369  0.1305  0.2105  0.1183
  311loPI    C2 4962   6.555   9.923  12.370  0.0727  0.1777  0.0241
  311loPI    C3 4963   6.762   9.810  12.693  0.1241  0.3187  0.0407
  311loPI   PO4 4964   6.686   9.476  12.080  0.0080 -0.1647 -0.0544
  311loPI   GL1 4965   6.567   9.568  11.607 -0.1583 -0.0076 -0.0774
  311loPI   GL2 4966   6.396   9.721  11.539 -0.1787  0.3370  0.1214
  311loPI   C1A 4967   6.803   9.355  11.262 -0.1552  0.0333  0.0605
  311loPI   C2A 4968   6.640   9.366  10.787 -0.1567 -0.0046 -0.1809
  311loPI   C3A 4969   6.581   9.240  10.276  0.1915  0.0488 -0.2880
  311loPI   C4A 4970   6.660   9.305   9.810 -0.2769 -0.0830 -0.0411
  311loPI   C5A 4971   6.613   9.291   9.267  0.2554 -0.1016  0.0255
  311loPI   C6A 4972   6.751   9.271   8.810  0.0794  0.0599 -0.2684
  311loPI   C1B 4973   6.286   9.622  11.082 -0.2885  0.4006  0.2055
  311loPI   C2B 4974   6.276   9.703  10.749  0.1385 -0.1458  0.0342
  311loPI   C3B 4975   6.177   9.731  10.261  0.0814  0.1812  0.1303
  311loPI   C4B 4976   6.174   9.651   9.872  0.1904  0.0018  0.2594
  312loPI    C1 4977  13.443   8.103  11.356 -0.0868  0.0775  0.1175
  312loPI    C2 4978  13.672   8.069  11.682  0.1629  0.1502 -0.0479
  312loPI    C3 4979  13.352   8.309  11.687 -0.1044 -0.2009  0.2888
  312loPI   PO4 4980  13.621   8.226  11.083 -0.1867 -0.2543  0.0237
  312loPI   GL1 4981  13.537   8.373  10.657 -0.1474 -0.2413 -0.3661
  312loPI   GL2 4982  13.211   8.600  10.697  0.2822 -0.1062 -0.3075
  312loPI   C1A 4983  13.296   8.138  10.456  0.0709  0.0575  0.2885
  312loPI   C2A 4984  13.168   8.193  10.036  0.1275 -0.2675 -0.1141
  312loPI   C3A 4985  13.173   8.110   9.594  0.2312 -0.1385 -0.0539
  312loPI   C4A 4986  13.317   7.791   9.313 -0.4051 -0.1486  0.0020
  312loPI   C5A 4987  13.251   7.437   9.071  0.0490  0.1734 -0.0075
  312loPI   C6A 4988  13.272   7.049   8.963 -0.1577  0.1584  0.0625
  312loPI   C1B 4989  13.289   8.637  10.258  0.1527  0.2150 -0.2106
  312loPI   C2B 4990  13.213   8.672   9.954  0.0547  0.0224  0.0645
  312loPI   C3B 4991  13.146   8.615   9.638 -0.0451  0.1287  0.0210
  312loPI   C4B 4992  13.120   8.383   9.167  0.3949  0.1376  0.1905
  313loPI    C1 4993  13.222  15.212  11.621  0.0225 -0.3025 -0.1179
  313loPI    C2 4994  12.899  15.196  11.856 -0.0906 -0.1643 -0.2621
  313loPI    C3 4995  13.186  14.920  11.893  0.0662  0.0581  0.2860
  313loPI   PO4 4996  13.152  15.242  11.336 -0.1228  0.0385 -0.0763
  313loPI   GL1 4997  12.814  15.214  11.087 -0.2028  0.1274 -0.3680
  313loPI   GL2 4998  12.633  15.363  10.997  0.0008  0.0696  0.0548
  313loPI   C1A 4999  12.952  15.155  10.632 -0.3622  0.0684  0.0789
  313loPI   C2A 5000  12.913  15.200  10.170 -0.2617  0.1971  0.3523
  313loPI   C3A 5001  12.920  15.104   9.792  0.1746 -0.2380  0.2461
  313loPI   C4A 5002  12.954  15.107   9.357 -0.1799  0.2832 -0.0225
  313loPI   C5A 5003  12.711  15.083   9.003  0.1906 -0.3028 -0.1104
  313loPI   C6A 5004  12.623  15.112   8.561 -0.1374  0.0742 -0.1197
  313loPI   C1B 5005  12.500  15.369  10.584 -0.0329 -0.4071 -0.0408
  313loPI   C2B 5006  12.446  15.419  10.198  0.1164  0.4088 -0.0029
  313loPI   C3B 5007  12.450  15.433   9.775  0.1760 -0.0010 -0.0579
  313loPI   C4B 5008  12.484  15.407   9.335  0.1531  0.3310 -0.0945
  314loPI    C1 5009   9.080  14.681  12.364 -0.0215  0.2362 -0.0708
  314loPI    C2 5010   9.320  14.982  12.472  0.0986  0.0933  0.0659
  314loPI    C3 5011   9.083  14.809  12.743 -0.0714  0.1544 -0.0424
  314loPI   PO4 5012   9.302  14.540  12.151 -0.0025 -0.0411  0.1452
  314loPI   GL1 5013   9.519  14.555  11.659 -0.2215  0.0769 -0.1003
  314loPI   GL2 5014   9.785  14.384  11.462 -0.0020  0.0063  0.2052
  314loPI   C1A 5015   9.386  14.724  11.223 -0.3330  0.0585 -0.1057
  314loPI   C2A 5016   9.292  14.711  10.857 -0.0707  0.1746 -0.0815
  314loPI   C3A 5017   9.297  14.780  10.401 -0.4062 -0.0118  0.1045
  314loPI   C4A 5018   9.382  14.755   9.945 -0.0453 -0.3662  0.0194
  314loPI   C5A 5019   9.191  14.650   9.522 -0.0556  0.0005 -0.0477
  314loPI   C6A 5020   9.101  14.657   9.154  0.2552  0.2533 -0.1033
  314loPI   C1B 5021   9.756  14.403  10.970  0.1659  0.1073 -0.1455
  314loPI   C2B 5022   9.717  14.487  10.519  0.1652 -0.0577  0.1901
  314loPI   C3B 5023   9.737  14.462  10.079 -0.0084  0.1035  0.2638
  314loPI   C4B 5024   9.791  14.542   9.609 -0.1887  0.0687  0.1199
  315loPI    C1 5025  11.360  13.911  11.638 -0.1597 -0.0802  0.2135
  315loPI    C2 5026  11.690  13.840  11.852 -0.0490 -0.1346  0.0266
  315loPI    C3 5027  11.354  13.638  11.930 -0.0762  0.0114  0.3016
  315loPI   PO4 5028  11.380  13.809  11.411  0.1334  0.1007  0.1016
  315loPI   GL1 5029  11.415  14.091  11.061 -0.1471  0.0080  0.1459
  315loPI   GL2 5030  11.421  13.818  10.864 -0.3680 -0.1328 -0.1688
  315loPI   C1A 5031  11.060  14.135  10.786  0.1551 -0.1445 -0.0319
  315loPI   C2A 5032  10.979  14.153  10.399  0.0450 -0.1456  0.2482
  315loPI   C3A 5033  11.040  14.150  10.003 -0.0640  0.1268  0.0732
  315loPI   C4A 5034  11.084  14.232   9.558  0.3433 -0.0660 -0.1765
  315loPI   C5A 5035  11.038  14.538   9.238  0.1326 -0.2166  0.4268
  315loPI   C6A 5036  10.718  14.623   8.892 -0.0093  0.0287 -0.0286
  315loPI   C1B 5037  11.409  13.824  10.457  0.1276 -0.0476  0.1074
  315loPI   C2B 5038  11.438  13.860  10.024  0.0235 -0.1855  0.0973
  315loPI   C3B 5039  11.496  13.960   9.661 -0.0094 -0.3734 -0.3062
  315loPI   C4B 5040  11.329  13.853   9.291 -0.0243  0.1017 -0.1930
  316loPI    C1 5041   2.773   9.181  11.816 -0.1854 -0.1822  0.2126
  316loPI    C2 5042   2.428   9.335  11.949 -0.1554 -0.0790  0.1726
  316loPI    C3 5043   2.767   9.398  12.152 -0.1665 -0.2171  0.2354
  316loPI   PO4 5044   2.721   9.163  11.519  0.2357  0.0489 -0.2232
  316loPI   GL1 5045   2.847   9.207  11.140  0.0724  0.0150 -0.1687
  316loPI   GL2 5046   3.015   9.575  11.115 -0.0040  0.4083 -0.2734
  316loPI   C1A 5047   2.924   9.372  10.702  0.1854  0.1082  0.0418
  316loPI   C2A 5048   2.962   9.455  10.309 -0.2793 -0.1001 -0.1253
  316loPI   C3A 5049   3.023   9.516   9.850 -0.0661  0.0147  0.3756
  316loPI   C4A 5050   3.048   9.496   9.350  0.0348  0.0320  0.4559
  316loPI   C5A 5051   3.204   9.460   9.004 -0.0636 -0.0987  0.2207
  316loPI   C6A 5052   3.471   9.359   8.787  0.2777 -0.0929  0.0991
  316loPI   C1B 5053   3.052   9.938  10.894  0.2327 -0.0685 -0.2408
  316loPI   C2B 5054   3.096   9.988  10.537 -0.1422 -0.3488 -0.0023
  316loPI   C3B 5055   3.061  10.015  10.045 -0.1013 -0.0838 -0.2856
  316loPI   C4B 5056   3.122  10.011   9.659  0.1737 -0.0431  0.0757
  317loPI    C1 5057  14.818   2.106  11.632 -0.3226  0.2194 -0.0403
  317loPI    C2 5058  15.056   2.351  11.840  0.0910 -0.1512 -0.0624
  317loPI    C3 5059  14.912   2.019  12.010 -0.0129 -0.1793 -0.2028
  317loPI   PO4 5060  14.967   2.103  11.362  0.1688 -0.0814  0.0043
  317loPI   GL1 5061  14.996   1.923  11.064  0.3241  0.0150  0.2016
  317loPI   GL2 5062  15.338   1.826  10.854 -0.2206 -0.2784 -0.0147
  317loPI   C1A 5063  14.884   1.975  10.639 -0.0871  0.2155  0.0509
  317loPI   C2A 5064  14.897   1.917  10.160  0.2234  0.2487  0.1952
  317loPI   C3A 5065  14.893   1.983   9.738  0.0387 -0.1064  0.0164
  317loPI   C4A 5066  14.816   1.959   9.276  0.0261 -0.0941 -0.2395
  317loPI   C5A 5067  14.409   2.215   9.038  0.0901 -0.1807  0.0872
  317loPI   C6A 5068  14.020   2.072   8.897 -0.0314 -0.3388 -0.2172
  317loPI   C1B 5069  15.330   1.723  10.422  0.2454 -0.1212 -0.2837
  317loPI   C2B 5070  15.375   1.823  10.061  0.0177 -0.0872 -0.1706
  317loPI   C3B 5071  15.361   1.649   9.652  0.1207  0.0723  0.0368
  317loPI   C4B 5072  15.232   1.666   9.263 -0.2188  0.3085  0.1548
  318loPI    C1 5073   9.994   3.837  11.851 -0.1932  0.1252 -0.2092
  318loPI    C2 5074   9.975   4.235  11.814  0.0509  0.1568 -0.0192
  318loPI    C3 5075   9.956   4.066  12.176 -0.2960 -0.0218 -0.1168
  318loPI   PO4 5076  10.183   3.727  11.677 -0.0890 -0.0788 -0.2359
  318loPI   GL1 5077  10.237   3.654  11.263 -0.0400  0.2421 -0.0293
  318loPI   GL2 5078  10.603   3.778  11.373  0.0940 -0.0056 -0.0739
  318loPI   C1A 5079  10.043   3.481  10.890 -0.0444 -0.0135 -0.1389
  318loPI   C2A 5080   9.980   3.411  10.441  0.1018 -0.2391 -0.1733
  318loPI   C3A 5081   9.950   3.393  10.087  0.1418  0.0059  0.0919
  318loPI   C4A 5082   9.871   3.470   9.674  0.3324  0.1588  0.2978
  318loPI   C5A 5083   9.938   3.541   9.268 -0.1168 -0.0789  0.1871
  318loPI   C6A 5084  10.190   3.471   8.984 -0.2129 -0.3417 -0.1381
  318loPI   C1B 5085  10.581   3.689  10.881 -0.0646 -0.2645 -0.0783
  318loPI   C2B 5086  10.552   3.634  10.528 -0.0183  0.0715 -0.0343
  318loPI   C3B 5087  10.412   3.669  10.165 -0.0650 -0.1344  0.0679
  318loPI   C4B 5088  10.435   3.618   9.649  0.1581 -0.7624 -0.0742
  319loPI    C1 5089   0.936   3.218  11.533 -0.0129  0.3565 -0.2307
  319loPI    C2 5090   0.540   3.266  11.567 -0.0039  0.3168 -0.0595
  319loPI    C3 5091   0.776   3.322  11.885  0.0687 -0.2351 -0.0073
  319loPI   PO4 5092   0.965   3.047  11.265  0.2768 -0.3519  0.0827
  319loPI   GL1 5093   0.868   2.950  10.850  0.1325  0.0213 -0.1187
  319loPI   GL2 5094   1.048   3.223  10.765  0.1610 -0.2549  0.0934
  319loPI   C1A 5095   0.805   2.693  10.493  0.1905  0.1972  0.2236
  319loPI   C2A 5096   0.787   2.675  10.112  0.0402 -0.2895  0.0409
  319loPI   C3A 5097   0.890   2.679   9.693 -0.0427  0.0150  0.1415
  319loPI   C4A 5098   0.879   2.633   9.259 -0.1852 -0.0926  0.1942
  319loPI   C5A 5099   0.927   2.539   8.886  0.2983  0.1731  0.0786
  319loPI   C6A 5100   0.802   2.226   8.649  0.0232 -0.0322  0.1551
  319loPI   C1B 5101   0.892   3.168  10.365  0.1646 -0.1454 -0.3429
  319loPI   C2B 5102   0.820   3.149   9.946 -0.1682 -0.5324  0.2980
  319loPI   C3B 5103   0.828   3.181   9.432 -0.0411 -0.2936 -0.0272
  319loPI   C4B 5104   0.985   3.153   8.997 -0.0009  0.1483  0.1375
  320loPI    C1 5105   9.566   5.032  11.953  0.0273  0.0325 -0.0560
  320loPI    C2 5106   9.775   5.362  12.042 -0.1282  0.0948  0.0831
  320loPI    C3 5107   9.806   5.037  12.273  0.1493 -0.0459 -0.1450
  320loPI   PO4 5108   9.522   5.111  11.713  0.1760  0.2361 -0.2334
  320loPI   GL1 5109   9.570   5.232  11.276 -0.0591 -0.0859 -0.1176
  320loPI   GL2 5110   9.244   5.212  11.208 -0.0101  0.1258  0.1788
  320loPI   C1A 5111   9.646   5.140  10.791  0.1374  0.0280 -0.2220
  320loPI   C2A 5112   9.580   5.214  10.411 -0.0810  0.4087 -0.1204
  320loPI   C3A 5113   9.535   5.205   9.947 -0.1837 -0.2739 -0.1420
  320loPI   C4A 5114   9.552   5.171   9.486  0.1464 -0.0167  0.0998
  320loPI   C5A 5115   9.586   4.837   9.241 -0.2329  0.3128  0.1357
  320loPI   C6A 5116   9.505   4.582   8.966  0.0424 -0.2167 -0.3694
  320loPI   C1B 5117   9.460   4.766  11.027 -0.2249  0.0576 -0.1618
  320loPI   C2B 5118   9.636   4.666  10.594  0.1776 -0.1330  0.0184
  320loPI   C3B 5119   9.563   4.657  10.078  0.1581 -0.4368  0.0471
  320loPI   C4B 5120   9.656   4.669   9.669 -0.2722 -0.1592  0.2127
  321loPI    C1 5121  10.664   0.846  11.954 -0.3490  0.0183  0.1936
  321loPI    C2 5122  10.894   1.085  12.179 -0.1378  0.1093 -0.1129
  321loPI    C3 5123  10.609   0.862  12.350  0.2838 -0.1300  0.2983
  321loPI   PO4 5124  10.868   0.817  11.696  0.1054 -0.1149 -0.3203
  321loPI   GL1 5125  10.866   0.938  11.390  0.1780 -0.2043 -0.2225
  321loPI   GL2 5126  10.895   1.292  11.315  0.1057 -0.1186 -0.2795
  321loPI   C1A 5127  10.807   0.872  10.933  0.1238 -0.1176  0.3440
  321loPI   C2A 5128  10.857   0.819  10.532  0.2434  0.0423 -0.1827
  321loPI   C3A 5129  10.734   0.839  10.070 -0.0733 -0.0372 -0.0969
  321loPI   C4A 5130  10.722   0.889   9.638  0.0417  0.3633 -0.2961
  321loPI   C5A 5131  10.786   0.900   9.333  0.1707 -0.2350  0.1999
  321loPI   C6A 5132  10.812   1.356   9.120 -0.2253  0.1170  0.0157
  321loPI   C1B 5133  10.844   1.378  10.899  0.2032  0.1547  0.2988
  321loPI   C2B 5134  10.871   1.313  10.469  0.0760  0.2848 -0.3409
  321loPI   C3B 5135  10.861   1.442  10.017 -0.0503  0.0818 -0.0612
  321loPI   C4B 5136  10.651   1.394   9.569 -0.2384  0.1791  0.1059
  322loPI    C1 5137   4.076   6.189  11.570 -0.0788  0.0803  0.0675
  322loPI    C2 5138   3.755   6.273  11.793 -0.2015 -0.2795  0.0321
  322loPI    C3 5139   4.097   6.163  11.969 -0.1318 -0.0193  0.0640
  322loPI   PO4 5140   3.947   6.053  11.421  0.1160  0.0275 -0.1846
  322loPI   GL1 5141   4.251   5.929  11.166 -0.0121  0.2635  0.0572
  322loPI   GL2 5142   4.422   6.249  11.145 -0.1888 -0.0862  0.2296
  322loPI   C1A 5143   4.145   6.019  10.760 -0.0010 -0.1298 -0.0565
  322loPI   C2A 5144   4.103   5.947  10.354  0.1158  0.1137  0.0692
  322loPI   C3A 5145   4.164   6.020   9.918 -0.0828 -0.0548  0.0722
  322loPI   C4A 5146   4.241   6.023   9.510 -0.2119 -0.0130  0.1133
  322loPI   C5A 5147   4.466   6.118   9.200  0.1918  0.0696  0.3209
  322loPI   C6A 5148   4.520   6.413   8.856 -0.0209 -0.2056  0.1950
  322loPI   C1B 5149   4.598   6.231  10.753 -0.0379  0.1324  0.1805
  322loPI   C2B 5150   4.600   6.214  10.386 -0.0431  0.1549 -0.1133
  322loPI   C3B 5151   4.673   6.268   9.972 -0.0118  0.0618 -0.4276
  322loPI   C4B 5152   4.679   6.349   9.573  0.0736 -0.4355 -0.0028
  323loPI    C1 5153   8.906   9.559  11.833  0.1256  0.0057 -0.1779
  323loPI    C2 5154   8.653   9.827  11.989 -0.0770 -0.1471 -0.2397
  323loPI    C3 5155   9.046   9.860  12.057 -0.1509 -0.1509  0.2164
  323loPI   PO4 5156   8.817   9.506  11.637  0.0294  0.3696 -0.1096
  323loPI   GL1 5157   8.823   9.483  11.288 -0.1522 -0.3037  0.2213
  323loPI   GL2 5158   8.546   9.376  11.132 -0.0668 -0.0583  0.2176
  323loPI   C1A 5159   8.970   9.498  10.848  0.1764 -0.2284 -0.1557
  323loPI   C2A 5160   8.831   9.565  10.430  0.0831  0.4719  0.0124
  323loPI   C3A 5161   8.874   9.453   9.999 -0.0292 -0.2287 -0.0187
  323loPI   C4A 5162   8.840   9.422   9.593 -0.1822  0.0584 -0.0017
  323loPI   C5A 5163   8.746   9.549   9.104 -0.0995  0.0708  0.0688
  323loPI   C6A 5164   8.977   9.801   8.807  0.1246 -0.2173  0.1823
  323loPI   C1B 5165   8.479   9.331  10.715 -0.2436  0.2742 -0.1942
  323loPI   C2B 5166   8.451   9.282  10.233  0.1168  0.0824 -0.3989
  323loPI   C3B 5167   8.385   9.163   9.794  0.0469  0.2258 -0.0451
  323loPI   C4B 5168   8.399   9.233   9.326  0.0256 -0.0995 -0.0326
  324loPI    C1 5169  11.282  12.166  11.729  0.3475 -0.0944 -0.2924
  324loPI    C2 5170  11.605  12.381  11.827  0.0544  0.1834  0.0961
  324loPI    C3 5171  11.318  12.317  12.098 -0.1111 -0.2609 -0.1732
  324loPI   PO4 5172  11.255  12.251  11.489  0.1204  0.2333  0.2334
  324loPI   GL1 5173  11.293  12.080  11.085 -0.1327 -0.1089 -0.0764
  324loPI   GL2 5174  11.542  12.180  10.891 -0.0784  0.0871  0.0839
  324loPI   C1A 5175  11.064  12.064  10.697 -0.0887  0.1260 -0.2165
  324loPI   C2A 5176  10.997  12.116  10.250 -0.1116 -0.0260  0.1727
  324loPI   C3A 5177  10.950  12.175   9.846  0.1882  0.0560 -0.1810
  324loPI   C4A 5178  10.980  12.148   9.346  0.2198 -0.2567 -0.2093
  324loPI   C5A 5179  11.132  12.055   8.987  0.1282  0.2895 -0.1514
  324loPI   C6A 5180  11.417  12.281   8.706  0.1803  0.1349  0.0375
  324loPI   C1B 5181  11.489  12.404  10.496 -0.1514 -0.0735  0.0217
  324loPI   C2B 5182  11.501  12.348  10.075 -0.0889  0.1154  0.2753
  324loPI   C3B 5183  11.434  12.299   9.713 -0.0159  0.0125  0.2813
  324loPI   C4B 5184  11.461  12.335   9.227  0.3569 -0.4186 -0.0291
  325loPI    C1 5185  16.716  11.168  11.295 -0.0679 -0.0661 -0.0731
  325loPI    C2 5186  16.373  11.241  11.487 -0.0607 -0.0900 -0.0508
  325loPI    C3 5187  16.702  11.450  11.578 -0.0601 -0.0928 -0.0462
  325loPI   PO4 5188  16.674  11.231  11.038 -0.0098  0.2669  0.1583
  325loPI   GL1 5189  16.454  11.253  10.717 -0.1271  0.1044  0.0369
  325loPI   GL2 5190  16.593  11.057  10.508  0.0533  0.1126 -0.0070
  325loPI   C1A 5191  16.322  11.421  10.390 -0.0016 -0.0284  0.1707
  325loPI   C2A 5192  16.178  11.428  10.048  0.1699  0.1884  0.1551
  325loPI   C3A 5193  16.211  11.566   9.759 -0.1029  0.1828 -0.2039
  325loPI   C4A 5194  16.334  11.610   9.314 -0.2432  0.2431 -0.1610
  325loPI   C5A 5195  16.388  11.719   9.041  0.3763 -0.0569  0.1061
  325loPI   C6A 5196  16.295  11.935   8.597 -0.2591 -0.1216  0.3221
  325loPI   C1B 5197  16.625  11.230  10.050 -0.4121 -0.1256  0.0601
  325loPI   C2B 5198  16.635  11.334   9.622  0.4094  0.0703  0.2599
  325loPI   C3B 5199  16.828  11.515   9.233 -0.0692 -0.0400  0.1301
  325loPI   C4B 5200  16.832  11.604   8.804 -0.0182 -0.3509  0.0241
  326loPI    C1 5201   6.108   5.415  11.834  0.2207  0.0549  0.0604
  326loPI    C2 5202   5.959   5.076  11.985 -0.0435  0.0941 -0.1051
  326loPI    C3 5203   5.858   5.429  12.146  0.2075  0.0990  0.0481
  326loPI   PO4 5204   6.315   5.387  11.735  0.0568  0.1474  0.0228
  326loPI   GL1 5205   6.413   5.119  11.310  0.1628  0.1194 -0.2171
  326loPI   GL2 5206   6.079   5.050  11.404 -0.1032  0.1260 -0.1170
  326loPI   C1A 5207   6.433   5.183  10.862  0.3101  0.1107  0.1032
  326loPI   C2A 5208   6.354   5.136  10.379 -0.3215  0.2499  0.1450
  326loPI   C3A 5209   6.383   5.128   9.926  0.1475  0.0636 -0.3460
  326loPI   C4A 5210   6.423   5.225   9.503  0.2683  0.1386 -0.0374
  326loPI   C5A 5211   6.377   5.485   9.211 -0.0343 -0.1588  0.0508
  326loPI   C6A 5212   6.671   5.775   9.141  0.2729 -0.2845  0.3295
  326loPI   C1B 5213   5.953   5.035  11.033 -0.1477  0.1662  0.3411
  326loPI   C2B 5214   5.871   4.946  10.582 -0.0687 -0.4652 -0.4004
  326loPI   C3B 5215   5.938   4.916  10.162 -0.2566 -0.1763 -0.0356
  326loPI   C4B 5216   5.976   4.926   9.676  0.0909 -0.0087 -0.2476
  327loPI    C1 5217  10.270  13.322  12.042 -0.0451 -0.0930 -0.0471
  327loPI    C2 5218  10.420  13.153  12.371 -0.1403  0.0573  0.0753
  327loPI    C3 5219  10.025  13.159  12.312 -0.1101 -0.2160 -0.1790
  327loPI   PO4 5220  10.353  13.168  11.845 -0.1727  0.1577  0.1201
  327loPI   GL1 5221  10.244  13.114  11.424  0.2663  0.2622  0.4264
  327loPI   GL2 5222  10.465  12.956  11.320 -0.0072 -0.0703 -0.2129
  327loPI   C1A 5223  10.105  13.130  10.960 -0.0781  0.0447  0.2928
  327loPI   C2A 5224  10.117  13.173  10.544  0.0948  0.1234 -0.2079
  327loPI   C3A 5225  10.195  13.198  10.030 -0.1480 -0.1751 -0.2161
  327loPI   C4A 5226  10.190  13.132   9.604 -0.1819 -0.1374 -0.2014
  327loPI   C5A 5227   9.941  13.077   9.242  0.0499  0.0069 -0.0724
  327loPI   C6A 5228   9.531  13.197   9.038 -0.3059 -0.0841  0.0052
  327loPI   C1B 5229  10.608  12.798  10.985  0.1188 -0.1820  0.2453
  327loPI   C2B 5230  10.592  12.921  10.564  0.0117 -0.1116  0.0253
  327loPI   C3B 5231  10.618  12.877  10.127  0.2390  0.1352  0.0218
  327loPI   C4B 5232  10.598  12.646   9.716  0.3831  0.0290  0.0866
  328loPI    C1 5233   2.072   5.530  11.412 -0.1594  0.0061 -0.2070
  328loPI    C2 5234   2.470   5.546  11.375 -0.1522  0.3254 -0.0279
  328loPI    C3 5235   2.305   5.330  11.668 -0.1221  0.0159 -0.2334
  328loPI   PO4 5236   2.009   5.576  11.055 -0.0856 -0.0592  0.0063
  328loPI   GL1 5237   1.970   5.735  10.719 -0.2065  0.1607 -0.0815
  328loPI   GL2 5238   2.181   5.994  10.712 -0.3874  0.0820 -0.0405
  328loPI   C1A 5239   2.238   5.688  10.282  0.6150 -0.0400 -0.0217
  328loPI   C2A 5240   2.409   5.629   9.888  0.0165  0.3491 -0.0077
  328loPI   C3A 5241   2.399   5.531   9.451 -0.1376 -0.0558 -0.2157
  328loPI   C4A 5242   2.527   5.694   9.030 -0.3776 -0.1034 -0.0587
  328loPI   C5A 5243   3.005   5.842   8.773 -0.2455  0.1337  0.0854
  328loPI   C6A 5244   3.314   5.767   8.457 -0.0104  0.0664  0.3528
  328loPI   C1B 5245   2.320   6.169  10.337  0.1884 -0.0327 -0.2954
  328loPI   C2B 5246   2.409   6.234   9.889  0.1120  0.0201 -0.2755
  328loPI   C3B 5247   2.383   6.143   9.482 -0.0779 -0.2144 -0.2154
  328loPI   C4B 5248   2.410   6.211   9.096 -0.1418 -0.1264 -0.0422
  329loPI    C1 5249  15.210   1.606  11.374 -0.2424  0.0250 -0.0930
  329loPI    C2 5250  14.973   1.595  11.696 -0.2182 -0.0862 -0.0788
  329loPI    C3 5251  15.270   1.862  11.676 -0.1616 -0.1401  0.0322
  329loPI   PO4 5252  15.058   1.472  11.187 -0.2440  0.1920 -0.1919
  329loPI   GL1 5253  15.040   1.464  10.810  0.0215  0.4562 -0.0118
  329loPI   GL2 5254  15.339   1.318  10.764  0.0555  0.5112  0.1681
  329loPI   C1A 5255  14.868   1.439  10.474 -0.0398 -0.1871  0.0615
  329loPI   C2A 5256  14.907   1.461  10.048  0.2977  0.2669  0.2640
  329loPI   C3A 5257  14.854   1.506   9.625  0.1851 -0.2429  0.0166
  329loPI   C4A 5258  14.757   1.450   9.230  0.0998 -0.3107 -0.0656
  329loPI   C5A 5259  14.408   1.209   8.967 -0.0297  0.0767 -0.1800
  329loPI   C6A 5260  14.153   1.011   8.620 -0.0466  0.0817  0.1643
  329loPI   C1B 5261  15.288   1.240  10.350  0.1834  0.2663 -0.0382
  329loPI   C2B 5262  15.324   1.179   9.827 -0.3816  0.2237  0.1882
  329loPI   C3B 5263  15.177   1.167   9.423 -0.2185  0.0596 -0.2429
  329loPI   C4B 5264  15.306   0.909   9.157 -0.0666  0.3302 -0.1680
  330loPI    C1 5265  15.616   6.028  11.034  0.1468  0.1432 -0.1660
  330loPI    C2 5266  15.350   5.794  11.219 -0.1339  0.3594 -0.2893
  330loPI    C3 5267  15.618   6.000  11.433 -0.1486  0.2408 -0.1553
  330loPI   PO4 5268  15.642   5.838  10.836  0.1501 -0.1138  0.1524
  330loPI   GL1 5269  15.633   5.470  10.495  0.1460  0.0723 -0.0547
  330loPI   GL2 5270  15.701   5.764  10.344  0.2275  0.1186 -0.0987
  330loPI   C1A 5271  15.356   5.444  10.076 -0.1987 -0.1533 -0.2586
  330loPI   C2A 5272  15.396   5.455   9.618 -0.2799  0.2923 -0.0829
  330loPI   C3A 5273  15.199   5.628   9.231  0.2361 -0.0143 -0.0760
  330loPI   C4A 5274  15.105   5.948   8.831  0.1560 -0.3425  0.1870
  330loPI   C5A 5275  14.998   6.420   8.785 -0.0161 -0.2863 -0.0214
  330loPI   C6A 5276  15.087   6.821   8.534  0.1102 -0.2171  0.1324
  330loPI   C1B 5277  15.893   5.739   9.962  0.0807 -0.2595  0.0350
  330loPI   C2B 5278  16.101   5.803   9.550 -0.1913  0.0590  0.1814
  330loPI   C3B 5279  16.281   5.661   9.112 -0.4126  0.1995 -0.0643
  330loPI   C4B 5280  16.409   6.078   8.927 -0.4817  0.0619 -0.0809
  331loPI    C1 5281   1.046  16.489  11.797 -0.0497 -0.1398 -0.0850
  331loPI    C2 5282   1.419  16.603  11.886 -0.0091 -0.2294 -0.1395
  331loPI    C3 5283   1.108  16.793  12.050  0.0617 -0.2255 -0.0081
  331loPI   PO4 5284   1.031  16.441  11.482 -0.2689  0.0030 -0.0876
  331loPI   GL1 5285   0.812  16.434  11.110 -0.0719 -0.1463 -0.3041
  331loPI   GL2 5286   1.014  16.191  10.974 -0.0659  0.0106 -0.3161
  331loPI   C1A 5287   0.703  16.445  10.677  0.3223  0.0824 -0.0906
  331loPI   C2A 5288   0.683  16.381  10.292  0.0602  0.0676  0.0921
  331loPI   C3A 5289   0.712  16.434   9.866  0.0888  0.1102  0.2078
  331loPI   C4A 5290   0.883  16.352   9.494  0.1781 -0.1406 -0.1143
  331loPI   C5A 5291   0.720  16.161   9.098 -0.3023  0.3605 -0.0779
  331loPI   C6A 5292   0.940  15.949   8.775 -0.1732  0.1850 -0.3062
  331loPI   C1B 5293   1.175  16.116  10.532  0.2083  0.1826  0.0596
  331loPI   C2B 5294   1.152  16.041  10.099  0.0073  0.1570  0.2394
  331loPI   C3B 5295   1.259  16.078   9.698 -0.0785  0.1372  0.1556
  331loPI   C4B 5296   1.232  16.090   9.328 -0.0895  0.2610  0.1304
  332loPI    C1 5297   2.066   6.649  11.316  0.0137  0.0202 -0.0685
  332loPI    C2 5298   1.976   6.400  11.616 -0.2625  0.1957 -0.0022
  332loPI    C3 5299   2.355   6.438  11.495 -0.1879 -0.0905  0.1325
  332loPI   PO4 5300   1.886   6.692  11.216 -0.1794 -0.0694  0.1276
  332loPI   GL1 5301   1.703   7.011  10.928 -0.0409 -0.0880  0.0732
  332loPI   GL2 5302   1.984   7.100  10.803  0.1473 -0.3914 -0.0844
  332loPI   C1A 5303   1.636   7.355  10.599 -0.0798  0.4899 -0.1719
  332loPI   C2A 5304   1.507   7.624  10.245  0.1922  0.0313  0.0610
  332loPI   C3A 5305   1.538   7.610   9.881 -0.1562 -0.1523  0.0972
  332loPI   C4A 5306   1.598   7.648   9.498  0.0791 -0.1067  0.1851
  332loPI   C5A 5307   1.655   7.796   9.179 -0.3320 -0.0329 -0.0978
  332loPI   C6A 5308   1.992   7.756   8.845  0.0823 -0.0685  0.0518
  332loPI   C1B 5309   2.046   7.000  10.353  0.1321  0.0089  0.1361
  332loPI   C2B 5310   2.091   7.000   9.896 -0.1389 -0.0085 -0.0190
  332loPI   C3B 5311   1.938   6.997   9.482  0.0205 -0.0914  0.2596
  332loPI   C4B 5312   1.925   6.809   9.074 -0.2347  0.1141  0.0411
  333loPI    C1 5313   9.684   6.175  11.854 -0.0159 -0.1637 -0.0007
  333loPI    C2 5314   9.697   5.830  12.056 -0.0406 -0.0256  0.2415
  333loPI    C3 5315   9.362   6.048  12.054 -0.0441 -0.0308  0.0396
  333loPI   PO4 5316   9.808   6.071  11.626  0.1294  0.3312  0.1270
  333loPI   GL1 5317   9.933   5.812  11.350  0.3335 -0.2991  0.2371
  333loPI   GL2 5318   9.969   5.601  11.234  0.0601 -0.0083 -0.2138
  333loPI   C1A 5319   9.523   5.781  11.023  0.1570  0.0406 -0.0001
  333loPI   C2A 5320   9.512   5.736  10.607 -0.2273  0.2007 -0.0095
  333loPI   C3A 5321   9.671   5.650  10.227 -0.0249 -0.0983 -0.0647
  333loPI   C4A 5322   9.535   5.713   9.807  0.0880 -0.0451 -0.1207
  333loPI   C5A 5323   9.337   6.016   9.520  0.2193 -0.4731  0.2598
  333loPI   C6A 5324   9.482   6.281   9.186 -0.3812  0.2508  0.4226
  333loPI   C1B 5325  10.000   5.583  10.834 -0.1356 -0.0996  0.1172
  333loPI   C2B 5326  10.043   5.432  10.502  0.0300  0.0871  0.1638
  333loPI   C3B 5327  10.054   5.481  10.038 -0.0612  0.0200 -0.0495
  333loPI   C4B 5328   9.991   5.378   9.664  0.1549 -0.1405  0.2138
  334loPI    C1 5329  14.640  12.505  11.492  0.1868 -0.0958 -0.0151
  334loPI    C2 5330  14.953  12.661  11.686  0.1493 -0.1756  0.1103
  334loPI    C3 5331  14.616  12.575  11.885 -0.0822  0.2452 -0.0874
  334loPI   PO4 5332  14.673  12.642  11.215  0.1686  0.1444  0.0314
  334loPI   GL1 5333  14.681  12.716  10.774  0.1355 -0.3236  0.4009
  334loPI   GL2 5334  14.395  12.875  10.775  0.0635  0.0179 -0.2805
  334loPI   C1A 5335  14.626  12.611  10.386  0.1241 -0.1565 -0.4885
  334loPI   C2A 5336  14.388  12.764  10.001 -0.1462 -0.1266  0.3212
  334loPI   C3A 5337  14.231  12.803   9.664  0.0102 -0.1139  0.3633
  334loPI   C4A 5338  14.088  12.704   9.236 -0.1399 -0.1559 -0.1726
  334loPI   C5A 5339  14.186  12.305   8.809 -0.1316  0.2330  0.2721
  334loPI   C6A 5340  14.289  11.912   8.619  0.0119 -0.0695  0.1901
  334loPI   C1B 5341  14.119  12.796  10.564 -0.0080 -0.0362 -0.0595
  334loPI   C2B 5342  13.936  12.723  10.242 -0.0617 -0.0507  0.1288
  334loPI   C3B 5343  13.741  12.757   9.905 -0.2215 -0.0377 -0.0372
  334loPI   C4B 5344  13.655  12.617   9.479  0.1093 -0.3582  0.1774
  335loPI    C1 5345   6.151   6.757  11.719 -0.1147  0.1376 -0.1712
  335loPI    C2 5346   5.855   6.917  11.936 -0.1297 -0.0009 -0.0879
  335loPI    C3 5347   5.965   6.537  11.997  0.1518  0.0876 -0.0298
  335loPI   PO4 5348   6.131   6.737  11.519  0.2808  0.1058  0.0559
  335loPI   GL1 5349   6.336   7.057  11.188 -0.0426  0.1602 -0.1569
  335loPI   GL2 5350   6.521   6.793  11.162 -0.1991 -0.1221 -0.0178
  335loPI   C1A 5351   6.523   7.297  10.943  0.0325 -0.0429  0.0217
  335loPI   C2A 5352   6.540   7.206  10.600 -0.3565 -0.0384  0.2792
  335loPI   C3A 5353   6.466   7.211  10.200 -0.0719  0.3592  0.0542
  335loPI   C4A 5354   6.523   7.250   9.738 -0.0558  0.0322 -0.1241
  335loPI   C5A 5355   6.436   7.128   9.240  0.1326  0.2449  0.0040
  335loPI   C6A 5356   6.325   6.984   8.926 -0.0482 -0.0165 -0.0608
  335loPI   C1B 5357   6.430   6.729  10.730 -0.2354 -0.0238  0.2587
  335loPI   C2B 5358   6.480   6.740  10.228 -0.0887  0.3092 -0.2537
  335loPI   C3B 5359   6.518   6.739   9.768 -0.2126 -0.1759  0.0685
  335loPI   C4B 5360   6.518   6.664   9.352 -0.3437 -0.1479 -0.1676
  336loPI    C1 5361  10.205   0.961  12.032  0.0205  0.2501  0.0161
  336loPI    C2 5362  10.094   1.028  12.411  0.0241  0.0061  0.0614
  336loPI    C3 5363  10.129   0.653  12.275 -0.1020  0.0927 -0.2183
  336loPI   PO4 5364  10.246   1.140  11.924 -0.1238  0.0664  0.1567
  336loPI   GL1 5365  10.399   1.165  11.461 -0.2940 -0.1422 -0.1117
  336loPI   GL2 5366  10.371   0.852  11.550  0.1852 -0.0357  0.4883
  336loPI   C1A 5367  10.417   1.119  11.048  0.1543 -0.1129  0.0503
  336loPI   C2A 5368  10.326   1.107  10.515 -0.2860  0.2819  0.0401
  336loPI   C3A 5369  10.272   1.110  10.040  0.0835  0.0210 -0.1552
  336loPI   C4A 5370  10.257   1.032   9.625 -0.1277  0.2885  0.0239
  336loPI   C5A 5371   9.909   0.926   9.307 -0.2330 -0.0369  0.1927
  336loPI   C6A 5372   9.478   0.971   9.116 -0.0576  0.0680  0.0457
  336loPI   C1B 5373  10.035   0.884  11.301  0.1613  0.1671  0.1527
  336loPI   C2B 5374   9.956   0.783  10.702  0.2504 -0.0285 -0.1692
  336loPI   C3B 5375   9.885   0.813  10.297  0.1226  0.0586  0.0225
  336loPI   C4B 5376   9.865   0.757   9.887 -0.0255  0.0899 -0.2759
  337loPI    C1 5377   2.553   2.213  11.467  0.2464 -0.0869  0.2033
  337loPI    C2 5378   2.266   2.264  11.740 -0.1643 -0.2648 -0.1824
  337loPI    C3 5379   2.583   2.034  11.823 -0.2031 -0.1884  0.1954
  337loPI   PO4 5380   2.401   2.165  11.141 -0.2677  0.2098 -0.1268
  337loPI   GL1 5381   2.368   1.798  10.798 -0.1728 -0.0151 -0.1531
  337loPI   GL2 5382   2.666   1.701  10.804  0.1318 -0.1134  0.0494
  337loPI   C1A 5383   2.199   1.858  10.535  0.0406  0.0946 -0.1405
  337loPI   C2A 5384   2.171   1.863  10.085  0.0448 -0.0429 -0.1343
  337loPI   C3A 5385   2.265   1.886   9.624  0.0207 -0.3902  0.0625
  337loPI   C4A 5386   2.166   1.859   9.258 -0.2809  0.2979 -0.2007
  337loPI   C5A 5387   2.231   1.627   8.803 -0.0227  0.0047  0.0923
  337loPI   C6A 5388   2.432   1.418   8.417  0.2066  0.1800 -0.0367
  337loPI   C1B 5389   2.627   1.603  10.305 -0.4623 -0.0195  0.0146
  337loPI   C2B 5390   2.636   1.531   9.845 -0.2526  0.2963 -0.3648
  337loPI   C3B 5391   2.660   1.540   9.505 -0.0296  0.0789  0.1462
  337loPI   C4B 5392   2.600   1.591   9.099 -0.1128  0.1455  0.2486
  338loPI    C1 5393   4.513  17.108  11.566  0.0268  0.2539 -0.0025
  338loPI    C2 5394   4.316  16.949  11.875 -0.0184 -0.1061 -0.2109
  338loPI    C3 5395   4.715  16.967  11.881 -0.0069 -0.3224 -0.2254
  338loPI   PO4 5396   4.439  17.081  11.406  0.1436  0.0885 -0.0147
  338loPI   GL1 5397   4.402  17.293  11.010  0.0580  0.1119  0.0642
  338loPI   GL2 5398   4.676  17.516  11.023  0.1318 -0.0786  0.0494
  338loPI   C1A 5399   4.480  17.142  10.549 -0.0648  0.0375  0.0448
  338loPI   C2A 5400   4.563  17.138  10.090 -0.0803  0.0731 -0.2439
  338loPI   C3A 5401   4.566  17.137   9.588  0.0318  0.2404 -0.1199
  338loPI   C4A 5402   4.549  16.921   9.143 -0.1206  0.0284  0.1237
  338loPI   C5A 5403   4.561  16.728   8.714  0.0382  0.2740 -0.3437
  338loPI   C6A 5404   4.602  16.507   8.369  0.1790  0.1564  0.2200
  338loPI   C1B 5405   4.500  17.623  10.598 -0.0059 -0.1380 -0.0185
  338loPI   C2B 5406   4.532  17.641  10.157 -0.0741 -0.3037 -0.1551
  338loPI   C3B 5407   4.571  17.754   9.716 -0.1544  0.0027 -0.2465
  338loPI   C4B 5408   4.610  17.791   9.260  0.2512 -0.2684  0.3189
  339loPI    C1 5409   6.790   1.443  11.790 -0.0267  0.2285 -0.3403
  339loPI    C2 5410   6.754   1.821  11.915  0.1044  0.1900 -0.1823
  339loPI    C3 5411   6.929   1.549  12.149 -0.1461 -0.0092 -0.2215
  339loPI   PO4 5412   6.925   1.472  11.634 -0.0157 -0.1637  0.2694
  339loPI   GL1 5413   6.921   1.354  11.249  0.1638 -0.0590 -0.2130
  339loPI   GL2 5414   7.216   1.313  11.155  0.1359 -0.0609  0.3692
  339loPI   C1A 5415   6.803   1.584  10.849  0.1782 -0.1683 -0.2213
  339loPI   C2A 5416   6.801   1.724  10.425 -0.0025  0.0948 -0.1136
  339loPI   C3A 5417   6.694   1.829  10.028 -0.0268 -0.0046 -0.1990
  339loPI   C4A 5418   6.614   1.867   9.582 -0.0656 -0.0630 -0.0854
  339loPI   C5A 5419   6.415   2.003   9.269 -0.0216 -0.1991  0.0857
  339loPI   C6A 5420   6.462   1.781   8.790  0.1684  0.1638 -0.0506
  339loPI   C1B 5421   7.174   1.289  10.700 -0.0771  0.0098 -0.1456
  339loPI   C2B 5422   7.149   1.396  10.333 -0.1290 -0.0297  0.2474
  339loPI   C3B 5423   7.115   1.490  10.008  0.2041  0.2676  0.1042
  339loPI   C4B 5424   6.991   1.577   9.685 -0.1948 -0.2515  0.0498
  340loPI    C1 5425   7.041  13.388  11.803  0.1425  0.1963  0.0040
  340loPI    C2 5426   7.275  13.100  11.652  0.0928  0.2078 -0.0957
  340loPI    C3 5427   7.304  13.200  12.038 -0.0565 -0.0973 -0.0029
  340loPI   PO4 5428   7.026  13.542  11.577 -0.1319  0.1651 -0.1762
  340loPI   GL1 5429   6.909  13.552  11.143 -0.2699  0.0390 -0.0215
  340loPI   GL2 5430   7.105  13.292  11.206 -0.0941 -0.1921  0.0469
  340loPI   C1A 5431   7.014  13.628  10.739  0.2045  0.2332 -0.1716
  340loPI   C2A 5432   7.030  13.705  10.326 -0.1582  0.1429  0.2178
  340loPI   C3A 5433   6.952  13.488   9.919 -0.0989  0.0632 -0.1469
  340loPI   C4A 5434   6.980  13.418   9.499  0.4254 -0.2962 -0.2506
  340loPI   C5A 5435   6.742  13.630   9.233 -0.0795 -0.0344  0.2066
  340loPI   C6A 5436   6.390  13.776   8.977  0.3698 -0.1194 -0.0932
  340loPI   C1B 5437   6.853  13.096  10.883  0.1000  0.0277 -0.0959
  340loPI   C2B 5438   6.823  13.227  10.448  0.4786 -0.2692  0.2045
  340loPI   C3B 5439   6.865  12.997  10.092  0.1038  0.1109  0.0852
  340loPI   C4B 5440   6.942  12.856   9.606 -0.2006 -0.0990 -0.3581
  341loPI    C1 5441   2.493  12.484  11.688 -0.1448 -0.1387 -0.0471
  341loPI    C2 5442   2.695  12.821  11.613 -0.0397 -0.1397  0.2206
  341loPI    C3 5443   2.503  12.776  11.961 -0.3244 -0.2267  0.0557
  341loPI   PO4 5444   2.356  12.539  11.441  0.2780  0.0052 -0.2412
  341loPI   GL1 5445   2.055  12.526  10.974 -0.3895  0.0428  0.1841
  341loPI   GL2 5446   2.129  12.208  10.870  0.1041 -0.0122  0.0831
  341loPI   C1A 5447   2.257  12.654  10.600 -0.3441  0.0664 -0.2222
  341loPI   C2A 5448   2.267  12.615  10.222  0.1701 -0.1398 -0.0699
  341loPI   C3A 5449   2.400  12.694   9.873 -0.2983  0.1138 -0.0543
  341loPI   C4A 5450   2.332  12.666   9.437  0.1748  0.1442  0.1023
  341loPI   C5A 5451   2.291  12.566   9.088 -0.1229  0.0511 -0.1404
  341loPI   C6A 5452   2.389  12.405   8.713 -0.1757 -0.1926  0.1806
  341loPI   C1B 5453   2.253  12.132  10.415 -0.1651  0.2428 -0.1059
  341loPI   C2B 5454   2.309  12.148   9.957  0.1127  0.1997 -0.3365
  341loPI   C3B 5455   2.363  12.128   9.535 -0.0507  0.3074 -0.1793
  341loPI   C4B 5456   2.395  12.130   9.134 -0.2812  0.0831  0.2533
  342loPI    C1 5457  14.355  16.502  11.888 -0.3184  0.0747 -0.0265
  342loPI    C2 5458  14.273  16.651  12.250 -0.3156 -0.2679  0.1191
  342loPI    C3 5459  14.303  16.256  12.199  0.2596 -0.2019 -0.1357
  342loPI   PO4 5460  14.205  16.586  11.695 -0.1491 -0.2468 -0.0686
  342loPI   GL1 5461  14.184  16.689  11.289 -0.2074  0.2099 -0.2401
  342loPI   GL2 5462  14.082  16.309  11.270  0.3935  0.1596  0.2222
  342loPI   C1A 5463  13.977  16.838  10.998 -0.0507 -0.2504  0.1810
  342loPI   C2A 5464  13.944  16.793  10.598  0.0683 -0.1755  0.1143
  342loPI   C3A 5465  13.977  16.673  10.239 -0.1954 -0.1528  0.0730
  342loPI   C4A 5466  13.913  16.535   9.816  0.1105 -0.1148 -0.1772
  342loPI   C5A 5467  13.978  16.544   9.355  0.0517 -0.3719 -0.0225
  342loPI   C6A 5468  13.917  16.474   8.973  0.1138 -0.0494 -0.1125
  342loPI   C1B 5469  13.964  16.308  10.854 -0.2475  0.0082  0.0618
  342loPI   C2B 5470  13.910  16.144  10.301  0.0482 -0.3552 -0.2346
  342loPI   C3B 5471  14.010  16.007   9.847 -0.0910  0.2548  0.1053
  342loPI   C4B 5472  13.856  16.087   9.460  0.3344  0.0534  0.0575
  343loPI    C1 5473   9.960  13.686  12.189 -0.1587 -0.0567  0.2110
  343loPI    C2 5474  10.145  14.028  12.284 -0.1615  0.0432 -0.1287
  343loPI    C3 5475  10.270  13.682  12.442  0.1963  0.1322 -0.2086
  343loPI   PO4 5476   9.926  13.794  11.861 -0.1057 -0.2517 -0.1407
  343loPI   GL1 5477   9.762  13.883  11.548  0.0465  0.0146  0.1185
  343loPI   GL2 5478   9.520  13.592  11.570  0.0934 -0.1961  0.2187
  343loPI   C1A 5479   9.708  13.885  11.066 -0.2522  0.0458  0.1283
  343loPI   C2A 5480   9.692  13.915  10.611 -0.2008  0.2190 -0.0662
  343loPI   C3A 5481   9.684  13.963  10.082 -0.0769  0.3302 -0.0589
  343loPI   C4A 5482   9.766  13.976   9.605 -0.0150  0.2981  0.1236
  343loPI   C5A 5483  10.139  13.961   9.444 -0.1316 -0.1747  0.2503
  343loPI   C6A 5484  10.307  13.958   9.023  0.0915 -0.0244 -0.3948
  343loPI   C1B 5485   9.282  13.590  11.241  0.0910  0.2045 -0.0760
  343loPI   C2B 5486   9.277  13.620  10.807  0.0334  0.0433  0.2002
  343loPI   C3B 5487   9.288  13.599  10.311 -0.0259  0.0075 -0.0956
  343loPI   C4B 5488   9.170  13.779   9.927  0.0524  0.0799 -0.0048
  344loPI    C1 5489  12.845  11.151  11.715 -0.0061 -0.0273 -0.0636
  344loPI    C2 5490  12.769  11.048  12.094 -0.1489 -0.1499 -0.1248
  344loPI    C3 5491  12.539  11.319  11.910  0.1851  0.2380  0.0141
  344loPI   PO4 5492  12.939  10.930  11.543  0.1118 -0.3228 -0.3807
  344loPI   GL1 5493  12.829  10.973  11.185  0.0970 -0.3099  0.4068
  344loPI   GL2 5494  12.556  11.020  10.971 -0.1249 -0.1658 -0.0466
  344loPI   C1A 5495  13.075  10.753  10.870  0.1031 -0.2127 -0.2153
  344loPI   C2A 5496  12.799  10.554  10.526 -0.2021  0.1374  0.1794
  344loPI   C3A 5497  12.790  10.540  10.210 -0.1904  0.1474 -0.0800
  344loPI   C4A 5498  12.868  10.447   9.793 -0.0705  0.2196  0.2523
  344loPI   C5A 5499  12.984  10.443   9.331  0.0485  0.0793 -0.1349
  344loPI   C6A 5500  13.103  10.573   8.907  0.2466 -0.2599  0.0955
  344loPI   C1B 5501  12.397  10.867  10.640 -0.2173 -0.0630  0.1971
  344loPI   C2B 5502  12.271  10.726  10.255  0.2175 -0.4201  0.2115
  344loPI   C3B 5503  12.321  10.711   9.829 -0.0654 -0.2224  0.0986
  344loPI   C4B 5504  12.489  10.592   9.462 -0.1404  0.2732  0.1357
  345loPI    C1 5505  10.041  12.807  11.934  0.2388 -0.0249  0.0206
  345loPI    C2 5506   9.847  12.639  12.241  0.0570  0.1542  0.0054
  345loPI    C3 5507  10.241  12.587  12.201  0.0539 -0.0079  0.1752
  345loPI   PO4 5508   9.857  12.830  11.729 -0.0129 -0.2780 -0.3041
  345loPI   GL1 5509   9.824  12.929  11.298  0.1501  0.2402 -0.2425
  345loPI   GL2 5510   9.690  13.174  11.435  0.0053 -0.3641  0.3101
  345loPI   C1A 5511   9.701  12.869  10.852  0.2284 -0.2087 -0.2374
  345loPI   C2A 5512   9.693  12.844  10.382  0.2353 -0.1154 -0.0181
  345loPI   C3A 5513   9.632  12.873   9.987  0.2288 -0.4672 -0.0252
  345loPI   C4A 5514   9.454  12.997   9.525 -0.0141  0.1915  0.0591
  345loPI   C5A 5515   9.180  12.870   9.163 -0.0301  0.0261 -0.1564
  345loPI   C6A 5516   8.956  12.858   8.755  0.2488 -0.1420  0.0731
  345loPI   C1B 5517   9.671  13.358  11.006  0.3752 -0.1623  0.0727
  345loPI   C2B 5518   9.696  13.403  10.622  0.2280 -0.0655  0.1891
  345loPI   C3B 5519   9.731  13.323  10.187 -0.1066 -0.5498 -0.2994
  345loPI   C4B 5520   9.730  13.487   9.774  0.1107 -0.1664 -0.2889
  346loPI    C1 5521  16.207   0.322  11.150  0.0074  0.2743  0.0735
  346loPI    C2 5522  16.215   0.220  11.537  0.1194  0.5185  0.1377
  346loPI    C3 5523  15.875   0.189  11.329  0.1930 -0.1794  0.0950
  346loPI   PO4 5524  16.512   0.108  11.070 -0.1348  0.0969 -0.3334
  346loPI   GL1 5525  16.604  -0.062  10.732 -0.1705 -0.2053 -0.2372
  346loPI   GL2 5526  16.246   0.165  10.649  0.0215 -0.3760  0.0460
  346loPI   C1A 5527  16.658  -0.036  10.266  0.0931  0.0381 -0.1281
  346loPI   C2A 5528  16.656  -0.113   9.795  0.2057  0.1317 -0.0534
  346loPI   C3A 5529  16.727   0.118   9.475 -0.0712 -0.1095 -0.0259
  346loPI   C4A 5530  16.799  -0.017   9.157  0.1059  0.3434  0.2758
  346loPI   C5A 5531  16.546  -0.194   8.789  0.2780  0.1828 -0.2029
  346loPI   C6A 5532  16.461  -0.666   8.743 -0.2885 -0.2297 -0.1612
  346loPI   C1B 5533  16.179   0.207  10.185  0.1124  0.0701 -0.4865
  346loPI   C2B 5534  16.204   0.230   9.735  0.1961 -0.0870  0.0421
  346loPI   C3B 5535  16.357   0.380   9.276  0.1544 -0.2037 -0.0893
  346loPI   C4B 5536  16.639   0.361   8.902 -0.1195  0.1516  0.4294
  347loPI    C1 5537   8.882   6.672  11.767  0.0112  0.0423 -0.1518
  347loPI    C2 5538   8.885   6.373  12.033 -0.1878  0.2396  0.0768
  347loPI    C3 5539   9.230   6.521  11.895 -0.0797  0.2058  0.3068
  347loPI   PO4 5540   8.666   6.588  11.606 -0.2229  0.0260  0.0163
  347loPI   GL1 5541   8.798   6.277  11.430  0.1158 -0.1239 -0.0799
  347loPI   GL2 5542   8.641   6.046  11.383 -0.2598  0.0618 -0.2542
  347loPI   C1A 5543   8.663   6.366  11.023 -0.1934  0.0910  0.1371
  347loPI   C2A 5544   8.713   6.410  10.557 -0.1310  0.0635 -0.2681
  347loPI   C3A 5545   8.731   6.345  10.162  0.0902  0.0001  0.0335
  347loPI   C4A 5546   8.719   6.285   9.695 -0.3215  0.3772 -0.0631
  347loPI   C5A 5547   8.861   6.113   9.329  0.0698 -0.1236 -0.2812
  347loPI   C6A 5548   9.067   6.277   8.966 -0.0677  0.0623  0.1657
  347loPI   C1B 5549   8.582   5.886  10.991 -0.1739 -0.1147 -0.3740
  347loPI   C2B 5550   8.595   5.906  10.553  0.1701 -0.0621 -0.1519
  347loPI   C3B 5551   8.671   5.816  10.169 -0.3416  0.2132  0.2589
  347loPI   C4B 5552   8.619   5.782   9.715 -0.2095  0.0836  0.1737
  348loPI    C1 5553   3.735   8.972  11.821 -0.1305  0.1346  0.1646
  348loPI    C2 5554   4.067   8.757  11.766 -0.1561  0.1019  0.1378
  348loPI    C3 5555   3.864   8.727  12.110 -0.3530 -0.1823  0.0013
  348loPI   PO4 5556   3.589   8.970  11.569  0.0799  0.0732  0.1081
  348loPI   GL1 5557   3.526   8.793  11.108  0.1557 -0.0642 -0.0129
  348loPI   GL2 5558   3.228   8.879  11.170  0.0746  0.1942  0.1467
  348loPI   C1A 5559   3.759   8.771  10.869  0.2037 -0.1120 -0.0897
  348loPI   C2A 5560   3.669   8.852  10.501  0.0015 -0.3165  0.0642
  348loPI   C3A 5561   3.794   8.864  10.046 -0.1016 -0.3525  0.3878
  348loPI   C4A 5562   3.856   8.850   9.645  0.1435  0.3456 -0.2761
  348loPI   C5A 5563   3.890   8.966   9.259  0.3170 -0.0039 -0.2039
  348loPI   C6A 5564   3.924   8.746   8.866  0.1633 -0.2305 -0.0811
  348loPI   C1B 5565   2.967   8.902  10.749  0.1692 -0.1091  0.0536
  348loPI   C2B 5566   2.892   8.992  10.401 -0.2732  0.0435  0.0059
  348loPI   C3B 5567   2.930   9.063   9.967 -0.0525 -0.3850  0.2273
  348loPI   C4B 5568   2.953   9.032   9.614  0.0966  0.0327  0.0309
  349loPI    C1 5569   7.457  12.251  12.005  0.0780  0.1582 -0.0087
  349loPI    C2 5570   7.346  12.633  12.039 -0.2970  0.0722 -0.2081
  349loPI    C3 5571   7.336  12.393  12.358  0.2364  0.2981 -0.0094
  349loPI   PO4 5572   7.427  12.278  11.694  0.0335  0.4075 -0.0254
  349loPI   GL1 5573   7.476  12.179  11.322  0.3489 -0.4113  0.0205
  349loPI   GL2 5574   7.605  11.983  11.016 -0.3214 -0.0118  0.0727
  349loPI   C1A 5575   7.194  12.278  10.895 -0.4779 -0.1220  0.0699
  349loPI   C2A 5576   7.225  12.265  10.467 -0.0814 -0.0688 -0.0113
  349loPI   C3A 5577   7.317  12.191  10.048 -0.1968 -0.0348  0.2001
  349loPI   C4A 5578   7.313  12.142   9.561 -0.2121 -0.1882 -0.2199
  349loPI   C5A 5579   7.135  11.916   9.182  0.0161 -0.0688  0.0828
  349loPI   C6A 5580   7.323  11.600   9.053 -0.1074  0.2896  0.2246
  349loPI   C1B 5581   7.718  11.943  10.555 -0.1248 -0.2976  0.2532
  349loPI   C2B 5582   7.777  11.894  10.092  0.2488  0.0545 -0.1090
  349loPI   C3B 5583   7.723  11.858   9.683  0.1610 -0.0639  0.1177
  349loPI   C4B 5584   7.643  11.931   9.225 -0.1657  0.1204 -0.1598
  350loPI    C1 5585   0.329   7.623  11.465 -0.3165  0.2600 -0.0502
  350loPI    C2 5586  -0.020   7.579  11.655 -0.2303  0.0899  0.0709
  350loPI    C3 5587   0.275   7.315  11.713 -0.0642  0.2587  0.0061
  350loPI   PO4 5588   0.275   7.622  11.114 -0.0708 -0.1591  0.0026
  350loPI   GL1 5589   0.398   7.434  10.773  0.3189 -0.1152 -0.1494
  350loPI   GL2 5590   0.619   7.312  10.576 -0.0875  0.0466 -0.0037
  350loPI   C1A 5591   0.131   7.505  10.472 -0.0212  0.2683  0.2334
  350loPI   C2A 5592   0.013   7.560   9.987  0.1548 -0.1012 -0.1857
  350loPI   C3A 5593   0.157   7.606   9.526  0.2139 -0.0288  0.1043
  350loPI   C4A 5594   0.157   7.613   9.143 -0.1063  0.2807  0.3583
  350loPI   C5A 5595   0.434   7.690   8.869  0.1263  0.1958 -0.0206
  350loPI   C6A 5596   0.750   7.715   8.687 -0.0097  0.3608 -0.2476
  350loPI   C1B 5597   0.507   7.319  10.125 -0.0474  0.0678  0.0519
  350loPI   C2B 5598   0.689   7.219   9.725  0.0495 -0.1047  0.1996
  350loPI   C3B 5599   0.908   7.201   9.330  0.1033  0.1064  0.1832
  350loPI   C4B 5600   0.856   7.272   8.926 -0.0710 -0.0877  0.1223
  351loPI    C1 5601  14.787  16.857  11.915 -0.3344 -0.0614 -0.1056
  351loPI    C2 5602  14.473  17.065  11.779 -0.2606  0.1984  0.1115
  351loPI    C3 5603  14.776  17.255  11.959 -0.0439 -0.0656  0.0328
  351loPI   PO4 5604  14.858  16.650  11.640  0.1967 -0.2041 -0.0482
  351loPI   GL1 5605  14.727  16.728  11.282 -0.2032 -0.1171 -0.0437
  351loPI   GL2 5606  14.949  16.796  11.060 -0.0392  0.1004 -0.2227
  351loPI   C1A 5607  14.483  16.543  10.958 -0.0628 -0.0814  0.0450
  351loPI   C2A 5608  14.375  16.441  10.496 -0.1246  0.0508 -0.1412
  351loPI   C3A 5609  14.401  16.287  10.097 -0.2766  0.4336 -0.0493
  351loPI   C4A 5610  14.371  16.269   9.646 -0.2889 -0.2672  0.4214
  351loPI   C5A 5611  14.354  16.248   9.158 -0.1012  0.0280 -0.4285
  351loPI   C6A 5612  14.389  16.128   8.802 -0.1483  0.0071  0.5221
  351loPI   C1B 5613  14.874  16.672  10.648 -0.0711  0.0964 -0.3378
  351loPI   C2B 5614  14.826  16.567  10.224  0.1710  0.2383 -0.1234
  351loPI   C3B 5615  14.761  16.599   9.761 -0.0081 -0.1268  0.1725
  351loPI   C4B 5616  14.783  16.464   9.307  0.0171  0.0876  0.1629
  352loPI    C1 5617  15.705   1.643  11.482 -0.0483  0.0135  0.3220
  352loPI    C2 5618  16.073   1.647  11.640 -0.1044 -0.1168  0.4590
  352loPI    C3 5619  15.790   1.890  11.786 -0.0311  0.0998  0.2474
  352loPI   PO4 5620  15.787   1.703  11.182  0.1493 -0.0551 -0.1032
  352loPI   GL1 5621  15.788   1.449  10.857 -0.1168 -0.0244 -0.0106
  352loPI   GL2 5622  16.128   1.405  10.988  0.2121 -0.0526  0.1362
  352loPI   C1A 5623  15.758   1.471  10.433  0.3856 -0.0699 -0.0487
  352loPI   C2A 5624  15.744   1.394   9.976  0.1453 -0.3344  0.0595
  352loPI   C3A 5625  15.817   1.402   9.592  0.1728  0.0526  0.0368
  352loPI   C4A 5626  15.907   1.338   9.156 -0.1409 -0.0318  0.3515
  352loPI   C5A 5627  15.931   1.131   8.887  0.1290  0.0608  0.0518
  352loPI   C6A 5628  16.101   1.254   8.446 -0.1145  0.0804  0.0314
  352loPI   C1B 5629  16.197   1.218  10.636  0.2331 -0.2807 -0.1977
  352loPI   C2B 5630  16.131   1.231  10.231 -0.1079 -0.2353 -0.4128
  352loPI   C3B 5631  16.213   1.179   9.780 -0.1936 -0.0931  0.0317
  352loPI   C4B 5632  16.334   1.336   9.427  0.1439 -0.1098  0.1865
  353loPI    C1 5633   2.502  16.792  11.640 -0.1328 -0.2254  0.0840
  353loPI    C2 5634   2.808  16.806  11.896 -0.0643  0.0456 -0.0091
  353loPI    C3 5635   2.444  16.702  12.025  0.0228 -0.0743  0.1438
  353loPI   PO4 5636   2.659  16.753  11.377  0.4408  0.0943  0.2247
  353loPI   GL1 5637   2.553  16.692  11.000  0.1518  0.2723  0.0856
  353loPI   GL2 5638   2.443  16.312  10.882  0.1614 -0.2742 -0.0023
  353loPI   C1A 5639   2.476  16.847  10.572 -0.0283 -0.1295  0.0360
  353loPI   C2A 5640   2.595  16.798  10.198  0.2736  0.1847 -0.0046
  353loPI   C3A 5641   2.721  16.793   9.757  0.1689 -0.1517 -0.0112
  353loPI   C4A 5642   2.681  16.679   9.384 -0.2786  0.2254  0.3385
  353loPI   C5A 5643   2.624  16.690   8.919  0.3061  0.2510 -0.1124
  353loPI   C6A 5644   2.749  16.899   8.538 -0.2566  0.1469  0.2968
  353loPI   C1B 5645   2.524  16.378  10.358  0.0230  0.2805 -0.1656
  353loPI   C2B 5646   2.552  16.315   9.951 -0.3134 -0.0691  0.0659
  353loPI   C3B 5647   2.579  16.242   9.554  0.0305  0.0612  0.3377
  353loPI   C4B 5648   2.681  16.127   9.056  0.1272  0.3474  0.4748
  354loPI    C1 5649  13.456   0.252  11.921  0.2900 -0.1243 -0.1377
  354loPI    C2 5650  13.300   0.017  11.638  0.0642 -0.3673  0.1811
  354loPI    C3 5651  13.060   0.232  11.874  0.2540 -0.1059  0.1399
  354loPI   PO4 5652  13.608   0.415  11.788 -0.0855 -0.3166  0.1791
  354loPI   GL1 5653  13.896   0.651  11.407 -0.0644 -0.1113  0.2012
  354loPI   GL2 5654  14.270   0.525  11.351 -0.0038  0.3017 -0.0956
  354loPI   C1A 5655  13.984   0.611  10.951 -0.1317  0.2327 -0.3093
  354loPI   C2A 5656  13.957   0.577  10.524  0.1011 -0.3578  0.0042
  354loPI   C3A 5657  13.967   0.365  10.091  0.2016  0.0502  0.3183
  354loPI   C4A 5658  13.950   0.432   9.697 -0.3170  0.1325 -0.0288
  354loPI   C5A 5659  14.080   0.160   9.337 -0.0625 -0.1953  0.3449
  354loPI   C6A 5660  13.814  -0.048   9.078  0.0898  0.0362  0.3315
  354loPI   C1B 5661  14.435   0.353  11.006 -0.1821 -0.1196 -0.0796
  354loPI   C2B 5662  14.472   0.309  10.570 -0.0581  0.1442  0.3218
  354loPI   C3B 5663  14.454   0.198  10.186  0.0021 -0.2553 -0.0182
  354loPI   C4B 5664  14.363   0.176   9.806  0.0262 -0.1738  0.0351
  355loPI    C1 5665   2.567   5.994  11.563 -0.3137  0.0753  0.0389
  355loPI    C2 5666   2.188   5.957  11.684 -0.2766  0.2722  0.2202
  355loPI    C3 5667   2.447   6.173  11.900 -0.0478  0.0973  0.1244
  355loPI   PO4 5668   2.632   6.061  11.254  0.1415 -0.0273  0.1392
  355loPI   GL1 5669   3.042   6.071  10.980 -0.1774  0.3227 -0.1658
  355loPI   GL2 5670   2.775   6.296  10.792  0.3615 -0.1894 -0.3605
  355loPI   C1A 5671   3.318   6.049  10.712 -0.1126  0.1068 -0.1489
  355loPI   C2A 5672   3.338   6.099  10.321  0.0958 -0.1810 -0.0541
  355loPI   C3A 5673   3.327   6.087   9.844 -0.1071  0.3051 -0.1681
  355loPI   C4A 5674   3.291   5.997   9.465 -0.0331 -0.2031  0.1405
  355loPI   C5A 5675   3.419   6.127   9.026  0.1992  0.0474 -0.1694
  355loPI   C6A 5676   3.674   6.048   8.739  0.0993  0.1309 -0.0743
  355loPI   C1B 5677   2.879   6.422  10.370 -0.1033 -0.1037 -0.1897
  355loPI   C2B 5678   2.910   6.421   9.970  0.0023  0.1504 -0.1981
  355loPI   C3B 5679   2.875   6.313   9.553  0.3263  0.0231 -0.0237
  355loPI   C4B 5680   2.862   6.070   9.235  0.1673  0.2907  0.1249
  356loPI    C1 5681   6.950   4.447  12.103 -0.0188  0.1913 -0.1458
  356loPI    C2 5682   6.979   4.675  12.431  0.0640  0.0761 -0.0725
  356loPI    C3 5683   6.769   4.334  12.441  0.2799 -0.0586 -0.0654
  356loPI   PO4 5684   6.850   4.619  11.873 -0.0376  0.1785 -0.2650
  356loPI   GL1 5685   6.845   4.648  11.350  0.0079  0.1858  0.0519
  356loPI   GL2 5686   7.175   4.588  11.398  0.0129  0.0780  0.1770
  356loPI   C1A 5687   6.777   4.861  10.954  0.0616 -0.0679  0.1283
  356loPI   C2A 5688   6.713   4.954  10.581  0.0015 -0.0419  0.2925
  356loPI   C3A 5689   6.819   4.922  10.258  0.1091 -0.1795 -0.0952
  356loPI   C4A 5690   6.801   4.883   9.774  0.1556  0.0489 -0.0581
  356loPI   C5A 5691   6.900   4.649   9.351  0.1867  0.2437  0.2191
  356loPI   C6A 5692   7.218   4.447   9.140  0.0672 -0.3116 -0.2480
  356loPI   C1B 5693   7.293   4.654  10.955 -0.3509 -0.1032 -0.1772
  356loPI   C2B 5694   7.286   4.705  10.523  0.2853  0.1215  0.1094
  356loPI   C3B 5695   7.160   4.633  10.156  0.1505  0.2566  0.2142
  356loPI   C4B 5696   7.280   4.632   9.699 -0.1334 -0.2501  0.2700
  357loPI    C1 5697   4.621  14.822  12.008 -0.0346 -0.0195  0.0077
  357loPI    C2 5698   4.960  14.959  12.170  0.0060 -0.2203  0.0953
  357loPI    C3 5699   4.896  14.565  12.144 -0.1175 -0.1862 -0.1360
  357loPI   PO4 5700   4.620  15.022  11.814  0.0198  0.2189  0.1543
  357loPI   GL1 5701   4.668  15.008  11.450  0.2274 -0.0514 -0.1648
  357loPI   GL2 5702   4.352  14.955  11.251 -0.0869 -0.1072 -0.3560
  357loPI   C1A 5703   4.985  15.093  11.217 -0.0164 -0.0583  0.3135
  357loPI   C2A 5704   5.115  15.186  10.717  0.2157 -0.1722 -0.2419
  357loPI   C3A 5705   5.180  15.297  10.253  0.0795 -0.0234  0.0574
  357loPI   C4A 5706   5.342  15.628   9.941  0.0006  0.0306  0.1782
  357loPI   C5A 5707   5.242  15.768   9.581  0.0025 -0.1959  0.1880
  357loPI   C6A 5708   4.998  15.654   9.285  0.2433 -0.2226  0.2130
  357loPI   C1B 5709   4.203  14.982  10.781 -0.0024  0.1344 -0.0714
  357loPI   C2B 5710   4.136  14.828  10.390 -0.2329 -0.1904  0.1692
  357loPI   C3B 5711   4.303  14.787   9.985  0.4014 -0.1440 -0.0971
  357loPI   C4B 5712   4.569  14.862   9.697  0.0671  0.3285 -0.1159
  358loPI    C1 5713  16.840  16.062  11.583  0.0595  0.0172 -0.0226
  358loPI    C2 5714  17.004  16.425  11.613  0.0208  0.0204  0.1644
  358loPI    C3 5715  16.734  16.305  11.882 -0.0064 -0.1271  0.0725
  358loPI   PO4 5716  17.024  15.954  11.308 -0.2027 -0.2805 -0.0724
  358loPI   GL1 5717  17.094  15.988  10.871 -0.2672  0.1239  0.0667
  358loPI   GL2 5718  16.863  16.065  10.841  0.0235  0.1514 -0.1149
  358loPI   C1A 5719  17.175  15.998  10.346 -0.0308  0.1261  0.0774
  358loPI   C2A 5720  17.118  15.906   9.926 -0.1551 -0.0614  0.1275
  358loPI   C3A 5721  17.085  15.955   9.541 -0.1256 -0.0105 -0.0343
  358loPI   C4A 5722  17.066  15.971   9.141 -0.1343 -0.0857  0.0020
  358loPI   C5A 5723  17.118  16.258   8.885 -0.1174 -0.1024 -0.3421
  358loPI   C6A 5724  17.319  16.601   8.699 -0.1518  0.0661  0.0236
  358loPI   C1B 5725  16.708  16.244  10.431  0.0178 -0.4551 -0.0121
  358loPI   C2B 5726  16.680  16.184   9.983  0.1271  0.0160 -0.1415
  358loPI   C3B 5727  16.653  16.236   9.525  0.0987 -0.1619 -0.1403
  358loPI   C4B 5728  16.665  16.313   9.108 -0.0950 -0.2014 -0.0481
  359loPI    C1 5729   5.623   1.898  11.793  0.0566 -0.1727  0.1502
  359loPI    C2 5730   5.253   1.795  11.907 -0.0357 -0.1781 -0.1443
  359loPI    C3 5731   5.550   1.527  11.925 -0.0114 -0.1321  0.2279
  359loPI   PO4 5732   5.628   2.028  11.582  0.2684 -0.1103  0.3358
  359loPI   GL1 5733   5.583   1.942  11.207 -0.0769 -0.1116 -0.0615
  359loPI   GL2 5734   5.662   2.204  11.055  0.3657  0.1447  0.2130
  359loPI   C1A 5735   5.785   1.789  10.821 -0.3008 -0.2508  0.0455
  359loPI   C2A 5736   5.851   1.786  10.420 -0.0243  0.2627  0.1395
  359loPI   C3A 5737   5.921   1.674   9.983  0.1812  0.3075  0.0433
  359loPI   C4A 5738   5.846   1.768   9.527  0.1538 -0.0030 -0.2847
  359loPI   C5A 5739   5.531   2.020   9.249  0.0885  0.2183 -0.1795
  359loPI   C6A 5740   5.423   2.185   8.902 -0.0817  0.3067  0.2199
  359loPI   C1B 5741   5.814   2.308  10.721 -0.2080  0.0531  0.1136
  359loPI   C2B 5742   5.860   2.332  10.295 -0.0184  0.0095 -0.1467
  359loPI   C3B 5743   5.818   2.263   9.803  0.1918  0.1621  0.0118
  359loPI   C4B 5744   5.917   2.304   9.345  0.1660  0.0817 -0.2048
  360loPI    C1 5745  15.644  10.113  11.254  0.0048  0.0093  0.0786
  360loPI    C2 5746  15.750   9.856  11.541  0.0175 -0.1437 -0.0614
  360loPI    C3 5747  15.498  10.155  11.624 -0.0265 -0.2226  0.0941
  360loPI   PO4 5748  15.641   9.958  10.946 -0.0052  0.0381  0.1537
  360loPI   GL1 5749  15.599  10.116  10.577 -0.0415 -0.1031 -0.1997
  360loPI   GL2 5750  15.281  10.060  10.560 -0.1465  0.0704  0.0274
  360loPI   C1A 5751  15.616  10.239  10.173 -0.0563 -0.2464 -0.1250
  360loPI   C2A 5752  15.698  10.313   9.795  0.2825  0.1739  0.1238
  360loPI   C3A 5753  15.619  10.193   9.431 -0.1310  0.2293 -0.1602
  360loPI   C4A 5754  15.909  10.216   9.097  0.2231 -0.1397  0.0414
  360loPI   C5A 5755  16.051  10.221   8.608 -0.2477  0.0682 -0.0711
  360loPI   C6A 5756  16.243  10.296   8.264 -0.1913  0.1150  0.1628
  360loPI   C1B 5757  15.163   9.944  10.122  0.0090 -0.3298  0.1540
  360loPI   C2B 5758  15.223  10.014   9.768 -0.0117  0.1753 -0.2940
  360loPI   C3B 5759  15.149  10.134   9.344  0.2110 -0.0552  0.2921
  360loPI   C4B 5760  14.951  10.506   9.095 -0.0861  0.1325 -0.1396
  361loPI    C1 5761   2.796   8.216  11.243 -0.0460  0.0800  0.1544
  361loPI    C2 5762   2.694   8.259  11.627  0.1103  0.2250  0.1809
  361loPI    C3 5763   2.509   7.986  11.400 -0.2524  0.4014  0.2566
  361loPI   PO4 5764   3.121   8.435  11.246 -0.0817  0.4794  0.0081
  361loPI   GL1 5765   3.112   8.493  10.923  0.0891  0.0681  0.0382
  361loPI   GL2 5766   2.725   8.470  10.827  0.2857  0.1033  0.1654
  361loPI   C1A 5767   3.277   8.578  10.598 -0.2469 -0.0378 -0.0868
  361loPI   C2A 5768   3.348   8.652  10.188  0.6241 -0.0430 -0.0863
  361loPI   C3A 5769   3.344   8.685   9.785  0.2072 -0.0528 -0.1281
  361loPI   C4A 5770   3.271   8.655   9.306 -0.1977  0.1438  0.0906
  361loPI   C5A 5771   3.291   8.912   8.967  0.1193 -0.2444  0.0880
  361loPI   C6A 5772   3.040   9.050   8.551 -0.1597 -0.1811  0.0339
  361loPI   C1B 5773   2.845   8.470  10.461 -0.0706 -0.0318  0.2025
  361loPI   C2B 5774   2.887   8.532  10.036 -0.1071  0.0132  0.1234
  361loPI   C3B 5775   2.934   8.445   9.582  0.1605  0.1967  0.4911
  361loPI   C4B 5776   2.890   8.453   9.080 -0.2371  0.1660  0.0959
  362loPI    C1 5777   5.261  11.630  11.572  0.2235  0.0299  0.1513
  362loPI    C2 5778   5.352  11.682  11.958  0.0371  0.1000  0.1870
  362loPI    C3 5779   5.112  11.382  11.848  0.0103  0.1398  0.1367
  362loPI   PO4 5780   5.249  11.834  11.497  0.0298 -0.0969 -0.0257
  362loPI   GL1 5781   5.379  11.943  11.098 -0.2401 -0.0959 -0.2415
  362loPI   GL2 5782   5.236  12.233  11.049 -0.0912  0.1429 -0.1955
  362loPI   C1A 5783   5.384  11.778  10.713  0.1734 -0.0294  0.1694
  362loPI   C2A 5784   5.474  11.738  10.254  0.1546  0.0247 -0.1604
  362loPI   C3A 5785   5.343  11.648   9.927  0.0841 -0.2224  0.0285
  362loPI   C4A 5786   5.459  11.680   9.523 -0.0419 -0.0479  0.3373
  362loPI   C5A 5787   5.814  11.850   9.321  0.0389 -0.2127  0.2042
  362loPI   C6A 5788   5.994  11.763   8.869  0.0759  0.0364  0.0316
  362loPI   C1B 5789   5.059  12.154  10.531 -0.0882  0.1232  0.2750
  362loPI   C2B 5790   5.002  11.926  10.196 -0.3968  0.1337  0.0733
  362loPI   C3B 5791   4.971  11.935   9.740  0.3532 -0.1917  0.0972
  362loPI   C4B 5792   4.983  11.922   9.265  0.0716  0.0211  0.0429
  363loPI    C1 5793   3.846  13.063  11.620 -0.1903  0.1401 -0.1665
  363loPI    C2 5794   3.807  12.754  11.369  0.1905 -0.0819  0.0388
  363loPI    C3 5795   3.927  12.692  11.745  0.3134  0.3215  0.0715
  363loPI   PO4 5796   3.890  13.241  11.408  0.1562  0.2859  0.0911
  363loPI   GL1 5797   3.720  13.552  11.073 -0.0399 -0.2008 -0.0014
  363loPI   GL2 5798   3.635  13.838  10.972  0.0712 -0.2408  0.0942
  363loPI   C1A 5799   3.702  13.449  10.651 -0.1564  0.2102  0.1143
  363loPI   C2A 5800   3.737  13.352  10.167 -0.1228 -0.0934  0.0343
  363loPI   C3A 5801   3.752  13.430   9.745  0.0260 -0.2514  0.0604
  363loPI   C4A 5802   3.962  13.491   9.261  0.0848 -0.1160 -0.2029
  363loPI   C5A 5803   4.368  13.718   9.148 -0.4314  0.2314  0.1617
  363loPI   C6A 5804   4.236  14.228   9.063  0.0263  0.3347 -0.1088
  363loPI   C1B 5805   3.705  13.896  10.452  0.1166  0.1381  0.0640
  363loPI   C2B 5806   3.661  13.910  10.062  0.1997 -0.1715  0.0605
  363loPI   C3B 5807   3.918  13.885   9.623 -0.1183 -0.1990 -0.1076
  363loPI   C4B 5808   3.802  14.107   9.337 -0.1848 -0.1103 -0.0730
  364loPI    C1 5809   9.260   9.098  11.848 -0.0225  0.2762 -0.2265
  364loPI    C2 5810   9.184   9.346  12.152  0.1973 -0.1184  0.1625
  364loPI    C3 5811   8.914   9.069  12.047  0.0513  0.1240 -0.1185
  364loPI   PO4 5812   9.299   9.307  11.663  0.2035  0.1280 -0.1610
  364loPI   GL1 5813   9.314   9.423  11.201 -0.3262 -0.0887  0.0190
  364loPI   GL2 5814   9.161   9.076  11.165 -0.0098  0.2196 -0.1888
  364loPI   C1A 5815   9.389   9.291  10.781 -0.0284 -0.2313  0.0474
  364loPI   C2A 5816   9.373   9.204  10.330 -0.0563  0.0874  0.1636
  364loPI   C3A 5817   9.294   9.161   9.900 -0.1240  0.0646 -0.1252
  364loPI   C4A 5818   9.273   9.094   9.443 -0.1280  0.0468  0.0175
  364loPI   C5A 5819   9.385   9.108   8.992 -0.0892 -0.0156 -0.0372
  364loPI   C6A 5820   9.841   9.049   8.733  0.4157 -0.0599  0.1709
  364loPI   C1B 5821   8.951   8.981  10.909 -0.1527 -0.1555  0.2106
  364loPI   C2B 5822   8.956   9.056  10.545  0.4764  0.1192  0.1517
  364loPI   C3B 5823   8.872   8.978  10.090 -0.0737  0.0942  0.1159
  364loPI   C4B 5824   8.815   8.905   9.627 -0.1851 -0.2807 -0.0583
  365loPI    C1 5825   2.579  11.165  11.721  0.0552  0.0791 -0.0652
  365loPI    C2 5826   2.431  11.037  12.069 -0.0343 -0.0379 -0.1455
  365loPI    C3 5827   2.757  11.268  12.064  0.0617 -0.1676  0.0073
  365loPI   PO4 5828   2.337  11.233  11.559  0.0257 -0.0389  0.1370
  365loPI   GL1 5829   2.341  11.030  11.206 -0.1547  0.1701  0.2517
  365loPI   GL2 5830   2.046  10.937  10.994 -0.1957 -0.1496 -0.1046
  365loPI   C1A 5831   2.684  11.315  10.938  0.1657  0.2212 -0.0904
  365loPI   C2A 5832   2.664  11.367  10.416  0.1521 -0.0576  0.0579
  365loPI   C3A 5833   2.754  11.302   9.962  0.1834  0.1717  0.0020
  365loPI   C4A 5834   2.738  11.260   9.456 -0.1079 -0.0678  0.1833
  365loPI   C5A 5835   2.685  11.120   9.036 -0.1532 -0.1275  0.0091
  365loPI   C6A 5836   3.041  11.270   8.676  0.0601 -0.1186  0.0560
  365loPI   C1B 5837   2.125  11.121  10.628  0.0092  0.0442  0.1294
  365loPI   C2B 5838   2.177  11.113  10.234  0.0639 -0.0573 -0.2165
  365loPI   C3B 5839   2.163  11.069   9.828  0.0239  0.2142 -0.1078
  365loPI   C4B 5840   2.292  11.051   9.411 -0.0126  0.0181 -0.0084
  366loPI    C1 5841   1.071   5.110  11.307  0.3072  0.1856  0.0642
  366loPI    C2 5842   0.921   5.448  11.459 -0.1738  0.0644 -0.1204
  366loPI    C3 5843   0.845   5.098  11.637 -0.0428  0.0074 -0.1752
  366loPI   PO4 5844   1.006   5.136  11.094  0.0322  0.0721 -0.0166
  366loPI   GL1 5845   0.956   5.229  10.715 -0.0039  0.1259 -0.0007
  366loPI   GL2 5846   0.670   5.090  10.694 -0.1429 -0.1030  0.2041
  366loPI   C1A 5847   1.141   5.143  10.364  0.2038  0.0878  0.1531
  366loPI   C2A 5848   1.298   5.140   9.992  0.1588 -0.1939 -0.1447
  366loPI   C3A 5849   1.410   5.147   9.607 -0.1244  0.0755 -0.2492
  366loPI   C4A 5850   1.419   5.000   9.252  0.0354 -0.0528 -0.1856
  366loPI   C5A 5851   1.650   5.052   8.895  0.4695 -0.1737  0.3863
  366loPI   C6A 5852   1.756   5.500   8.649  0.1393  0.0062 -0.3352
  366loPI   C1B 5853   0.408   5.160  10.333  0.0356 -0.2043  0.2361
  366loPI   C2B 5854   0.443   5.087   9.952  0.2337  0.1344 -0.0879
  366loPI   C3B 5855   0.385   5.140   9.584  0.1307 -0.1962 -0.3429
  366loPI   C4B 5856   0.590   5.083   9.243  0.2174  0.1015  0.1210
  367loPI    C1 5857   1.407   8.721  11.413 -0.0886  0.0849  0.0906
  367loPI    C2 5858   1.495   8.332  11.380  0.1187  0.1516 -0.1663
  367loPI    C3 5859   1.386   8.482  11.734  0.0154 -0.1439 -0.0700
  367loPI   PO4 5860   1.375   8.777  11.203  0.2354  0.2158 -0.0844
  367loPI   GL1 5861   1.428   8.872  10.779  0.1170  0.0330 -0.3982
  367loPI   GL2 5862   1.235   9.188  10.860 -0.0135  0.0435  0.0102
  367loPI   C1A 5863   1.613   8.808  10.359  0.2103  0.0341 -0.0199
  367loPI   C2A 5864   1.532   8.730   9.937  0.0431  0.0712  0.1854
  367loPI   C3A 5865   1.626   8.810   9.518  0.2318  0.0384  0.2192
  367loPI   C4A 5866   1.523   8.777   9.038 -0.1230  0.0589  0.0944
  367loPI   C5A 5867   1.837   8.607   8.746 -0.1372  0.3024  0.0618
  367loPI   C6A 5868   2.177   8.739   8.585  0.0626 -0.0029 -0.2128
  367loPI   C1B 5869   1.184   9.098  10.433 -0.1074 -0.2010  0.2110
  367loPI   C2B 5870   1.195   9.085   9.995  0.4795 -0.0911 -0.0804
  367loPI   C3B 5871   1.140   9.129   9.532 -0.2615 -0.0655  0.1764
  367loPI   C4B 5872   1.192   9.195   9.073  0.0058  0.4119  0.2664
  368loPI    C1 5873   0.411   9.741  11.542  0.1057 -0.1827  0.0925
  368loPI    C2 5874   0.096   9.845  11.765 -0.1689  0.0136 -0.3724
  368loPI    C3 5875   0.453  10.012  11.833 -0.1341 -0.2787  0.2189
  368loPI   PO4 5876   0.259   9.734  11.275  0.1933 -0.1009  0.1683
  368loPI   GL1 5877   0.438   9.630  10.855 -0.1052  0.2726 -0.2231
  368loPI   GL2 5878   0.183   9.560  10.659  0.1462  0.1741 -0.0406
  368loPI   C1A 5879   0.645   9.778  10.568  0.1610 -0.4596  0.0396
  368loPI   C2A 5880   0.708   9.941  10.161  0.0531 -0.1637  0.0764
  368loPI   C3A 5881   0.646   9.872   9.732  0.0209 -0.2303 -0.1364
  368loPI   C4A 5882   0.652   9.855   9.250  0.1213 -0.1930  0.0406
  368loPI   C5A 5883   0.746  10.096   8.815  0.5303  0.1487 -0.3077
  368loPI   C6A 5884   0.974  10.381   8.548  0.0537  0.1220  0.0267
  368loPI   C1B 5885   0.296   9.623  10.287 -0.0345 -0.1313 -0.0444
  368loPI   C2B 5886   0.272   9.611   9.799 -0.0040  0.2135  0.2244
  368loPI   C3B 5887   0.231   9.600   9.374 -0.0741 -0.0470  0.2374
  368loPI   C4B 5888   0.273   9.743   8.933 -0.0104 -0.0479 -0.0909
  369loPI    C1 5889  13.191   9.206  11.225 -0.0813 -0.0707  0.0429
  369loPI    C2 5890  12.819   9.241  11.083 -0.0836 -0.0842  0.0452
  369loPI    C3 5891  13.005   8.887  11.070  0.0880  0.0152 -0.3483
  369loPI   PO4 5892  13.246   9.502  11.125  0.0265  0.1359  0.3194
  369loPI   GL1 5893  13.206   9.642  10.718 -0.0821  0.1672  0.1007
  369loPI   GL2 5894  12.940   9.722  10.641  0.0101  0.2610  0.0830
  369loPI   C1A 5895  13.310   9.566  10.315 -0.1858  0.0170  0.1546
  369loPI   C2A 5896  13.328   9.641   9.890  0.0625  0.0793 -0.0547
  369loPI   C3A 5897  13.372   9.606   9.469  0.2708  0.1824 -0.3761
  369loPI   C4A 5898  13.072   9.800   9.291  0.0116  0.2271  0.1143
  369loPI   C5A 5899  12.726   9.705   9.051  0.2724  0.1213  0.1571
  369loPI   C6A 5900  12.499   9.801   8.703  0.1171  0.1943  0.1269
  369loPI   C1B 5901  12.848   9.720  10.176  0.0513 -0.0305  0.0810
  369loPI   C2B 5902  12.733   9.770   9.761  0.1060 -0.1084 -0.2132
  369loPI   C3B 5903  12.643  10.070   9.477 -0.1004 -0.2912  0.0064
  369loPI   C4B 5904  12.651  10.281   9.004 -0.1966 -0.2513  0.0244
  370loPI    C1 5905   2.310   0.720  11.528 -0.0142  0.0368  0.0302
  370loPI    C2 5906   2.269   0.977  11.832 -0.0763  0.0034  0.0503
  370loPI    C3 5907   2.424   0.614  11.897 -0.3708 -0.1162  0.1007
  370loPI   PO4 5908   2.503   0.866  11.341 -0.1041 -0.2288 -0.0193
  370loPI   GL1 5909   2.657   0.716  10.944 -0.1580 -0.3452 -0.1326
  370loPI   GL2 5910   2.539   0.367  10.961  0.1931  0.0672  0.2397
  370loPI   C1A 5911   2.641   0.638  10.452 -0.2048  0.3370  0.1414
  370loPI   C2A 5912   2.556   0.565   9.946  0.1668  0.1510  0.0731
  370loPI   C3A 5913   2.739   0.558   9.561  0.2775 -0.1229  0.3629
  370loPI   C4A 5914   2.679   0.369   9.084  0.0495  0.1069  0.0278
  370loPI   C5A 5915   2.342   0.069   8.907 -0.0313  0.1510 -0.1233
  370loPI   C6A 5916   2.241  -0.315   8.680  0.1579  0.0930 -0.4663
  370loPI   C1B 5917   2.471   0.159  10.525  0.0442  0.2359 -0.2094
  370loPI   C2B 5918   2.553   0.069   9.986  0.0350  0.1944 -0.1648
  370loPI   C3B 5919   2.653   0.031   9.526 -0.0172  0.0388  0.3066
  370loPI   C4B 5920   2.824  -0.152   9.140 -0.0424 -0.2228 -0.1509
  371loPI    C1 5921  16.005   8.988  11.530  0.0644  0.0860 -0.0946
  371loPI    C2 5922  16.260   8.680  11.510 -0.0256  0.0047  0.0032
  371loPI    C3 5923  16.333   8.985  11.759  0.0925  0.0899 -0.1348
  371loPI   PO4 5924  15.977   9.065  11.235 -0.0357 -0.0703  0.1808
  371loPI   GL1 5925  16.028   9.068  10.775 -0.0694 -0.1087  0.3174
  371loPI   GL2 5926  15.620   8.996  10.622  0.0699  0.1634 -0.1548
  371loPI   C1A 5927  16.006   9.282  10.380  0.1879 -0.0334 -0.0989
  371loPI   C2A 5928  15.909   9.412   9.969 -0.1556  0.1526 -0.1934
  371loPI   C3A 5929  16.164   9.385   9.580  0.2363  0.1131  0.1585
  371loPI   C4A 5930  16.215   9.471   9.213  0.0155  0.4520  0.2953
  371loPI   C5A 5931  16.063   9.596   8.775  0.0510  0.1529 -0.4132
  371loPI   C6A 5932  16.200   9.819   8.362 -0.0986 -0.1049  0.1533
  371loPI   C1B 5933  15.557   9.162  10.268 -0.0241  0.2394  0.1107
  371loPI   C2B 5934  15.558   9.087   9.847 -0.1188  0.1851 -0.0893
  371loPI   C3B 5935  15.741   9.176   9.481  0.0383  0.3447  0.0601
  371loPI   C4B 5936  15.708   9.241   9.098  0.1687  0.1058 -0.1940
  372loPI    C1 5937   8.914  15.122  11.663 -0.0671  0.1096  0.1395
  372loPI    C2 5938   9.042  14.749  11.727 -0.1799  0.0320 -0.0763
  372loPI    C3 5939   9.142  15.041  11.981  0.2461 -0.0658 -0.1229
  372loPI   PO4 5940   8.633  15.101  11.650  0.0728  0.3205  0.5399
  372loPI   GL1 5941   8.563  14.814  11.243 -0.1110 -0.2324 -0.0604
  372loPI   GL2 5942   8.280  14.813  11.239 -0.0780  0.3410 -0.0490
  372loPI   C1A 5943   8.872  15.064  11.002 -0.0224  0.4150 -0.2681
  372loPI   C2A 5944   8.867  15.104  10.511  0.2445 -0.1106  0.1060
  372loPI   C3A 5945   8.874  15.054  10.027  0.1996  0.0832 -0.0773
  372loPI   C4A 5946   8.834  15.015   9.579 -0.0794 -0.0296  0.0697
  372loPI   C5A 5947   9.004  15.157   9.186  0.2317 -0.1631 -0.0768
  372loPI   C6A 5948   9.218  15.143   8.828 -0.2179 -0.1245 -0.0565
  372loPI   C1B 5949   8.426  14.861  10.771 -0.1667 -0.0140  0.2179
  372loPI   C2B 5950   8.402  14.802  10.253  0.1028  0.0217  0.0016
  372loPI   C3B 5951   8.431  14.749   9.869 -0.0187  0.1711  0.3282
  372loPI   C4B 5952   8.361  14.653   9.484  0.0932 -0.0513 -0.1488
  373loPI    C1 5953  12.335  12.656  11.604 -0.0903 -0.1385 -0.1487
  373loPI    C2 5954  12.105  12.574  11.920 -0.0319  0.0739 -0.0491
  373loPI    C3 5955  12.498  12.629  11.968 -0.0144  0.0543 -0.1669
  373loPI   PO4 5956  12.250  12.483  11.426 -0.0789 -0.3073  0.0501
  373loPI   GL1 5957  12.149  12.412  11.047 -0.1315  0.0738 -0.1194
  373loPI   GL2 5958  12.016  12.110  10.947  0.1165 -0.0870 -0.0139
  373loPI   C1A 5959  11.920  12.557  10.730 -0.0537  0.2474  0.0009
  373loPI   C2A 5960  11.979  12.582  10.316 -0.0568 -0.0489 -0.0523
  373loPI   C3A 5961  11.916  12.486   9.893 -0.0611  0.2865  0.2573
  373loPI   C4A 5962  11.922  12.507   9.401  0.1105 -0.3299  0.1073
  373loPI   C5A 5963  12.245  12.647   9.026 -0.0273 -0.2529 -0.0841
  373loPI   C6A 5964  12.580  12.657   8.641  0.1029 -0.0573  0.0043
  373loPI   C1B 5965  11.900  12.152  10.503 -0.2892  0.1672  0.0644
  373loPI   C2B 5966  11.814  12.001  10.090  0.0855  0.3597  0.2344
  373loPI   C3B 5967  11.872  12.050   9.602  0.0160 -0.1278 -0.2116
  373loPI   C4B 5968  12.068  11.804   9.177 -0.0184 -0.2277 -0.4836
  374loPI    C1 5969   5.912   2.533  11.668 -0.4326  0.1361  0.1595
  374loPI    C2 5970   5.999   2.254  11.941 -0.1423  0.0333 -0.0338
  374loPI    C3 5971   6.114   2.632  12.000 -0.1707  0.0314  0.0345
  374loPI   PO4 5972   5.959   2.390  11.443 -0.0889  0.0604 -0.3488
  374loPI   GL1 5973   6.094   2.497  11.087  0.1941 -0.1787 -0.2425
  374loPI   GL2 5974   6.299   2.921  11.032 -0.2962  0.2915  0.1932
  374loPI   C1A 5975   6.264   2.504  10.783 -0.1205  0.1916  0.3120
  374loPI   C2A 5976   6.408   2.488  10.391  0.1809 -0.0894  0.1090
  374loPI   C3A 5977   6.317   2.537  10.040 -0.0311 -0.2149  0.0800
  374loPI   C4A 5978   6.319   2.458   9.566 -0.1607 -0.2329 -0.1521
  374loPI   C5A 5979   6.143   2.788   9.281 -0.0701 -0.2161  0.1231
  374loPI   C6A 5980   5.773   2.833   9.143 -0.1091  0.0045  0.1939
  374loPI   C1B 5981   6.398   2.994  10.577  0.0396  0.2560  0.0249
  374loPI   C2B 5982   6.342   3.043  10.034 -0.0133 -0.2840  0.1888
  374loPI   C3B 5983   6.337   3.056   9.659 -0.0411  0.2034  0.0464
  374loPI   C4B 5984   6.455   3.283   9.185 -0.1608  0.3011 -0.1686
  375loPI    C1 5985  15.513  14.420  11.463 -0.0519 -0.4086 -0.1388
  375loPI    C2 5986  15.302  14.181  11.705 -0.1192 -0.0746  0.1399
  375loPI    C3 5987  15.579  14.427  11.857  0.0122 -0.0366 -0.1526
  375loPI   PO4 5988  15.552  14.270  11.233 -0.1102  0.0971 -0.1112
  375loPI   GL1 5989  15.698  14.402  10.872 -0.0494  0.2603  0.0556
  375loPI   GL2 5990  15.633  13.961  10.783 -0.1373  0.0312 -0.0445
  375loPI   C1A 5991  15.513  14.339  10.462  0.0179  0.1123  0.0910
  375loPI   C2A 5992  15.622  14.249  10.080 -0.1003 -0.1171 -0.0836
  375loPI   C3A 5993  15.499  14.269   9.566  0.0321  0.0760  0.0632
  375loPI   C4A 5994  15.580  14.175   9.093 -0.2079  0.1980 -0.0904
  375loPI   C5A 5995  15.701  14.061   8.702 -0.1849  0.4191 -0.3490
  375loPI   C6A 5996  15.945  13.889   8.383 -0.0312  0.1559  0.0191
  375loPI   C1B 5997  15.909  13.976  10.461 -0.0206 -0.1361 -0.1310
  375loPI   C2B 5998  15.990  13.878  10.114 -0.1804 -0.3442 -0.0963
  375loPI   C3B 5999  16.008  13.949   9.679 -0.0592 -0.2830 -0.3070
  375loPI   C4B 6000  15.949  13.901   9.329  0.1023 -0.2065  0.0388
  376loPI    C1 6001  14.565  14.047  11.454  0.1870 -0.2192 -0.2331
  376loPI    C2 6002  14.797  14.196  11.744 -0.2129 -0.0811  0.0251
  376loPI    C3 6003  14.655  13.823  11.773  0.0418 -0.1977 -0.1764
  376loPI   PO4 6004  14.551  14.269  11.254 -0.1038  0.1471 -0.1065
  376loPI   GL1 6005  14.475  14.338  10.943  0.2277 -0.1079  0.3153
  376loPI   GL2 6006  14.708  14.594  10.917 -0.1304 -0.2572 -0.0806
  376loPI   C1A 6007  14.211  14.383  10.507 -0.2030 -0.0849  0.4571
  376loPI   C2A 6008  14.219  14.233  10.209  0.3812  0.0447  0.0162
  376loPI   C3A 6009  14.182  14.259   9.818 -0.1349 -0.4029  0.0950
  376loPI   C4A 6010  14.109  14.214   9.330  0.1759  0.0261  0.1843
  376loPI   C5A 6011  14.300  14.237   8.848 -0.0795 -0.1006  0.2552
  376loPI   C6A 6012  14.205  14.577   8.574  0.3877 -0.0111  0.1546
  376loPI   C1B 6013  15.066  14.638  10.558  0.1997 -0.1317 -0.3052
  376loPI   C2B 6014  15.162  14.501  10.168  0.2504 -0.0021 -0.0474
  376loPI   C3B 6015  14.990  14.578   9.838  0.0151 -0.0601 -0.2469
  376loPI   C4B 6016  15.135  14.654   9.473  0.0802 -0.0836  0.4472
  377loPI    C1 6017   5.741  15.158  11.643  0.1911  0.1834  0.2309
  377loPI    C2 6018   5.928  14.969  11.941  0.2758  0.0574  0.0992
  377loPI    C3 6019   5.782  15.337  11.998  0.2196  0.0025  0.3198
  377loPI   PO4 6020   5.467  14.930  11.562 -0.4697  0.0437  0.0257
  377loPI   GL1 6021   5.546  14.653  11.203 -0.3455 -0.3178 -0.1194
  377loPI   GL2 6022   5.749  14.919  11.127 -0.2077 -0.0615 -0.0239
  377loPI   C1A 6023   5.237  14.791  10.941  0.0164  0.2975 -0.0077
  377loPI   C2A 6024   5.211  14.707  10.528  0.3310  0.0122  0.1226
  377loPI   C3A 6025   5.241  14.792  10.136 -0.0903  0.2924  0.0130
  377loPI   C4A 6026   5.080  14.773   9.772  0.1107  0.0625  0.1968
  377loPI   C5A 6027   5.016  14.930   9.327  0.4107  0.1052 -0.1744
  377loPI   C6A 6028   5.153  15.046   8.906  0.0034 -0.0352 -0.0329
  377loPI   C1B 6029   5.735  14.776  10.672 -0.0350  0.0430 -0.0465
  377loPI   C2B 6030   5.735  14.816  10.210 -0.2526  0.1364  0.0522
  377loPI   C3B 6031   5.604  14.997   9.694  0.0666 -0.2165 -0.1549
  377loPI   C4B 6032   5.410  15.319   9.385 -0.0187 -0.1578 -0.2802
  378loPI    C1 6033   6.877   6.120  12.013  0.1148 -0.1314  0.0656
  378loPI    C2 6034   7.084   6.027  12.342  0.2641 -0.0628 -0.0083
  378loPI    C3 6035   6.689   6.085  12.365  0.2464 -0.2280  0.1269
  378loPI   PO4 6036   6.923   6.020  11.788 -0.2366 -0.1422 -0.1438
  378loPI   GL1 6037   6.886   6.131  11.338  0.1214 -0.0639  0.0396
  378loPI   GL2 6038   6.758   5.989  11.198 -0.1275  0.1591  0.0665
  378loPI   C1A 6039   7.290   6.056  11.174 -0.2050  0.0322 -0.0416
  378loPI   C2A 6040   7.445   6.150  10.718 -0.2295 -0.2161  0.0557
  378loPI   C3A 6041   7.403   6.204  10.315  0.0001 -0.0890 -0.1313
  378loPI   C4A 6042   7.357   6.135   9.911  0.1236  0.1660  0.1310
  378loPI   C5A 6043   7.401   6.112   9.445 -0.0303 -0.1037 -0.4643
  378loPI   C6A 6044   7.313   6.130   8.997 -0.2333  0.1476  0.0227
  378loPI   C1B 6045   6.983   6.018  10.789  0.0387 -0.1307 -0.2187
  378loPI   C2B 6046   7.008   5.928  10.446  0.0215  0.0836 -0.3804
  378loPI   C3B 6047   6.919   5.889   9.994  0.4225  0.0540 -0.1289
  378loPI   C4B 6048   7.000   5.837   9.573 -0.1730  0.2762 -0.1169
  379loPI    C1 6049   4.324   4.590  11.829  0.0207 -0.0219 -0.1401
  379loPI    C2 6050   4.351   4.423  12.192  0.0233  0.1087 -0.0796
  379loPI    C3 6051   4.047   4.328  11.950 -0.0288  0.0907 -0.0071
  379loPI   PO4 6052   4.584   4.566  11.752  0.1256 -0.1112  0.0821
  379loPI   GL1 6053   4.889   4.679  11.402 -0.0983 -0.0779  0.1903
  379loPI   GL2 6054   5.109   4.447  11.655 -0.0425 -0.1327 -0.0703
  379loPI   C1A 6055   5.001   4.746  10.978  0.0004  0.0064 -0.0303
  379loPI   C2A 6056   5.082   4.983  10.618  0.1414 -0.0576  0.0253
  379loPI   C3A 6057   5.034   5.030  10.146 -0.1839 -0.1909 -0.2973
  379loPI   C4A 6058   5.125   4.919   9.729  0.0584  0.0325 -0.0854
  379loPI   C5A 6059   4.977   4.705   9.390 -0.1952 -0.2370  0.3542
  379loPI   C6A 6060   4.674   4.413   9.229 -0.1365 -0.1085 -0.3373
  379loPI   C1B 6061   5.354   4.443  11.234 -0.3289 -0.1943  0.2739
  379loPI   C2B 6062   5.557   4.701  10.859  0.1161  0.1583  0.2685
  379loPI   C3B 6063   5.512   4.726  10.423  0.3158 -0.1284 -0.1184
  379loPI   C4B 6064   5.537   4.678   9.915 -0.2029  0.0034 -0.1562
  380loPI    C1 6065  10.803  13.395  12.164 -0.0249 -0.0204  0.0032
  380loPI    C2 6066  11.128  13.499  12.371  0.0067 -0.2294  0.0615
  380loPI    C3 6067  10.767  13.519  12.542 -0.0570  0.3453 -0.1157
  380loPI   PO4 6068  10.833  13.427  11.923 -0.1762 -0.2116 -0.0051
  380loPI   GL1 6069  10.620  13.453  11.519 -0.4732  0.4170 -0.0299
  380loPI   GL2 6070  10.335  13.596  11.490  0.1060  0.0759 -0.1076
  380loPI   C1A 6071  10.561  13.419  11.086  0.1792  0.1358 -0.0620
  380loPI   C2A 6072  10.547  13.383  10.695 -0.1213  0.2842  0.0183
  380loPI   C3A 6073  10.543  13.465  10.307  0.1734 -0.1471 -0.1122
  380loPI   C4A 6074  10.565  13.421   9.788  0.0588  0.0987  0.0741
  380loPI   C5A 6075  10.638  13.063   9.370 -0.1401  0.1615  0.0558
  380loPI   C6A 6076  10.279  12.840   9.066 -0.2883 -0.2867 -0.2138
  380loPI   C1B 6077  10.000  13.543  11.272  0.2627  0.0376  0.1939
  380loPI   C2B 6078  10.140  13.631  10.783 -0.1828 -0.1019  0.0195
  380loPI   C3B 6079  10.084  13.645  10.328  0.1342 -0.2901  0.0073
  380loPI   C4B 6080  10.156  13.708   9.889  0.3288  0.0984 -0.0949
  381loPI    C1 6081  15.227   9.715  11.522  0.0556 -0.0018  0.0366
  381loPI    C2 6082  14.843   9.605  11.531  0.0784 -0.0808  0.0511
  381loPI    C3 6083  14.996   9.822  11.830 -0.0064  0.1253 -0.0534
  381loPI   PO4 6084  15.343   9.612  11.310 -0.1229 -0.4707 -0.1156
  381loPI   GL1 6085  15.368   9.555  10.806 -0.0653  0.0267  0.0705
  381loPI   GL2 6086  15.602   9.510  10.711 -0.0480  0.0721  0.1987
  381loPI   C1A 6087  15.089   9.484  10.477  0.1788  0.0181  0.1408
  381loPI   C2A 6088  15.160   9.409  10.013  0.3183 -0.1278  0.1517
  381loPI   C3A 6089  15.226   9.559   9.546 -0.1273  0.2340  0.2574
  381loPI   C4A 6090  15.244   9.591   9.091 -0.2645 -0.4019  0.0747
  381loPI   C5A 6091  15.361   9.533   8.671  0.1513  0.0137  0.0632
  381loPI   C6A 6092  15.249   9.970   8.360 -0.0558  0.0218  0.3270
  381loPI   C1B 6093  15.605   9.670  10.320 -0.0631  0.0807  0.0475
  381loPI   C2B 6094  15.579   9.728   9.941 -0.0079  0.0521  0.0252
  381loPI   C3B 6095  15.716   9.698   9.557 -0.1610  0.0614 -0.2166
  381loPI   C4B 6096  15.742   9.720   9.171 -0.0100  0.3456 -0.1353
  382loPI    C1 6097   0.547  14.504  11.453 -0.1333 -0.0598  0.1135
  382loPI    C2 6098   0.333  14.342  11.749  0.1706 -0.0087  0.3656
  382loPI    C3 6099   0.660  14.558  11.833  0.2892 -0.0359 -0.0096
  382loPI   PO4 6100   0.595  14.339  11.329 -0.3205 -0.1040  0.1453
  382loPI   GL1 6101   0.794  14.414  10.878 -0.0610  0.1268  0.1738
  382loPI   GL2 6102   0.770  14.073  10.881  0.1331 -0.1880  0.0649
  382loPI   C1A 6103   1.048  14.625  10.599  0.0812  0.0427  0.1072
  382loPI   C2A 6104   1.092  14.606  10.236  0.0428  0.0498  0.0868
  382loPI   C3A 6105   1.070  14.540   9.821 -0.1063 -0.0340  0.2126
  382loPI   C4A 6106   1.076  14.552   9.463  0.1527 -0.2773 -0.1206
  382loPI   C5A 6107   1.276  14.469   9.045  0.0874  0.2449  0.0223
  382loPI   C6A 6108   1.329  14.143   8.811  0.0341  0.3395 -0.3546
  382loPI   C1B 6109   1.064  14.042  10.540 -0.0333  0.3713 -0.1537
  382loPI   C2B 6110   1.121  14.039  10.101  0.2312 -0.1516  0.1438
  382loPI   C3B 6111   1.166  14.024   9.690 -0.0025  0.0876 -0.0109
  382loPI   C4B 6112   1.062  14.001   9.281  0.1199  0.1164 -0.4176
  383loPI    C1 6113   5.966   9.486  11.619  0.1034  0.3754  0.0608
  383loPI    C2 6114   5.898   9.437  12.011 -0.0084 -0.1238 -0.0140
  383loPI    C3 6115   6.251   9.333  11.855  0.0157  0.0204 -0.0565
  383loPI   PO4 6116   5.840   9.713  11.562  0.0455  0.0452  0.0786
  383loPI   GL1 6117   6.006   9.967  11.279  0.0498 -0.0361  0.2572
  383loPI   GL2 6118   5.724   9.933  11.018 -0.0942  0.4456 -0.0167
  383loPI   C1A 6119   6.265  10.156  10.890 -0.2986  0.0883 -0.0711
  383loPI   C2A 6120   6.249  10.207  10.528 -0.1907 -0.0990 -0.2089
  383loPI   C3A 6121   6.251  10.180  10.030 -0.4229  0.1259 -0.0797
  383loPI   C4A 6122   6.210  10.030   9.613  0.1868 -0.3418  0.1987
  383loPI   C5A 6123   6.204   9.669   9.373 -0.2416  0.1338 -0.0549
  383loPI   C6A 6124   6.311   9.532   8.967  0.3439  0.0642  0.0629
  383loPI   C1B 6125   5.851   9.935  10.601  0.2214  0.1622  0.1016
  383loPI   C2B 6126   5.731  10.023  10.212  0.3392 -0.0631  0.2510
  383loPI   C3B 6127   5.713   9.856   9.756 -0.3649  0.0528  0.2434
  383loPI   C4B 6128   5.689   9.897   9.330  0.1245 -0.0766  0.3769
  384loPI    C1 6129  10.846  14.637  11.930  0.1131  0.1206  0.1439
  384loPI    C2 6130  10.481  14.664  11.769  0.1324 -0.0632  0.0672
  384loPI    C3 6131  10.546  14.799  12.140 -0.0963 -0.3392  0.2118
  384loPI   PO4 6132  10.936  14.666  11.617  0.2587 -0.0272 -0.1073
  384loPI   GL1 6133  10.643  14.471  11.332  0.0387  0.0276 -0.1618
  384loPI   GL2 6134  10.585  14.271  11.410 -0.0947 -0.0446  0.0109
  384loPI   C1A 6135  10.645  14.410  10.862  0.0790  0.0462 -0.0138
  384loPI   C2A 6136  10.624  14.471  10.415 -0.0325 -0.1070 -0.1301
  384loPI   C3A 6137  10.561  14.419   9.937  0.1009 -0.1197 -0.2170
  384loPI   C4A 6138  10.590  14.421   9.470 -0.0381  0.0479  0.0909
  384loPI   C5A 6139  10.153  14.468   9.249  0.0596 -0.1409 -0.0959
  384loPI   C6A 6140   9.885  14.446   8.878  0.0220 -0.1925  0.1624
  384loPI   C1B 6141  10.190  14.086  11.236  0.1823 -0.1442  0.0487
  384loPI   C2B 6142  10.110  14.173  10.763  0.5840 -0.0472 -0.1488
  384loPI   C3B 6143  10.106  14.144  10.330  0.1192 -0.2740 -0.1097
  384loPI   C4B 6144  10.113  14.240   9.883 -0.3021 -0.1778 -0.2891
  385loPI    C1 6145  10.398  15.677  11.993 -0.2026  0.1005  0.2897
  385loPI    C2 6146  10.414  16.073  12.052  0.0263  0.1091  0.1798
  385loPI    C3 6147  10.470  15.822  12.359 -0.0081  0.1611  0.2288
  385loPI   PO4 6148  10.504  15.524  11.710  0.4837  0.2381 -0.0042
  385loPI   GL1 6149  10.356  15.180  11.482 -0.0521  0.2042 -0.2456
  385loPI   GL2 6150  10.564  14.957  11.301  0.1458  0.0763 -0.3717
  385loPI   C1A 6151  10.239  15.165  11.024  0.0493  0.2593 -0.1929
  385loPI   C2A 6152  10.202  15.150  10.566 -0.3390  0.1307  0.3241
  385loPI   C3A 6153  10.225  15.232  10.123 -0.0728 -0.2623  0.1441
  385loPI   C4A 6154  10.231  15.324   9.744 -0.2330  0.1998  0.0570
  385loPI   C5A 6155  10.053  15.366   9.308 -0.2003 -0.0134  0.3789
  385loPI   C6A 6156   9.820  15.446   8.918 -0.0755 -0.0202 -0.1068
  385loPI   C1B 6157  10.659  14.936  10.890  0.2016  0.1833 -0.1631
  385loPI   C2B 6158  10.690  14.964  10.446  0.1292  0.0491  0.0409
  385loPI   C3B 6159  10.626  14.964  10.033 -0.0424  0.0804 -0.0051
  385loPI   C4B 6160  10.685  15.100   9.671  0.2727 -0.1803  0.1223
  386loPI    C1 6161   2.159  16.399  11.554  0.0444  0.0046 -0.0130
  386loPI    C2 6162   1.785  16.312  11.666  0.1469 -0.2330  0.1537
  386loPI    C3 6163   1.967  16.635  11.815 -0.0264 -0.0575 -0.0085
  386loPI   PO4 6164   2.150  16.404  11.351 -0.1211 -0.0097  0.1260
  386loPI   GL1 6165   1.773  16.404  11.013  0.1443 -0.1376  0.0176
  386loPI   GL2 6166   1.958  16.632  10.900  0.0470  0.1541  0.0174
  386loPI   C1A 6167   1.563  16.320  10.684 -0.3095 -0.1673  0.0938
  386loPI   C2A 6168   1.661  16.296  10.263  0.1514  0.0724 -0.2321
  386loPI   C3A 6169   1.685  16.317   9.893 -0.1116 -0.1496  0.0642
  386loPI   C4A 6170   1.753  16.310   9.426 -0.1963 -0.1282  0.1110
  386loPI   C5A 6171   1.594  16.369   9.093 -0.0200 -0.0970  0.2423
  386loPI   C6A 6172   1.388  16.278   8.758 -0.2699  0.0324 -0.1134
  386loPI   C1B 6173   2.020  16.576  10.521 -0.3187 -0.0544  0.0450
  386loPI   C2B 6174   2.137  16.586  10.077 -0.0256 -0.0555  0.2907
  386loPI   C3B 6175   2.224  16.516   9.606  0.3756 -0.0350  0.0825
  386loPI   C4B 6176   2.237  16.522   9.116  0.2362 -0.0721  0.2191
  387loPI    C1 6177   4.671  13.306  11.846 -0.1756  0.0528  0.0826
  387loPI    C2 6178   4.650  13.567  12.149 -0.2086 -0.0934  0.2076
  387loPI    C3 6179   4.577  13.179  12.214  0.0702 -0.1712  0.0709
  387loPI   PO4 6180   4.660  13.416  11.556  0.0552  0.3761  0.2018
  387loPI   GL1 6181   4.421  13.385  11.230 -0.0388 -0.0534 -0.0118
  387loPI   GL2 6182   4.259  13.346  11.033 -0.0262 -0.1611  0.2344
  387loPI   C1A 6183   4.630  13.531  10.820  0.2157 -0.0411 -0.1504
  387loPI   C2A 6184   4.616  13.353  10.509  0.0489 -0.1437  0.1428
  387loPI   C3A 6185   4.668  13.336   9.971  0.1391 -0.1925  0.2050
  387loPI   C4A 6186   4.671  13.312   9.484 -0.1082 -0.1632  0.1951
  387loPI   C5A 6187   4.978  13.547   9.157 -0.1405  0.0205 -0.3087
  387loPI   C6A 6188   5.298  13.712   8.836  0.4057  0.1087 -0.4890
  387loPI   C1B 6189   4.123  13.190  10.595 -0.0255  0.4660  0.0666
  387loPI   C2B 6190   4.198  13.096  10.130  0.1570 -0.0140  0.1153
  387loPI   C3B 6191   4.146  13.115   9.757  0.0539  0.2703  0.1424
  387loPI   C4B 6192   4.192  13.065   9.270  0.0328 -0.2432  0.0416
  388loPI    C1 6193   6.276  16.686  11.704 -0.1274  0.1325 -0.3048
  388loPI    C2 6194   5.955  16.670  11.942  0.0309  0.1939 -0.0839
  388loPI    C3 6195   6.100  16.335  11.779 -0.1011  0.1566 -0.1252
  388loPI   PO4 6196   6.254  16.877  11.543 -0.1362 -0.0557 -0.1832
  388loPI   GL1 6197   6.171  16.984  11.099 -0.1262 -0.0960 -0.0169
  388loPI   GL2 6198   6.447  16.986  10.875  0.0770  0.0409 -0.2351
  388loPI   C1A 6199   5.958  17.056  10.761  0.0597  0.0722  0.2994
  388loPI   C2A 6200   5.879  17.132  10.304  0.1512 -0.1909  0.1075
  388loPI   C3A 6201   5.874  17.051   9.842 -0.0136  0.1638 -0.0907
  388loPI   C4A 6202   5.953  16.921   9.450 -0.3062 -0.0492 -0.1714
  388loPI   C5A 6203   5.876  16.740   9.003  0.1376  0.1298  0.1263
  388loPI   C6A 6204   5.478  16.400   8.873 -0.0143 -0.2198  0.1885
  388loPI   C1B 6205   6.488  17.078  10.514  0.4389 -0.1835  0.2150
  388loPI   C2B 6206   6.430  17.034  10.139 -0.4132 -0.3576  0.3138
  388loPI   C3B 6207   6.364  17.162   9.750  0.3476 -0.1278  0.2094
  388loPI   C4B 6208   6.389  17.129   9.284 -0.1436  0.0654  0.1487
  389loPI    C1 6209  13.041   1.384  12.009 -0.2053  0.0734  0.2040
  389loPI    C2 6210  13.222   1.670  12.222  0.0618 -0.0385  0.1323
  389loPI    C3 6211  13.387   1.307  12.195  0.0376 -0.0236 -0.2724
  389loPI   PO4 6212  13.051   1.420  11.814 -0.0364 -0.0457  0.2079
  389loPI   GL1 6213  12.863   1.409  11.343 -0.1441  0.1572 -0.2297
  389loPI   GL2 6214  12.648   1.565  11.162 -0.1762  0.0158  0.2039
  389loPI   C1A 6215  12.917   1.214  10.900 -0.0430 -0.2234 -0.1271
  389loPI   C2A 6216  13.034   1.069  10.456  0.0839 -0.0274  0.2990
  389loPI   C3A 6217  13.049   0.975   9.991  0.4100 -0.1066 -0.3980
  389loPI   C4A 6218  13.031   1.058   9.509 -0.1716 -0.1696 -0.0591
  389loPI   C5A 6219  13.010   0.770   9.085  0.4064 -0.1677  0.0325
  389loPI   C6A 6220  12.670   0.495   9.081  0.0240  0.0803 -0.3333
  389loPI   C1B 6221  12.563   1.480  10.777 -0.0724 -0.2647  0.1187
  389loPI   C2B 6222  12.622   1.394  10.407 -0.2079 -0.1235 -0.2995
  389loPI   C3B 6223  12.634   1.269   9.960 -0.2687  0.2089 -0.0601
  389loPI   C4B 6224  12.614   1.309   9.505  0.0616  0.1552 -0.1368
  390loPI    C1 6225  10.072  14.600  12.163  0.0946 -0.0460 -0.1684
  390loPI    C2 6226   9.780  14.747  12.394  0.2344 -0.0906  0.0395
  390loPI    C3 6227  10.162  14.833  12.475  0.2980 -0.2933 -0.0386
  390loPI   PO4 6228   9.990  14.630  11.829 -0.3254 -0.0682  0.2389
  390loPI   GL1 6229   9.882  14.903  11.554  0.0407 -0.0291  0.0974
  390loPI   GL2 6230   9.822  15.131  11.318 -0.0962  0.1477  0.0087
  390loPI   C1A 6231  10.088  14.719  11.218 -0.1893  0.2286  0.1963
  390loPI   C2A 6232  10.219  14.705  10.760  0.1949 -0.0838 -0.0616
  390loPI   C3A 6233  10.156  14.702  10.264 -0.2557  0.0062  0.0611
  390loPI   C4A 6234  10.234  14.752   9.770  0.2056 -0.2729  0.3711
  390loPI   C5A 6235  10.309  14.925   9.375  0.0433  0.1269 -0.1066
  390loPI   C6A 6236   9.998  14.967   9.028 -0.0204 -0.1023  0.4537
  390loPI   C1B 6237   9.776  14.971  10.972  0.2799  0.1075  0.0190
  390loPI   C2B 6238   9.714  14.964  10.624  0.1320  0.0125  0.2702
  390loPI   C3B 6239   9.769  14.954  10.161 -0.1425 -0.0876 -0.0899
  390loPI   C4B 6240   9.801  15.060   9.686  0.0418 -0.2654 -0.1316
  391loPI    C1 6241   0.650   9.398  11.277  0.0647 -0.1757 -0.0745
  391loPI    C2 6242   0.712   9.371  11.671 -0.2749  0.1505  0.0075
  391loPI    C3 6243   0.576   9.055  11.467  0.0895 -0.0796  0.1108
  391loPI   PO4 6244   0.834   9.545  11.178  0.3793 -0.3794  0.2747
  391loPI   GL1 6245   1.036   9.648  10.901 -0.0858  0.0212 -0.0959
  391loPI   GL2 6246   1.385   9.673  10.940 -0.0111 -0.1590  0.0893
  391loPI   C1A 6247   1.149   9.606  10.450 -0.1982 -0.0540  0.0232
  391loPI   C2A 6248   1.215   9.574  10.048 -0.1040 -0.0822 -0.0137
  391loPI   C3A 6249   1.142   9.628   9.671  0.1641 -0.1865  0.2013
  391loPI   C4A 6250   1.086   9.648   9.227 -0.2523 -0.1746 -0.1912
  391loPI   C5A 6251   0.987   9.616   8.832  0.2384 -0.3235 -0.1391
  391loPI   C6A 6252   0.924   9.776   8.434 -0.1515  0.0360 -0.2331
  391loPI   C1B 6253   1.614   9.731  10.540 -0.1390  0.0228 -0.3299
  391loPI   C2B 6254   1.653   9.872  10.249 -0.1899 -0.1242 -0.4518
  391loPI   C3B 6255   1.590   9.753   9.772  0.0375 -0.0486 -0.0549
  391loPI   C4B 6256   1.744   9.849   9.321 -0.1666 -0.1912 -0.1258
  392loPI    C1 6257  15.505   7.548  11.059  0.0562 -0.2937  0.0678
  392loPI    C2 6258  15.203   7.574  10.798 -0.0339 -0.0809  0.1908
  392loPI    C3 6259  15.203   7.286  11.076 -0.0139 -0.2144  0.0533
  392loPI   PO4 6260  15.693   7.623  10.896 -0.0682  0.2074 -0.1396
  392loPI   GL1 6261  15.642   7.416  10.600 -0.0233 -0.0556 -0.1464
  392loPI   GL2 6262  15.837   7.099  10.464  0.1378  0.0672 -0.0486
  392loPI   C1A 6263  15.353   7.464  10.295 -0.0245  0.1795  0.1090
  392loPI   C2A 6264  15.532   7.471   9.878 -0.0133 -0.0884  0.1450
  392loPI   C3A 6265  15.555   7.487   9.465 -0.3660 -0.1898 -0.2540
  392loPI   C4A 6266  15.526   7.119   9.217 -0.0105  0.1805  0.0829
  392loPI   C5A 6267  15.348   6.775   8.924 -0.1226 -0.0354 -0.1579
  392loPI   C6A 6268  15.585   6.710   8.541 -0.3197  0.1317 -0.2810
  392loPI   C1B 6269  15.906   7.158   9.995 -0.1236 -0.0742 -0.1787
  392loPI   C2B 6270  15.975   7.192   9.516  0.0637  0.2147  0.2655
  392loPI   C3B 6271  15.917   7.464   9.144 -0.0787 -0.1992  0.0812
  392loPI   C4B 6272  15.629   7.577   8.927 -0.0776 -0.1519 -0.0742
  393loPI    C1 6273  16.694   4.089  11.420  0.0945 -0.2704 -0.1785
  393loPI    C2 6274  16.864   3.778  11.607  0.0997 -0.0863  0.1309
  393loPI    C3 6275  16.503   3.906  11.720  0.0477 -0.0496 -0.0716
  393loPI   PO4 6276  16.606   4.162  11.117 -0.0350 -0.1600 -0.0246
  393loPI   GL1 6277  16.724   4.113  10.742 -0.0485 -0.1072 -0.1011
  393loPI   GL2 6278  16.805   3.778  10.706  0.0438  0.1687 -0.0910
  393loPI   C1A 6279  16.568   4.159  10.326 -0.1285  0.0505 -0.0983
  393loPI   C2A 6280  16.772   4.141   9.996  0.0105  0.0606 -0.0718
  393loPI   C3A 6281  16.906   4.093   9.615  0.0156 -0.0602 -0.0366
  393loPI   C4A 6282  16.942   4.083   9.151 -0.0187 -0.0481 -0.0006
  393loPI   C5A 6283  16.792   3.760   8.968 -0.1821  0.0537  0.1508
  393loPI   C6A 6284  16.759   3.405   8.644 -0.1586 -0.1982  0.2108
  393loPI   C1B 6285  16.687   3.693  10.298  0.4537 -0.1708  0.1520
  393loPI   C2B 6286  16.717   3.662   9.831  0.1712 -0.1808  0.0823
  393loPI   C3B 6287  16.931   3.612   9.401  0.0511 -0.1119 -0.0543
  393loPI   C4B 6288  17.118   3.225   9.012  0.0075 -0.0172 -0.6966
  394loPI    C1 6289   7.248  16.427  11.428 -0.1948  0.0706 -0.2442
  394loPI    C2 6290   7.120  16.728  11.659 -0.0781 -0.0024 -0.0828
  394loPI    C3 6291   7.510  16.686  11.583 -0.1336  0.1522 -0.4794
  394loPI   PO4 6292   7.153  16.405  11.241  0.2901 -0.0951 -0.0507
  394loPI   GL1 6293   7.038  16.140  10.931  0.0053 -0.2963 -0.3935
  394loPI   GL2 6294   6.691  16.080  11.140  0.2021 -0.1074 -0.0931
  394loPI   C1A 6295   7.073  16.102  10.546 -0.0656 -0.3475 -0.1822
  394loPI   C2A 6296   7.148  16.179  10.173 -0.1924 -0.0136 -0.5549
  394loPI   C3A 6297   7.106  16.008   9.776  0.2208 -0.0667  0.1239
  394loPI   C4A 6298   7.234  16.042   9.344 -0.1677  0.0177  0.2227
  394loPI   C5A 6299   7.444  16.177   9.073  0.2622 -0.2458 -0.3138
  394loPI   C6A 6300   7.806  16.568   8.967 -0.3057 -0.0638 -0.0445
  394loPI   C1B 6301   6.559  15.929  10.795 -0.1493  0.1017 -0.2825
  394loPI   C2B 6302   6.651  15.929  10.372 -0.2166 -0.2057  0.1208
  394loPI   C3B 6303   6.618  15.892  10.009 -0.3551 -0.3840  0.3407
  394loPI   C4B 6304   6.690  15.823   9.556  0.4487 -0.3472 -0.1223
  395loPI    C1 6305  12.234   4.229  11.686 -0.0826  0.3066  0.0819
  395loPI    C2 6306  12.150   4.568  11.881 -0.3784  0.0828  0.3522
  395loPI    C3 6307  12.345   4.273  12.068  0.3952  0.3121 -0.0502
  395loPI   PO4 6308  11.998   4.195  11.548  0.1423  0.3884  0.0275
  395loPI   GL1 6309  12.136   4.097  11.125  0.0185  0.1052  0.2919
  395loPI   GL2 6310  12.042   4.320  10.962 -0.1617  0.0505 -0.0728
  395loPI   C1A 6311  12.017   3.714  10.907 -0.0712 -0.1458 -0.1115
  395loPI   C2A 6312  11.977   3.776  10.432  0.2154  0.2805  0.1119
  395loPI   C3A 6313  11.816   3.954   9.987  0.0471  0.1033 -0.0992
  395loPI   C4A 6314  11.888   3.927   9.634  0.4382 -0.0798 -0.3435
  395loPI   C5A 6315  11.837   3.902   9.194 -0.0577 -0.0864  0.0682
  395loPI   C6A 6316  11.626   4.144   8.834  0.3401  0.0476  0.4210
  395loPI   C1B 6317  12.148   4.195  10.645  0.0917 -0.0951  0.0267
  395loPI   C2B 6318  12.210   4.224  10.240  0.2251 -0.2076  0.0708
  395loPI   C3B 6319  12.325   4.256   9.837  0.2820  0.1711  0.0981
  395loPI   C4B 6320  12.312   4.140   9.406 -0.3097  0.1666  0.1838
  396loPI    C1 6321  11.483   5.389  11.591  0.1403 -0.0240  0.1584
  396loPI    C2 6322  11.198   5.118  11.659  0.0877  0.0161  0.0985
  396loPI    C3 6323  11.343   5.335  11.961  0.1265 -0.0750  0.1457
  396loPI   PO4 6324  11.413   5.570  11.445 -0.0387  0.0531  0.0812
  396loPI   GL1 6325  10.983   5.651  11.211 -0.0477 -0.1865  0.1543
  396loPI   GL2 6326  10.882   5.356  11.379 -0.1783  0.1044 -0.1721
  396loPI   C1A 6327  10.935   5.570  10.770 -0.0599  0.1232 -0.1958
  396loPI   C2A 6328  10.887   5.546  10.370 -0.1784  0.0468  0.2487
  396loPI   C3A 6329  10.867   5.475   9.885 -0.3061 -0.2888 -0.1977
  396loPI   C4A 6330  10.929   5.428   9.476 -0.4116  0.1984  0.0198
  396loPI   C5A 6331  10.663   5.485   9.081 -0.0109 -0.0230  0.0767
  396loPI   C6A 6332  10.182   5.428   9.128  0.1719 -0.1065  0.0076
  396loPI   C1B 6333  11.018   5.120  11.001  0.2430 -0.0210 -0.0024
  396loPI   C2B 6334  10.933   5.049  10.543  0.0339 -0.2812 -0.0275
  396loPI   C3B 6335  10.941   4.980  10.115 -0.3721 -0.3694 -0.3639
  396loPI   C4B 6336  10.850   4.897   9.662  0.1096  0.1969 -0.2032
  397loPI    C1 6337  15.220  10.399  11.281 -0.1163  0.0821 -0.1940
  397loPI    C2 6338  14.826  10.423  11.217 -0.1174  0.1249 -0.1710
  397loPI    C3 6339  14.977  10.117  11.426 -0.1322  0.0773 -0.2301
  397loPI   PO4 6340  15.316  10.471  10.945 -0.1023 -0.1437 -0.1139
  397loPI   GL1 6341  15.611  10.667  10.572 -0.2489  0.0902 -0.0399
  397loPI   GL2 6342  15.360  10.552  10.407 -0.0072 -0.2241 -0.1168
  397loPI   C1A 6343  15.707  10.725  10.099  0.0524  0.3302 -0.1476
  397loPI   C2A 6344  15.622  10.801   9.658 -0.0514 -0.1712 -0.0804
  397loPI   C3A 6345  15.863  10.795   9.227 -0.1690  0.2325  0.2371
  397loPI   C4A 6346  16.081  10.850   8.822 -0.1763 -0.0502 -0.1048
  397loPI   C5A 6347  16.400  10.645   8.666  0.1253  0.0511 -0.1236
  397loPI   C6A 6348  16.696  10.628   8.436 -0.0136 -0.0213  0.1349
  397loPI   C1B 6349  15.178  10.448  10.001 -0.0935  0.0170  0.3766
  397loPI   C2B 6350  15.215  10.586   9.478 -0.1575 -0.2059  0.1308
  397loPI   C3B 6351  15.410  10.499   9.125 -0.1652  0.3694 -0.1134
  397loPI   C4B 6352  15.681  10.530   8.807  0.1229 -0.0210  0.3909
  398loPI    C1 6353   2.467  13.272  11.831  0.1457  0.2580  0.0377
  398loPI    C2 6354   2.128  13.468  11.912  0.0130  0.1152 -0.1617
  398loPI    C3 6355   2.272  13.201  12.173 -0.0745  0.1132 -0.1146
  398loPI   PO4 6356   2.348  13.133  11.535  0.0947  0.1247  0.0868
  398loPI   GL1 6357   2.026  13.071  11.162 -0.1647 -0.4660  0.0625
  398loPI   GL2 6358   2.278  13.006  10.958  0.1206  0.1255 -0.1100
  398loPI   C1A 6359   1.863  12.974  10.724  0.1339 -0.3352  0.0006
  398loPI   C2A 6360   1.906  12.900  10.355 -0.1125  0.2550 -0.0082
  398loPI   C3A 6361   1.925  12.927   9.813 -0.2920 -0.1955 -0.0120
  398loPI   C4A 6362   1.933  12.954   9.471  0.2025  0.0830  0.1073
  398loPI   C5A 6363   1.873  13.024   9.031  0.3487  0.0744 -0.0425
  398loPI   C6A 6364   2.260  12.924   8.741  0.0203 -0.0695  0.0010
  398loPI   C1B 6365   2.339  13.231  10.508 -0.0719  0.0694 -0.1116
  398loPI   C2B 6366   2.301  13.143  10.062  0.1228 -0.1681 -0.0806
  398loPI   C3B 6367   2.424  13.213   9.638  0.0992 -0.1289 -0.0404
  398loPI   C4B 6368   2.354  13.075   9.195 -0.1774 -0.0717  0.0745
  399loPI    C1 6369   4.978   3.359  11.705 -0.0854  0.0538  0.0228
  399loPI    C2 6370   5.043   3.507  12.071 -0.0841 -0.0122  0.0495
  399loPI    C3 6371   5.347   3.356  11.859 -0.1138 -0.1294  0.0898
  399loPI   PO4 6372   4.799   3.621  11.648 -0.1302  0.0260 -0.0468
  399loPI   GL1 6373   4.750   3.656  11.243 -0.0806 -0.0687 -0.2245
  399loPI   GL2 6374   4.967   3.408  11.150 -0.0845  0.2898 -0.0154
  399loPI   C1A 6375   4.833   3.803  10.818  0.1489 -0.0663  0.1047
  399loPI   C2A 6376   5.002   3.998  10.471  0.2433 -0.0389 -0.1452
  399loPI   C3A 6377   5.036   3.990  10.099 -0.2440 -0.1972 -0.2428
  399loPI   C4A 6378   5.081   3.822   9.648  0.1158 -0.1112 -0.1275
  399loPI   C5A 6379   5.167   3.730   9.222 -0.0949 -0.2915 -0.2174
  399loPI   C6A 6380   5.068   3.737   8.786  0.2657  0.2930  0.2720
  399loPI   C1B 6381   4.932   3.321  10.694 -0.0916 -0.0893  0.3104
  399loPI   C2B 6382   5.019   3.313  10.274 -0.0407  0.3406  0.1649
  399loPI   C3B 6383   5.018   3.289   9.801  0.1722  0.0654  0.0597
  399loPI   C4B 6384   5.023   3.229   9.361  0.0069  0.1403  0.3125
  400loPI    C1 6385   4.991   0.449  11.656  0.0597  0.2209  0.0382
  400loPI    C2 6386   4.943   0.072  11.531  0.0557  0.2382 -0.0127
  400loPI    C3 6387   4.762   0.197  11.865  0.0867  0.1846  0.0243
  400loPI   PO4 6388   4.882   0.593  11.376  0.2836  0.1430  0.1815
  400loPI   GL1 6389   4.794   0.794  11.051  0.1987 -0.4058 -0.0719
  400loPI   GL2 6390   4.423   0.719  11.067 -0.1640 -0.2432 -0.3881
  400loPI   C1A 6391   4.858   0.711  10.478 -0.0655  0.1378 -0.2720
  400loPI   C2A 6392   4.891   0.759  10.078 -0.2274  0.0675  0.3739
  400loPI   C3A 6393   4.976   0.823   9.636  0.0505 -0.1040 -0.2266
  400loPI   C4A 6394   5.077   0.695   9.253  0.1741  0.1005  0.2997
  400loPI   C5A 6395   4.971   0.386   8.956  0.3154 -0.2247 -0.3313
  400loPI   C6A 6396   4.586   0.114   8.996 -0.0357 -0.1612 -0.2031
  400loPI   C1B 6397   4.442   0.930  10.625 -0.3772 -0.4316 -0.0083
  400loPI   C2B 6398   4.509   1.022  10.245  0.1742  0.1595  0.0695
  400loPI   C3B 6399   4.533   1.063   9.854  0.0947  0.1545  0.3627
  400loPI   C4B 6400   4.557   1.055   9.471  0.1363 -0.0027  0.2214
  401loPI    C1 6401  16.897   2.514  11.634 -0.2452  0.1406 -0.1378
  401loPI    C2 6402  17.218   2.557  11.868 -0.0479  0.0162 -0.3812
  401loPI    C3 6403  17.079   2.191  11.785 -0.3590  0.0752 -0.1392
  401loPI   PO4 6404  16.923   2.583  11.452 -0.1021 -0.2193 -0.1007
  401loPI   GL1 6405  16.796   2.546  11.084  0.3366 -0.2505  0.0714
  401loPI   GL2 6406  17.062   2.655  11.000 -0.1136 -0.0167 -0.0240
  401loPI   C1A 6407  16.618   2.623  10.672  0.2879  0.2923 -0.1512
  401loPI   C2A 6408  16.658   2.479  10.364 -0.0004  0.0484 -0.1237
  401loPI   C3A 6409  16.612   2.574   9.917 -0.2365 -0.0467 -0.3025
  401loPI   C4A 6410  16.697   2.601   9.545  0.1438 -0.0938  0.2348
  401loPI   C5A 6411  16.778   2.635   9.154  0.0258 -0.1695  0.1425
  401loPI   C6A 6412  17.088   2.368   8.853 -0.1678 -0.0379 -0.2947
  401loPI   C1B 6413  17.067   2.395  10.665  0.0047 -0.1376 -0.2262
  401loPI   C2B 6414  17.149   2.255  10.241  0.0713 -0.0796  0.0965
  401loPI   C3B 6415  17.092   2.294   9.811 -0.0637  0.1348 -0.0393
  401loPI   C4B 6416  17.207   2.259   9.354 -0.0818 -0.0859 -0.0479
  402loPI    C1 6417   1.526  10.558  11.357 -0.1139 -0.1158  0.0224
  402loPI    C2 6418   1.569  10.642  11.746  0.2170 -0.1313 -0.0082
  402loPI    C3 6419   1.353  10.325  11.632  0.1695 -0.1621  0.1655
  402loPI   PO4 6420   1.486  10.757  11.219 -0.3116 -0.0168  0.2316
  402loPI   GL1 6421   1.546  10.997  10.865  0.0636  0.4270 -0.1224
  402loPI   GL2 6422   1.703  11.315  10.821  0.0460  0.1612  0.1280
  402loPI   C1A 6423   1.658  10.888  10.401  0.0872 -0.0066 -0.0360
  402loPI   C2A 6424   1.723  10.896   9.938  0.0571  0.3903 -0.0720
  402loPI   C3A 6425   1.836  10.846   9.536  0.1477  0.4495  0.2096
  402loPI   C4A 6426   1.824  10.824   9.070 -0.2355 -0.5357 -0.0895
  402loPI   C5A 6427   2.170  10.989   8.813 -0.1902 -0.1313  0.1289
  402loPI   C6A 6428   2.500  11.087   8.552 -0.1125 -0.1076 -0.3168
  402loPI   C1B 6429   1.763  11.395  10.413  0.0158 -0.1689  0.1112
  402loPI   C2B 6430   1.751  11.413   9.985  0.0162  0.4179  0.3822
  402loPI   C3B 6431   1.867  11.392   9.509 -0.4015 -0.3307 -0.2899
  402loPI   C4B 6432   1.936  11.372   9.093  0.0664  0.2730 -0.1869
  403loPI    C1 6433  16.708   8.018  10.864  0.1321  0.1948 -0.0235
  403loPI    C2 6434  16.570   7.917  11.225 -0.1063  0.3166 -0.0787
  403loPI    C3 6435  16.961   7.976  11.170 -0.0671  0.2827  0.1559
  403loPI   PO4 6436  16.420   8.213  10.801  0.1486  0.2563 -0.2497
  403loPI   GL1 6437  16.128   8.077  10.507 -0.0324 -0.1672  0.0660
  403loPI   GL2 6438  16.393   8.005  10.371 -0.1425 -0.4553 -0.3749
  403loPI   C1A 6439  15.985   8.256  10.166  0.0543  0.1304 -0.2098
  403loPI   C2A 6440  16.049   8.293   9.731 -0.1658 -0.1515 -0.0151
  403loPI   C3A 6441  16.123   8.388   9.271  0.0839 -0.0687 -0.0362
  403loPI   C4A 6442  16.089   8.534   8.934  0.1365  0.1082 -0.0331
  403loPI   C5A 6443  15.813   8.783   8.672 -0.1266 -0.3331 -0.0666
  403loPI   C6A 6444  15.783   9.256   8.602  0.0492  0.0521 -0.2588
  403loPI   C1B 6445  16.521   8.079   9.896 -0.0974 -0.3556 -0.0719
  403loPI   C2B 6446  16.544   8.181   9.387 -0.2350  0.0630 -0.0057
  403loPI   C3B 6447  16.598   8.167   8.923  0.1387 -0.0322  0.2865
  403loPI   C4B 6448  16.480   8.155   8.537  0.0141 -0.0723  0.1946
  404loPI    C1 6449   3.555  10.408  11.688  0.0387  0.3695  0.0153
  404loPI    C2 6450   3.801  10.639  11.903 -0.0036  0.1580  0.2973
  404loPI    C3 6451   3.714  10.269  12.028 -0.2849  0.1476  0.0814
  404loPI   PO4 6452   3.628  10.458  11.454 -0.0014  0.1455 -0.0710
  404loPI   GL1 6453   3.435  10.349  11.151  0.2485  0.0436 -0.0895
  404loPI   GL2 6454   3.175  10.441  10.985 -0.2633  0.2131 -0.0135
  404loPI   C1A 6455   3.530  10.144  10.748 -0.0097  0.0852 -0.0829
  404loPI   C2A 6456   3.475  10.209  10.284 -0.0376  0.0336 -0.1762
  404loPI   C3A 6457   3.531  10.230   9.826  0.0075  0.1146 -0.3144
  404loPI   C4A 6458   3.614  10.101   9.458  0.1837 -0.1426 -0.0672
  404loPI   C5A 6459   3.625   9.792   9.108 -0.1141  0.0200 -0.2471
  404loPI   C6A 6460   3.830   9.887   8.788 -0.3588 -0.0380  0.0669
  404loPI   C1B 6461   3.122  10.544  10.574 -0.1077  0.2208 -0.1422
  404loPI   C2B 6462   2.926  10.500  10.232 -0.1525  0.0376  0.2387
  404loPI   C3B 6463   3.081  10.560   9.887 -0.0186 -0.0906  0.1093
  404loPI   C4B 6464   3.174  10.482   9.487  0.0104 -0.0059  0.0085
  405loPI    C1 6465  11.294   9.159  11.418  0.1046 -0.0213 -0.1967
  405loPI    C2 6466  11.198   8.771  11.438  0.1803 -0.0423 -0.2336
  405loPI    C3 6467  11.169   9.001  11.764  0.2462 -0.1055 -0.1831
  405loPI   PO4 6468  11.205   9.183  11.147  0.3057 -0.2235  0.3902
  405loPI   GL1 6469  11.172   9.437  10.919  0.1597  0.1104  0.0928
  405loPI   GL2 6470  11.414   9.187  10.711 -0.2493 -0.1931 -0.4524
  405loPI   C1A 6471  10.950   9.471  10.590  0.0090  0.3218  0.3898
  405loPI   C2A 6472  10.961   9.467  10.089 -0.2398  0.0497 -0.2356
  405loPI   C3A 6473  10.792   9.397   9.765 -0.0405 -0.0642 -0.0991
  405loPI   C4A 6474  10.611   9.431   9.342  0.0809  0.0309 -0.0717
  405loPI   C5A 6475  10.792   9.339   8.933  0.1612  0.2034 -0.0702
  405loPI   C6A 6476  10.881   9.398   8.540  0.1333  0.2014 -0.1445
  405loPI   C1B 6477  11.387   9.085  10.247 -0.0943 -0.0172 -0.0219
  405loPI   C2B 6478  11.265   9.206   9.785  0.0620  0.0830  0.1927
  405loPI   C3B 6479  11.188   9.233   9.331  0.0582  0.0687  0.0492
  405loPI   C4B 6480  11.287   9.224   8.937 -0.2661 -0.2927 -0.0722
  406POPI    C1 6481   4.366  12.322  11.605 -0.1344 -0.1154 -0.1811
  406POPI    C2 6482   4.211  12.321  11.973  0.0751 -0.0437 -0.0913
  406POPI    C3 6483   4.585  12.194  11.914  0.0642  0.0051 -0.2704
  406POPI   PO4 6484   4.318  12.506  11.490 -0.0557  0.2074  0.2351
  406POPI   GL1 6485   4.135  12.502  11.083  0.1967 -0.1304 -0.2329
  406POPI   GL2 6486   4.152  12.824  11.074 -0.0639 -0.0731 -0.1122
  406POPI   C1A 6487   4.498  12.363  10.719  0.1013 -0.0778  0.1294
  406POPI   D2A 6488   4.646  12.354  10.298 -0.1818 -0.1458 -0.1137
  406POPI   C3A 6489   4.601  12.229   9.953 -0.0258 -0.3139 -0.1746
  406POPI   C4A 6490   4.570  12.286   9.484  0.0221 -0.1608  0.1351
  406POPI   C1B 6491   4.124  12.645  10.596 -0.3733 -0.1222  0.1565
  406POPI   C2B 6492   4.158  12.518  10.229 -0.1715 -0.2715  0.0670
  406POPI   C3B 6493   4.129  12.604   9.832  0.2115  0.2075 -0.1851
  406POPI   C4B 6494   4.147  12.618   9.434 -0.2436  0.3304  0.2574
  407POPI    C1 6495  14.995  12.202  11.411 -0.2245  0.2513  0.0886
  407POPI    C2 6496  14.795  12.072  11.732  0.0705  0.0125  0.1812
  407POPI    C3 6497  15.194  12.097  11.742  0.1197 -0.4138 -0.3066
  407POPI   PO4 6498  14.783  12.013  11.228 -0.0632  0.1465  0.0780
  407POPI   GL1 6499  14.862  12.008  10.778  0.3630 -0.0221  0.4208
  407POPI   GL2 6500  14.933  11.773  10.566  0.0756 -0.0116 -0.0891
  407POPI   C1A 6501  14.597  12.072  10.356 -0.0459 -0.2363 -0.0198
  407POPI   D2A 6502  14.567  12.310  10.030  0.3055  0.0981  0.2936
  407POPI   C3A 6503  14.569  12.339   9.564  0.0237 -0.0862  0.0052
  407POPI   C4A 6504  14.437  12.063   9.210  0.3841  0.1190 -0.0963
  407POPI   C1B 6505  14.826  11.717  10.129  0.1781 -0.4040 -0.3385
  407POPI   C2B 6506  14.810  11.799   9.794  0.1571 -0.1511  0.2209
  407POPI   C3B 6507  14.971  11.879   9.383 -0.1847  0.0919  0.2515
  407POPI   C4B 6508  14.951  11.929   8.961 -0.0845  0.0606  0.2733
  408POPI    C1 6509  11.661   4.602  11.602  0.0054 -0.0268 -0.0598
  408POPI    C2 6510  11.681   4.945  11.807 -0.2961  0.0302 -0.1212
  408POPI    C3 6511  11.592   4.604  11.996 -0.0966  0.0016 -0.0774
  408POPI   PO4 6512  11.839   4.684  11.421  0.0366 -0.1255  0.0034
  408POPI   GL1 6513  11.900   4.798  10.973 -0.0448 -0.2215 -0.3769
  408POPI   GL2 6514  11.902   5.060  10.767 -0.4171  0.0166 -0.1800
  408POPI   C1A 6515  11.879   4.600  10.594 -0.0507 -0.1580 -0.1898
  408POPI   D2A 6516  11.838   4.654  10.187 -0.2731  0.1216 -0.0553
  408POPI   C3A 6517  11.860   4.449   9.864  0.2891 -0.1612 -0.0105
  408POPI   C4A 6518  11.918   4.428   9.425 -0.2270 -0.0140  0.3946
  408POPI   C1B 6519  11.758   5.170  10.389  0.1994 -0.0765 -0.0423
  408POPI   C2B 6520  11.795   5.076   9.993  0.1894  0.5096 -0.1068
  408POPI   C3B 6521  11.901   4.902   9.617 -0.1468  0.4863  0.2582
  408POPI   C4B 6522  11.928   4.920   9.217  0.0822 -0.2514 -0.1174
  409POPI    C1 6523   5.275  10.952  11.506  0.0605  0.0143 -0.2698
  409POPI    C2 6524   5.225  10.808  11.876 -0.0877  0.3297 -0.1635
  409POPI    C3 6525   5.532  10.683  11.652 -0.0032  0.1281  0.0610
  409POPI   PO4 6526   5.039  10.847  11.389 -0.0689  0.0393 -0.1372
  409POPI   GL1 6527   5.141  10.656  11.090 -0.0568  0.1391 -0.1492
  409POPI   GL2 6528   5.364  10.400  11.203 -0.2798  0.1807 -0.0341
  409POPI   C1A 6529   5.394  10.675  10.704 -0.0375  0.0541  0.1503
  409POPI   D2A 6530   5.316  10.763  10.291  0.0316 -0.2107 -0.0951
  409POPI   C3A 6531   5.330  10.614   9.822 -0.2039  0.0514  0.2636
  409POPI   C4A 6532   5.383  10.691   9.391 -0.0899 -0.0898  0.0206
  409POPI   C1B 6533   5.325  10.176  10.814  0.2397  0.1937 -0.3237
  409POPI   C2B 6534   5.288  10.188  10.386  0.0458 -0.1902  0.0690
  409POPI   C3B 6535   5.312  10.145   9.960  0.0698  0.1072  0.0680
  409POPI   C4B 6536   5.303  10.109   9.554 -0.1980  0.1003 -0.1144
  410POPI    C1 6537  13.525   0.992  11.839 -0.1900  0.0054  0.0262
  410POPI    C2 6538  13.214   0.786  11.983 -0.0222 -0.1740  0.1349
  410POPI    C3 6539  13.575   0.751  12.153  0.0608  0.0252  0.0035
  410POPI   PO4 6540  13.460   1.002  11.528 -0.1381  0.2167  0.0390
  410POPI   GL1 6541  13.481   0.643  11.106 -0.0161 -0.0723  0.2402
  410POPI   GL2 6542  13.185   0.872  11.084 -0.2177  0.0365 -0.0345
  410POPI   C1A 6543  13.556   0.798  10.712 -0.0137  0.0107  0.0479
  410POPI   D2A 6544  13.484   0.808  10.315 -0.0373 -0.1185  0.0299
  410POPI   C3A 6545  13.501   0.612   9.991  0.2993  0.0935  0.2063
  410POPI   C4A 6546  13.338   0.706   9.622 -0.2918  0.0142  0.1549
  410POPI   C1B 6547  13.101   0.620  10.743  0.1768  0.1236  0.2883
  410POPI   C2B 6548  13.070   0.533  10.291 -0.2742  0.0624  0.4447
  410POPI   C3B 6549  13.046   0.405   9.890 -0.4011 -0.3032  0.1107
  410POPI   C4B 6550  13.054   0.392   9.398  0.3047  0.1170  0.0978
  411POPI    C1 6551   7.566   6.856  11.822 -0.0099  0.0523 -0.0775
  411POPI    C2 6552   7.352   7.019  12.118  0.0919 -0.0292  0.0415
  411POPI    C3 6553   7.707   7.174  12.019  0.0297  0.0364 -0.0802
  411POPI   PO4 6554   7.431   6.847  11.604  0.2217  0.1571 -0.1872
  411POPI   GL1 6555   7.326   6.546  11.316 -0.2955 -0.1469  0.1450
  411POPI   GL2 6556   6.986   6.645  11.387  0.0277  0.0180 -0.1425
  411POPI   C1A 6557   7.332   6.622  10.903 -0.2505 -0.1333  0.2647
  411POPI   D2A 6558   7.432   6.695  10.544 -0.3244  0.2939 -0.1923
  411POPI   C3A 6559   7.361   6.668  10.117  0.0017  0.2240  0.2286
  411POPI   C4A 6560   7.418   6.601   9.714 -0.0113 -0.0979 -0.2332
  411POPI   C1B 6561   6.862   6.505  10.937 -0.3371 -0.0468 -0.1806
  411POPI   C2B 6562   6.978   6.438  10.521 -0.0636  0.0446 -0.0822
  411POPI   C3B 6563   6.898   6.481  10.073  0.1492 -0.0055  0.1676
  411POPI   C4B 6564   6.966   6.466   9.637  0.0434 -0.1010  0.0224
  412POPI    C1 6565   6.383  14.330  11.608  0.1289 -0.0547  0.0169
  412POPI    C2 6566   6.284  14.153  11.953 -0.0606 -0.1443 -0.0825
  412POPI    C3 6567   6.317  14.551  11.935  0.1174 -0.1505  0.0796
  412POPI   PO4 6568   6.223  14.142  11.403  0.0521 -0.1513  0.0737
  412POPI   GL1 6569   6.195  14.191  11.010 -0.0643  0.0527  0.3895
  412POPI   GL2 6570   6.161  14.575  11.127 -0.0320 -0.0969 -0.0599
  412POPI   C1A 6571   5.985  14.186  10.555 -0.0489  0.1249  0.0597
  412POPI   D2A 6572   5.953  14.065  10.143  0.0577  0.1596  0.0250
  412POPI   C3A 6573   6.175  14.082   9.758  0.0405 -0.1159  0.1479
  412POPI   C4A 6574   6.073  13.939   9.412  0.0372  0.0937 -0.1763
  412POPI   C1B 6575   6.189  14.639  10.706  0.0871  0.0276  0.0687
  412POPI   C2B 6576   6.193  14.564  10.272  0.1521 -0.1538  0.0067
  412POPI   C3B 6577   6.222  14.550   9.911 -0.0282  0.1855  0.0697
  412POPI   C4B 6578   6.191  14.692   9.407  0.2450  0.1884  0.0352
  413POPI    C1 6579  13.945   4.012  11.717 -0.0127 -0.0708  0.0741
  413POPI    C2 6580  14.265   3.775  11.751  0.1401  0.1270  0.0305
  413POPI    C3 6581  14.232   4.100  11.981 -0.0448  0.0911  0.0557
  413POPI   PO4 6582  13.905   4.066  11.433  0.3040  0.1962  0.0673
  413POPI   GL1 6583  13.668   3.827  11.144 -0.2821  0.2303 -0.0858
  413POPI   GL2 6584  13.531   4.192  11.172 -0.0801 -0.0093  0.1146
  413POPI   C1A 6585  13.931   3.648  10.780  0.1992 -0.1708  0.0818
  413POPI   D2A 6586  13.867   3.397  10.466 -0.0742  0.0450  0.0950
  413POPI   C3A 6587  14.011   3.260  10.092 -0.1602  0.0015  0.0296
  413POPI   C4A 6588  14.029   3.013   9.813 -0.0391  0.1097  0.1578
  413POPI   C1B 6589  13.553   4.057  10.711  0.2671 -0.1332 -0.2386
  413POPI   C2B 6590  13.598   3.865  10.328  0.0164  0.0565 -0.4615
  413POPI   C3B 6591  13.581   3.552  10.059 -0.0427  0.1741 -0.0049
  413POPI   C4B 6592  13.521   3.510   9.642  0.1062 -0.2114  0.0040
  414POPI    C1 6593   6.663   8.918  11.905 -0.0158  0.1069  0.1289
  414POPI    C2 6594   6.455   8.650  12.117 -0.1063  0.0052 -0.0853
  414POPI    C3 6595   6.825   8.563  11.992 -0.2075 -0.0982 -0.3190
  414POPI   PO4 6596   6.639   9.002  11.757  0.3010  0.0607  0.0445
  414POPI   GL1 6597   6.537   8.965  11.341 -0.0634 -0.0694 -0.0729
  414POPI   GL2 6598   6.287   9.200  11.328 -0.0719 -0.2665 -0.6384
  414POPI   C1A 6599   6.687   8.800  11.097  0.1119 -0.0601 -0.0403
  414POPI   D2A 6600   6.711   8.870  10.654 -0.0645 -0.1597  0.3609
  414POPI   C3A 6601   6.594   8.699  10.190  0.0140 -0.0255 -0.1329
  414POPI   C4A 6602   6.540   8.808   9.758 -0.0683  0.0459  0.2002
  414POPI   C1B 6603   6.228   9.081  10.907 -0.1812  0.3714  0.2621
  414POPI   C2B 6604   6.236   8.973  10.528  0.1102  0.1392 -0.1080
  414POPI   C3B 6605   6.148   8.965  10.083  0.2727  0.0632 -0.2198
  414POPI   C4B 6606   6.126   9.122   9.649 -0.1092 -0.0813 -0.3116
  415POPI    C1 6607   8.339  15.504  11.906  0.1902 -0.0966 -0.0495
  415POPI    C2 6608   8.641  15.299  12.069  0.2492 -0.0411 -0.0890
  415POPI    C3 6609   8.272  15.145  12.069  0.3192 -0.2125 -0.2480
  415POPI   PO4 6610   8.421  15.605  11.697 -0.1799 -0.0256  0.0107
  415POPI   GL1 6611   8.630  15.431  11.306 -0.3189 -0.2164  0.0523
  415POPI   GL2 6612   8.312  15.301  11.135  0.2056 -0.1123  0.2457
  415POPI   C1A 6613   8.912  15.556  10.847  0.0855  0.0142  0.0640
  415POPI   D2A 6614   8.825  15.605  10.390 -0.1115  0.0521 -0.0324
  415POPI   C3A 6615   8.892  15.534   9.913  0.1682 -0.0867  0.2692
  415POPI   C4A 6616   8.963  15.600   9.516  0.2296  0.2025 -0.2553
  415POPI   C1B 6617   8.510  15.389  10.667  0.2057  0.1978 -0.1003
  415POPI   C2B 6618   8.450  15.338  10.182  0.1058 -0.1283 -0.0382
  415POPI   C3B 6619   8.479  15.277   9.761  0.0096 -0.2333  0.0601
  415POPI   C4B 6620   8.549  15.390   9.418 -0.0042 -0.2621  0.3954
  416POPI    C1 6621   8.341   7.205  12.062  0.2020 -0.0916  0.0840
  416POPI    C2 6622   8.680   7.027  12.179  0.1694 -0.1992  0.0158
  416POPI    C3 6623   8.672   7.422  12.119  0.3002 -0.2056 -0.0458
  416POPI   PO4 6624   8.223   7.014  11.908 -0.0165 -0.0310 -0.0626
  416POPI   GL1 6625   7.990   7.114  11.558  0.1200 -0.1517 -0.2666
  416POPI   GL2 6626   8.232   6.832  11.470 -0.0996  0.0420 -0.0751
  416POPI   C1A 6627   8.158   7.299  11.149  0.2667  0.0282 -0.0872
  416POPI   D2A 6628   8.299   7.230  10.768 -0.1059  0.2457  0.1048
  416POPI   C3A 6629   8.193   7.200  10.340 -0.0088  0.3313  0.2406
  416POPI   C4A 6630   8.302   7.154   9.940  0.0891 -0.0778 -0.1213
  416POPI   C1B 6631   8.236   6.771  11.070 -0.0211 -0.2046  0.0579
  416POPI   C2B 6632   8.309   6.717  10.589  0.2156  0.2993 -0.1338
  416POPI   C3B 6633   8.250   6.683  10.173 -0.1065  0.3208  0.1942
  416POPI   C4B 6634   8.286   6.663   9.777  0.0335  0.5041  0.2033
  417POPI    C1 6635   5.471  12.433  11.994 -0.0771  0.1018  0.1490
  417POPI    C2 6636   5.206  12.152  11.891  0.1235  0.0052 -0.1163
  417POPI    C3 6637   5.355  12.160  12.262 -0.1178 -0.0451 -0.0160
  417POPI   PO4 6638   5.322  12.596  11.798  0.0908 -0.2166 -0.2303
  417POPI   GL1 6639   5.295  12.739  11.380 -0.0736  0.1352 -0.1064
  417POPI   GL2 6640   5.429  13.050  11.268 -0.1076  0.0402  0.3225
  417POPI   C1A 6641   5.129  12.690  11.006  0.3733 -0.0543  0.1357
  417POPI   D2A 6642   4.897  12.651  10.695  0.0844 -0.2851  0.3680
  417POPI   C3A 6643   5.046  12.685  10.255 -0.0030 -0.0925 -0.3220
  417POPI   C4A 6644   4.982  12.563   9.833  0.0337  0.0124  0.2294
  417POPI   C1B 6645   5.517  12.969  10.795  0.3341 -0.0601  0.1810
  417POPI   C2B 6646   5.515  12.902  10.270  0.1190 -0.1733  0.0282
  417POPI   C3B 6647   5.499  12.699   9.847  0.1544 -0.2398  0.0768
  417POPI   C4B 6648   5.504  12.745   9.338 -0.1800  0.0286  0.1464
  418POPI    C1 6649   4.644  12.741  11.783  0.0950  0.3941  0.0601
  418POPI    C2 6650   4.935  12.876  12.023  0.3176 -0.3390  0.2297
  418POPI    C3 6651   4.661  12.621  12.165 -0.3825  0.2774  0.0509
  418POPI   PO4 6652   4.763  12.772  11.549  0.1081  0.2497  0.0551
  418POPI   GL1 6653   4.755  13.012  11.181 -0.4068 -0.0645 -0.3223
  418POPI   GL2 6654   4.955  13.247  11.151  0.0936  0.4407  0.1606
  418POPI   C1A 6655   4.505  13.019  10.828  0.2249 -0.0968 -0.3934
  418POPI   D2A 6656   4.573  12.876  10.397  0.1250 -0.3645 -0.2458
  418POPI   C3A 6657   4.573  12.807   9.938 -0.0945  0.0552 -0.0989
  418POPI   C4A 6658   4.602  12.812   9.501 -0.2905  0.0033 -0.0681
  418POPI   C1B 6659   5.052  13.180  10.812  0.0365  0.1603 -0.0278
  418POPI   C2B 6660   5.000  13.182  10.287  0.1305 -0.0790 -0.3394
  418POPI   C3B 6661   5.068  13.050   9.914  0.4194 -0.4275 -0.0495
  418POPI   C4B 6662   5.081  12.909   9.497  0.0087  0.0333 -0.1086
  419POPI    C1 6663   7.706  15.527  11.566 -0.2541  0.1236  0.2370
  419POPI    C2 6664   7.785  15.846  11.794  0.2543  0.2534 -0.1028
  419POPI    C3 6665   7.841  15.478  11.940  0.1563  0.3254  0.1218
  419POPI   PO4 6666   7.911  15.617  11.343  0.4281 -0.0954  0.0073
  419POPI   GL1 6667   7.934  15.627  10.969  0.0267 -0.2762  0.1900
  419POPI   GL2 6668   7.957  16.013  10.996  0.0146  0.0680  0.0697
  419POPI   C1A 6669   8.026  15.648  10.495  0.0897 -0.0809  0.0988
  419POPI   D2A 6670   8.059  15.645  10.042 -0.2423 -0.0608 -0.1088
  419POPI   C3A 6671   8.068  15.514   9.588 -0.0686  0.2025  0.0078
  419POPI   C4A 6672   8.065  15.378   9.243 -0.0667 -0.1373  0.0750
  419POPI   C1B 6673   7.960  16.228  10.605 -0.0146 -0.0266  0.4766
  419POPI   C2B 6674   8.044  16.135  10.220 -0.0456  0.2224 -0.0262
  419POPI   C3B 6675   8.011  16.100   9.721  0.2501 -0.1100 -0.0645
  419POPI   C4B 6676   8.047  16.126   9.311 -0.0879  0.0253  0.2971
  420POPI    C1 6677   3.012   0.883  11.283 -0.0807 -0.0245  0.0272
  420POPI    C2 6678   3.268   1.127  11.096 -0.1815 -0.0291 -0.1181
  420POPI    C3 6679   2.874   1.176  11.049 -0.2064 -0.0759  0.0362
  420POPI   PO4 6680   3.073   0.656  11.231  0.2002  0.2932  0.2395
  420POPI   GL1 6681   3.236   0.581  10.850  0.2835 -0.1351  0.1166
  420POPI   GL2 6682   3.064   0.831  10.753 -0.0616  0.0108  0.4409
  420POPI   C1A 6683   3.387   0.516  10.481  0.1095  0.2848 -0.2609
  420POPI   D2A 6684   3.528   0.425  10.069  0.0923 -0.3216 -0.1048
  420POPI   C3A 6685   3.654   0.545   9.643  0.0090  0.0163  0.2724
  420POPI   C4A 6686   3.631   0.481   9.218 -0.0671  0.0607  0.0958
  420POPI   C1B 6687   3.105   0.844  10.366  0.2398 -0.2710  0.0223
  420POPI   C2B 6688   3.157   0.846   9.899 -0.1665  0.1411 -0.0865
  420POPI   C3B 6689   3.232   0.750   9.439  0.1125 -0.1067  0.0596
  420POPI   C4B 6690   3.103   0.643   9.012 -0.4657 -0.0918 -0.1231
  421POPI    C1 6691   6.698  16.834  11.351 -0.0112  0.0681 -0.0888
  421POPI    C2 6692   6.948  17.143  11.399 -0.1379  0.1595 -0.0101
  421POPI    C3 6693   6.710  17.030  11.700 -0.0119 -0.0875 -0.0008
  421POPI   PO4 6694   6.769  16.688  11.138  0.0908 -0.0391 -0.4276
  421POPI   GL1 6695   6.996  16.928  10.806 -0.1449 -0.0858 -0.1223
  421POPI   GL2 6696   7.047  16.570  10.751  0.1450 -0.3145  0.2471
  421POPI   C1A 6697   6.959  17.116  10.426 -0.0253  0.0529  0.0070
  421POPI   D2A 6698   6.964  17.016   9.954 -0.0089 -0.2264 -0.2466
  421POPI   C3A 6699   6.786  16.908   9.583 -0.0641 -0.3460  0.2018
  421POPI   C4A 6700   6.864  16.941   9.205  0.3701  0.1840  0.3243
  421POPI   C1B 6701   7.141  16.675  10.314  0.0898 -0.0712  0.0981
  421POPI   C2B 6702   7.180  16.524   9.891  0.2221  0.3151 -0.2804
  421POPI   C3B 6703   7.222  16.600   9.518  0.1326 -0.2128 -0.0057
  421POPI   C4B 6704   7.254  16.658   9.029 -0.0399  0.0162  0.3025
  422POPI    C1 6705   2.169   9.797  11.853  0.1144  0.1090 -0.2007
  422POPI    C2 6706   2.148  10.083  12.132  0.2263  0.0171 -0.0968
  422POPI    C3 6707   2.493   9.891  12.068  0.1090 -0.2149 -0.0450
  422POPI   PO4 6708   2.105   9.875  11.574 -0.1462  0.1362  0.1717
  422POPI   GL1 6709   2.065   9.744  11.153 -0.0606 -0.3009  0.0258
  422POPI   GL2 6710   2.079   9.541  10.906  0.2028  0.2608  0.0303
  422POPI   C1A 6711   1.992  10.031  10.745 -0.2335 -0.1281 -0.0676
  422POPI   D2A 6712   2.065  10.149  10.345 -0.1268  0.2810 -0.0842
  422POPI   C3A 6713   2.036  10.014   9.890  0.0609 -0.0026 -0.1680
  422POPI   C4A 6714   2.194  10.024   9.465  0.1172 -0.1456 -0.2231
  422POPI   C1B 6715   2.057   9.558  10.467 -0.2000 -0.1598  0.0026
  422POPI   C2B 6716   2.035   9.529  10.059  0.3122  0.0213 -0.0670
  422POPI   C3B 6717   2.003   9.567   9.563  0.0303 -0.2406 -0.1284
  422POPI   C4B 6718   2.279   9.720   9.161  0.2897  0.2009  0.1879
  423POPI    C1 6719   9.611   9.724  11.781  0.0712 -0.1011  0.1010
  423POPI    C2 6720   9.903   9.714  12.053  0.2235  0.1847 -0.0466
  423POPI    C3 6721   9.523   9.755  12.170  0.2640  0.0657  0.1329
  423POPI   PO4 6722   9.678   9.778  11.587 -0.1224  0.2578 -0.0557
  423POPI   GL1 6723   9.817   9.931  11.164  0.1382 -0.4085  0.0574
  423POPI   GL2 6724   9.474   9.880  11.059  0.1884 -0.2432  0.1071
  423POPI   C1A 6725   9.746  10.021  10.654 -0.3714 -0.2135 -0.0908
  423POPI   D2A 6726   9.788  10.036  10.219 -0.0133  0.0825 -0.2238
  423POPI   C3A 6727   9.909   9.919   9.848  0.1216  0.1786  0.1071
  423POPI   C4A 6728   9.752   9.951   9.386  0.2239  0.3381  0.1047
  423POPI   C1B 6729   9.333   9.731  10.563  0.0603  0.1221  0.0592
  423POPI   C2B 6730   9.269   9.736  10.023  0.1409 -0.0710 -0.1261
  423POPI   C3B 6731   9.294   9.669   9.651 -0.3014 -0.0392 -0.2483
  423POPI   C4B 6732   9.278   9.771   9.193 -0.2111  0.0045  0.1242
  424POPI    C1 6733  11.189  16.646  11.579  0.0740 -0.0221 -0.0716
  424POPI    C2 6734  11.349  16.291  11.486  0.0431 -0.0018 -0.2050
  424POPI    C3 6735  11.471  16.487  11.813 -0.0080 -0.1791 -0.0781
  424POPI   PO4 6736  11.203  16.778  11.444 -0.0654 -0.2543  0.0678
  424POPI   GL1 6737  11.417  16.657  11.097 -0.1588 -0.0197 -0.2461
  424POPI   GL2 6738  11.577  16.941  11.083  0.0684 -0.2192  0.0594
  424POPI   C1A 6739  11.209  16.653  10.574  0.2516  0.1253 -0.0064
  424POPI   D2A 6740  11.193  16.758  10.068  0.2982  0.0669  0.0500
  424POPI   C3A 6741  11.225  16.869   9.622 -0.1460 -0.1314  0.1181
  424POPI   C4A 6742  11.103  16.923   9.234  0.0020  0.1686 -0.0881
  424POPI   C1B 6743  11.793  17.016  10.776  0.2543  0.1014 -0.2465
  424POPI   C2B 6744  11.849  17.040  10.374  0.0195  0.0847 -0.2572
  424POPI   C3B 6745  11.654  16.952   9.932 -0.0283  0.1445  0.1603
  424POPI   C4B 6746  11.654  17.101   9.523 -0.2873  0.2344  0.0565
  425POPI    C1 6747   8.692  16.096  11.692 -0.1128  0.0962 -0.2223
  425POPI    C2 6748   8.474  16.427  11.635  0.0293  0.2201 -0.0557
  425POPI    C3 6749   8.668  16.372  11.981  0.0465 -0.0152 -0.1011
  425POPI   PO4 6750   8.753  15.932  11.475 -0.1411  0.1785 -0.0715
  425POPI   GL1 6751   8.732  16.089  11.106  0.2688  0.1315 -0.0509
  425POPI   GL2 6752   8.504  15.825  11.027  0.1301 -0.0131 -0.3249
  425POPI   C1A 6753   8.969  16.085  10.744  0.0610 -0.1126 -0.0002
  425POPI   D2A 6754   8.900  16.125  10.300  0.0885 -0.0048 -0.3513
  425POPI   C3A 6755   8.894  16.021   9.885 -0.2697  0.4169 -0.2552
  425POPI   C4A 6756   8.891  16.113   9.448  0.3261 -0.0305  0.2049
  425POPI   C1B 6757   8.409  15.867  10.605  0.0998 -0.3622 -0.0638
  425POPI   C2B 6758   8.484  15.876  10.176  0.0902  0.1914 -0.1453
  425POPI   C3B 6759   8.486  15.797   9.663 -0.1594 -0.2971 -0.1919
  425POPI   C4B 6760   8.404  15.783   9.212  0.0278 -0.0230 -0.4918
  426POPI    C1 6761  16.956   4.891  11.023  0.1978  0.1806 -0.2361
  426POPI    C2 6762  17.053   5.173  11.288 -0.3324 -0.0024  0.1705
  426POPI    C3 6763  17.253   4.827  11.283 -0.1523  0.1004  0.1539
  426POPI   PO4 6764  16.886   5.029  10.824  0.0158 -0.3937  0.0955
  426POPI   GL1 6765  16.624   5.262  10.577  0.1662 -0.2388 -0.0112
  426POPI   GL2 6766  16.286   5.084  10.658 -0.0871 -0.0080  0.1505
  426POPI   C1A 6767  16.646   5.227  10.169  0.2384  0.1863 -0.1518
  426POPI   D2A 6768  16.504   4.982   9.941  0.1280  0.1457 -0.0018
  426POPI   C3A 6769  16.311   5.085   9.548  0.0566  0.1528  0.2017
  426POPI   C4A 6770  16.001   4.812   9.304  0.1605  0.3499 -0.0607
  426POPI   C1B 6771  16.080   5.275  10.347  0.1348 -0.1755 -0.0499
  426POPI   C2B 6772  15.785   5.230  10.004  0.0877 -0.2948 -0.1860
  426POPI   C3B 6773  15.816   5.160   9.586 -0.1258 -0.0114  0.0686
  426POPI   C4B 6774  15.742   5.198   9.120  0.0555 -0.2548  0.0085
  427POPI    C1 6775  17.239  12.379  11.862 -0.2050  0.1115 -0.1984
  427POPI    C2 6776  16.885  12.533  11.967 -0.2388 -0.1298  0.0542
  427POPI    C3 6777  17.204  12.586  12.203 -0.1323 -0.0146 -0.1133
  427POPI   PO4 6778  17.224  12.336  11.608 -0.1644 -0.0880  0.2024
  427POPI   GL1 6779  17.326  12.575  11.151 -0.0362  0.1863 -0.1183
  427POPI   GL2 6780  17.572  12.479  10.909 -0.1560 -0.3044 -0.0530
  427POPI   C1A 6781  17.023  12.639  10.898 -0.1306 -0.1096  0.1214
  427POPI   D2A 6782  16.796  12.951  10.658 -0.0687 -0.0001 -0.1969
  427POPI   C3A 6783  16.872  12.841  10.282 -0.1871 -0.1157  0.1133
  427POPI   C4A 6784  16.891  12.891   9.788 -0.2195  0.0503 -0.2830
  427POPI   C1B 6785  17.282  12.348  10.605 -0.2901  0.0470  0.3622
  427POPI   C2B 6786  17.227  12.385  10.194 -0.1869  0.1382 -0.0425
  427POPI   C3B 6787  17.239  12.497   9.823  0.0843  0.1420 -0.0640
  427POPI   C4B 6788  17.210  12.543   9.459  0.1095 -0.1718  0.0675
  428POPI    C1 6789   0.181  11.837  11.510  0.0016  0.1524 -0.0737
  428POPI    C2 6790   0.174  11.950  11.894  0.2751 -0.0291 -0.0130
  428POPI    C3 6791   0.523  11.869  11.716  0.1313 -0.1731 -0.2333
  428POPI   PO4 6792   0.112  11.986  11.279 -0.3360  0.1184  0.2495
  428POPI   GL1 6793   0.093  11.875  10.920 -0.0671 -0.1083 -0.5426
  428POPI   GL2 6794  -0.171  11.934  10.691 -0.1639  0.1665  0.0901
  428POPI   C1A 6795   0.378  11.968  10.640  0.1070  0.0717 -0.0259
  428POPI   D2A 6796   0.465  12.304  10.323  0.1246 -0.1647  0.2496
  428POPI   C3A 6797   0.453  12.295   9.853  0.4636  0.3526 -0.0942
  428POPI   C4A 6798   0.578  12.218   9.470 -0.1218  0.3262  0.2319
  428POPI   C1B 6799  -0.035  11.896  10.257 -0.1983 -0.0989 -0.0462
  428POPI   C2B 6800  -0.093  11.967   9.820 -0.3522  0.0452  0.0191
  428POPI   C3B 6801   0.028  12.057   9.438  0.3032 -0.0570 -0.0350
  428POPI   C4B 6802  -0.041  11.912   9.018  0.2607  0.3791 -0.1781
  429POPI    C1 6803   9.488  15.557  11.933 -0.0623  0.0980 -0.0820
  429POPI    C2 6804   9.189  15.519  12.195 -0.0686  0.2956 -0.0588
  429POPI    C3 6805   9.557  15.397  12.293 -0.1117  0.1834 -0.0342
  429POPI   PO4 6806   9.491  15.727  11.795  0.3492 -0.1217 -0.3102
  429POPI   GL1 6807   9.500  15.626  11.407 -0.4068 -0.0216 -0.4640
  429POPI   GL2 6808   9.397  15.229  11.515  0.1599  0.3579  0.0657
  429POPI   C1A 6809   9.289  15.848  11.060 -0.0206  0.1181 -0.0367
  429POPI   D2A 6810   9.350  15.723  10.669 -0.1020 -0.0025 -0.0804
  429POPI   C3A 6811   9.275  15.807  10.264  0.1203 -0.4245  0.2428
  429POPI   C4A 6812   9.311  15.777   9.842 -0.2102 -0.0404 -0.0212
  429POPI   C1B 6813   9.275  15.319  11.098  0.1419 -0.0324  0.0139
  429POPI   C2B 6814   9.303  15.182  10.690  0.0936 -0.0267 -0.1611
  429POPI   C3B 6815   9.241  15.315  10.219 -0.0627  0.4258 -0.0661
  429POPI   C4B 6816   9.302  15.224   9.762  0.0313 -0.1402  0.0972
  430POPI    C1 6817  14.999  14.937  11.423  0.2524  0.0359 -0.0515
  430POPI    C2 6818  14.729  14.736  11.639 -0.0109  0.3248 -0.1062
  430POPI    C3 6819  15.107  14.606  11.621 -0.0879  0.0524  0.1684
  430POPI   PO4 6820  14.839  14.989  11.191 -0.0551 -0.2575 -0.1861
  430POPI   GL1 6821  14.590  15.157  10.864 -0.0876 -0.0618 -0.2247
  430POPI   GL2 6822  14.288  15.454  11.011 -0.0003 -0.1766  0.3246
  430POPI   C1A 6823  14.828  15.093  10.528 -0.1783  0.1760  0.0013
  430POPI   D2A 6824  14.946  14.967  10.202 -0.1357 -0.1382  0.0339
  430POPI   C3A 6825  14.788  15.084   9.801 -0.3430  0.0675  0.0273
  430POPI   C4A 6826  14.661  14.943   9.421  0.2348 -0.4403  0.2015
  430POPI   C1B 6827  14.311  15.403  10.566 -0.1031 -0.1347  0.2650
  430POPI   C2B 6828  14.468  15.314  10.158  0.0838 -0.1311 -0.0594
  430POPI   C3B 6829  14.358  15.264   9.672  0.0088  0.0559  0.1155
  430POPI   C4B 6830  14.326  15.305   9.334 -0.2553 -0.0784 -0.0305
  431POPI    C1 6831  11.503   0.029  11.804  0.2478 -0.0810  0.2049
  431POPI    C2 6832  11.336  -0.291  11.976  0.0715 -0.1439 -0.0775
  431POPI    C3 6833  11.252   0.076  12.112 -0.5080 -0.1563 -0.3719
  431POPI   PO4 6834  11.484   0.076  11.575 -0.1634 -0.0278  0.2222
  431POPI   GL1 6835  11.812   0.143  11.244 -0.0169 -0.0012 -0.0149
  431POPI   GL2 6836  11.676   0.411  11.191  0.1334  0.3350 -0.0996
  431POPI   C1A 6837  11.743   0.275  10.743 -0.0477 -0.1258  0.2059
  431POPI   D2A 6838  11.724   0.383  10.312  0.0215 -0.0309  0.1437
  431POPI   C3A 6839  11.664   0.257   9.899  0.0760  0.0777  0.1500
  431POPI   C4A 6840  11.620   0.371   9.448 -0.1025  0.0763  0.0354
  431POPI   C1B 6841  11.373   0.523  10.980  0.3031  0.1544  0.1413
  431POPI   C2B 6842  11.284   0.593  10.556 -0.0251  0.0411 -0.0722
  431POPI   C3B 6843  11.272   0.542  10.151 -0.2653  0.3152  0.1477
  431POPI   C4B 6844  11.195   0.613   9.714  0.3315 -0.0101  0.0763
  432POPI    C1 6845   5.545  16.902  11.788 -0.2217  0.1859  0.0003
  432POPI    C2 6846   5.203  16.834  11.982 -0.0308 -0.1699  0.2229
  432POPI    C3 6847   5.505  17.019  12.168  0.0906 -0.3525  0.2093
  432POPI   PO4 6848   5.450  16.992  11.583  0.1100 -0.1692 -0.1003
  432POPI   GL1 6849   5.484  16.890  11.138  0.1039 -0.1980 -0.4537
  432POPI   GL2 6850   5.220  17.152  11.097 -0.0838  0.1684  0.1520
  432POPI   C1A 6851   5.446  16.992  10.635  0.2927  0.0475 -0.0286
  432POPI   D2A 6852   5.400  16.939  10.199  0.1431  0.1890 -0.1336
  432POPI   C3A 6853   5.439  17.225   9.869  0.1211  0.2420  0.0837
  432POPI   C4A 6854   5.391  17.250   9.522 -0.2961  0.4178 -0.2454
  432POPI   C1B 6855   4.919  16.991  10.803  0.2140  0.1420  0.1177
  432POPI   C2B 6856   4.939  16.953  10.361  0.1868 -0.1602 -0.2497
  432POPI   C3B 6857   5.002  16.976   9.950  0.1191  0.0529  0.0793
  432POPI   C4B 6858   4.901  16.770   9.463 -0.1405 -0.1208 -0.1302
  433POPI    C1 6859   1.008   4.507  11.204  0.4306  0.0826  0.0373
  433POPI    C2 6860   1.083   4.263  11.512 -0.1272 -0.0476  0.0792
  433POPI    C3 6861   1.133   4.658  11.552 -0.0086 -0.0813  0.2730
  433POPI   PO4 6862   1.179   4.310  11.011  0.1019  0.0343  0.0659
  433POPI   GL1 6863   1.086   4.152  10.659 -0.1802 -0.2133 -0.0821
  433POPI   GL2 6864   1.400   4.235  10.579  0.0343  0.2729 -0.2793
  433POPI   C1A 6865   0.888   4.260  10.272  0.1391 -0.1140 -0.1212
  433POPI   D2A 6866   0.967   4.365   9.898  0.3858  0.1182 -0.0226
  433POPI   C3A 6867   0.980   4.311   9.553  0.0071  0.0981  0.0013
  433POPI   C4A 6868   0.910   4.272   9.239 -0.0801  0.0509  0.1297
  433POPI   C1B 6869   1.383   4.201  10.193  0.0035  0.0184  0.2118
  433POPI   C2B 6870   1.415   4.115   9.767 -0.1697 -0.2094 -0.5094
  433POPI   C3B 6871   1.409   4.019   9.409 -0.2824  0.1538  0.0241
  433POPI   C4B 6872   1.431   3.982   8.973 -0.0344 -0.0539 -0.1480
  434POPI    C1 6873  11.847   0.392  11.768  0.0218  0.4000  0.0725
  434POPI    C2 6874  11.966   0.619  12.075 -0.0272  0.1368  0.2903
  434POPI    C3 6875  11.634   0.400  12.106  0.0128  0.0434  0.0784
  434POPI   PO4 6876  11.895   0.600  11.597  0.1943  0.5559 -0.2388
  434POPI   GL1 6877  11.910   0.799  11.285 -0.0298 -0.0496  0.1742
  434POPI   GL2 6878  12.142   0.683  11.212  0.1223 -0.4209 -0.3445
  434POPI   C1A 6879  11.753   0.881  10.859  0.0641  0.1098 -0.0782
  434POPI   D2A 6880  11.700   0.923  10.362 -0.0820  0.2725 -0.2656
  434POPI   C3A 6881  11.765   0.775   9.924  0.2532 -0.1048 -0.0661
  434POPI   C4A 6882  11.672   0.844   9.524  0.1905 -0.0140  0.0690
  434POPI   C1B 6883  12.195   0.515  10.883  0.0662  0.4523 -0.0650
  434POPI   C2B 6884  12.159   0.604  10.467  0.3905  0.2105  0.1420
  434POPI   C3B 6885  12.177   0.564  10.034 -0.0074  0.2907 -0.0896
  434POPI   C4B 6886  12.143   0.588   9.567  0.3567 -0.3058  0.0428
  435POPI    C1 6887   3.171  10.984  11.886  0.1662 -0.1922 -0.0392
  435POPI    C2 6888   3.443  11.071  12.166 -0.1040  0.0581  0.1511
  435POPI    C3 6889   3.074  10.959  12.273 -0.1332 -0.0994 -0.1058
  435POPI   PO4 6890   3.348  10.877  11.660  0.1493 -0.0081 -0.1040
  435POPI   GL1 6891   3.396  10.840  11.201  0.0897  0.0303  0.0340
  435POPI   GL2 6892   3.180  10.969  11.018  0.1415 -0.0532  0.1606
  435POPI   C1A 6893   3.513  10.776  10.720 -0.1675  0.0440  0.3227
  435POPI   D2A 6894   3.515  10.693  10.202 -0.0498  0.3835 -0.0039
  435POPI   C3A 6895   3.568  10.766   9.771  0.1131 -0.1448 -0.0786
  435POPI   C4A 6896   3.658  10.591   9.337 -0.1052 -0.0295  0.2149
  435POPI   C1B 6897   3.034  11.127  10.643  0.2131  0.1327  0.0623
  435POPI   C2B 6898   3.085  11.016  10.148  0.3388  0.0608 -0.1854
  435POPI   C3B 6899   3.182  11.051   9.691  0.2611  0.1529 -0.0222
  435POPI   C4B 6900   3.133  11.123   9.240  0.0714  0.1543 -0.1952
  436POPI    C1 6901   4.057  11.402  11.766 -0.0579  0.1815  0.0232
  436POPI    C2 6902   3.925  11.111  12.007 -0.1556  0.1748 -0.0380
  436POPI    C3 6903   4.269  11.298  12.089 -0.0088 -0.0689 -0.0870
  436POPI   PO4 6904   4.067  11.344  11.535 -0.0910  0.5466 -0.0894
  436POPI   GL1 6905   4.393  11.485  11.200 -0.2825  0.0021  0.0467
  436POPI   GL2 6906   4.192  11.151  11.065 -0.0436 -0.3937 -0.1155
  436POPI   C1A 6907   4.465  11.442  10.775  0.0256  0.0038  0.1471
  436POPI   D2A 6908   4.511  11.170  10.446  0.1036  0.3584  0.0797
  436POPI   C3A 6909   4.458  11.232   9.975 -0.3000 -0.0220 -0.0581
  436POPI   C4A 6910   4.484  11.320   9.496 -0.2592 -0.1161  0.0898
  436POPI   C1B 6911   4.046  11.019  10.755 -0.2715  0.1931  0.1754
  436POPI   C2B 6912   4.000  11.004  10.331  0.3566  0.3233 -0.3444
  436POPI   C3B 6913   4.023  10.969   9.866  0.0729  0.0637  0.1432
  436POPI   C4B 6914   4.019  11.041   9.451 -0.4488  0.0768 -0.0566
  437POPI    C1 6915  11.690   1.422  11.865  0.2661  0.0831  0.0326
  437POPI    C2 6916  11.464   1.361  12.189  0.0399  0.1296 -0.1139
  437POPI    C3 6917  11.848   1.249  12.189 -0.0712 -0.2662  0.0179
  437POPI   PO4 6918  11.549   1.662  11.788 -0.0492 -0.1458  0.0614
  437POPI   GL1 6919  11.449   1.913  11.535  0.3324 -0.0390  0.3495
  437POPI   GL2 6920  11.678   1.843  11.327 -0.0391 -0.1129 -0.1782
  437POPI   C1A 6921  11.330   2.073  11.071 -0.1666 -0.0756  0.2779
  437POPI   D2A 6922  11.257   2.123  10.630 -0.0629  0.2246 -0.3863
  437POPI   C3A 6923  11.255   2.098  10.124 -0.0737  0.0673 -0.2684
  437POPI   C4A 6924  11.279   2.193   9.744  0.2356  0.1061  0.1932
  437POPI   C1B 6925  11.709   1.900  10.818 -0.0714  0.0533 -0.3188
  437POPI   C2B 6926  11.669   1.898  10.382 -0.2012 -0.3314 -0.0401
  437POPI   C3B 6927  11.752   1.793  10.011  0.0806  0.2664  0.2562
  437POPI   C4B 6928  11.614   1.903   9.599 -0.0632  0.1913  0.1582
  438POPI    C1 6929  14.161   1.864  11.617  0.0254  0.0332  0.1106
  438POPI    C2 6930  13.830   2.018  11.453  0.0233 -0.0349  0.0503
  438POPI    C3 6931  13.939   2.125  11.823 -0.0396  0.0243  0.0519
  438POPI   PO4 6932  14.135   1.646  11.465  0.0081  0.0146  0.2049
  438POPI   GL1 6933  14.007   1.486  11.094 -0.1744 -0.2040 -0.0773
  438POPI   GL2 6934  13.758   1.697  11.046  0.0029  0.2584 -0.1669
  438POPI   C1A 6935  13.967   1.529  10.520 -0.0562 -0.0334  0.2148
  438POPI   D2A 6936  13.996   1.431  10.088 -0.0130 -0.3857  0.2001
  438POPI   C3A 6937  13.947   1.408   9.721 -0.2482  0.2270  0.2573
  438POPI   C4A 6938  14.013   1.275   9.298 -0.2851  0.0199  0.1250
  438POPI   C1B 6939  13.609   1.793  10.701  0.2221 -0.0590 -0.3914
  438POPI   C2B 6940  13.553   1.863  10.331 -0.0667 -0.1525  0.0350
  438POPI   C3B 6941  13.583   1.723   9.873 -0.0583  0.0046 -0.1792
  438POPI   C4B 6942  13.476   1.625   9.546  0.0426 -0.0881  0.0178
  439POPI    C1 6943  13.817   6.266  11.366 -0.0633  0.0229 -0.0923
  439POPI    C2 6944  13.973   6.361  11.722  0.0104  0.1751 -0.1641
  439POPI    C3 6945  13.933   5.977  11.616 -0.2257  0.1232  0.1021
  439POPI   PO4 6946  13.973   6.422  11.217 -0.2329  0.2501  0.2374
  439POPI   GL1 6947  13.998   6.439  10.729 -0.1467  0.3049  0.0722
  439POPI   GL2 6948  13.804   6.696  10.648 -0.2227 -0.2108 -0.3261
  439POPI   C1A 6949  14.216   6.375  10.285  0.3536  0.1525  0.0018
  439POPI   D2A 6950  14.206   6.388   9.823  0.3268 -0.0255 -0.1626
  439POPI   C3A 6951  14.296   6.292   9.396 -0.1146  0.0859 -0.0463
  439POPI   C4A 6952  14.558   6.433   9.020  0.5086  0.0285  0.0715
  439POPI   C1B 6953  14.082   6.869  10.342  0.1087  0.1890  0.1759
  439POPI   C2B 6954  14.169   6.883   9.860  0.0574 -0.2459  0.1197
  439POPI   C3B 6955  13.972   6.748   9.532 -0.2051  0.1250  0.1482
  439POPI   C4B 6956  13.809   6.522   9.270 -0.0616  0.0779 -0.0126
  440POPI    C1 6957  12.211   6.068  11.552  0.0684 -0.0889 -0.0832
  440POPI    C2 6958  11.917   6.098  11.822  0.1888  0.0821  0.0307
  440POPI    C3 6959  12.296   6.171  11.929  0.2432  0.1051 -0.1733
  440POPI   PO4 6960  12.030   6.173  11.330  0.1642 -0.1723 -0.1380
  440POPI   GL1 6961  12.015   6.121  10.948 -0.0083  0.1882 -0.0123
  440POPI   GL2 6962  11.736   6.310  10.927 -0.0442  0.0928 -0.0667
  440POPI   C1A 6963  12.188   5.905  10.587  0.1720  0.0238 -0.0782
  440POPI   D2A 6964  12.232   5.892  10.094  0.1082  0.1809 -0.2614
  440POPI   C3A 6965  12.266   5.714   9.725 -0.1580  0.1563  0.1488
  440POPI   C4A 6966  12.460   5.641   9.383  0.0823 -0.1998 -0.1396
  440POPI   C1B 6967  11.806   6.245  10.455 -0.2156 -0.4074 -0.1236
  440POPI   C2B 6968  11.825   6.207  10.120 -0.0449  0.4056  0.0505
  440POPI   C3B 6969  11.876   6.055   9.737 -0.1251  0.1874  0.1006
  440POPI   C4B 6970  11.921   5.887   9.307  0.1208 -0.1731 -0.3434
  441POPI    C1 6971   4.091   1.134  11.529  0.0254 -0.1179 -0.1116
  441POPI    C2 6972   4.425   0.920  11.580  0.0671  0.0414  0.3241
  441POPI    C3 6973   4.200   1.017  11.896 -0.2412  0.1794  0.0670
  441POPI   PO4 6974   4.157   1.272  11.331 -0.2962  0.1582  0.2251
  441POPI   GL1 6975   3.934   1.457  11.004  0.0766 -0.0231 -0.0472
  441POPI   GL2 6976   3.641   1.432  10.890  0.1432 -0.0784 -0.0086
  441POPI   C1A 6977   3.997   1.703  10.582  0.1117 -0.3367 -0.3609
  441POPI   D2A 6978   4.104   1.854  10.143 -0.0545  0.1258 -0.0022
  441POPI   C3A 6979   4.015   1.788   9.745 -0.0938  0.0421  0.1544
  441POPI   C4A 6980   4.014   1.775   9.353 -0.0254 -0.0405 -0.1847
  441POPI   C1B 6981   3.574   1.538  10.373 -0.1565 -0.1022 -0.0158
  441POPI   C2B 6982   3.623   1.701   9.998  0.2269  0.0205  0.3358
  441POPI   C3B 6983   3.623   1.554   9.558 -0.1477 -0.1687  0.0843
  441POPI   C4B 6984   3.649   1.558   9.082  0.0412 -0.0517 -0.0708
  442POPI    C1 6985   1.142   5.665  11.057 -0.0524 -0.0505  0.2399
  442POPI    C2 6986   1.518   5.799  11.086 -0.0067 -0.1383  0.0689
  442POPI    C3 6987   1.275   5.814  11.403  0.0333  0.2377  0.0867
  442POPI   PO4 6988   1.149   5.712  10.738 -0.1551  0.1000 -0.0046
  442POPI   GL1 6989   1.513   5.518  10.555 -0.2166  0.2667  0.0446
  442POPI   GL2 6990   1.275   5.621  10.308 -0.3504  0.0346  0.1289
  442POPI   C1A 6991   1.779   5.526  10.221  0.1099 -0.1078  0.2578
  442POPI   D2A 6992   1.899   5.481   9.876  0.0215  0.0628  0.2226
  442POPI   C3A 6993   1.881   5.287   9.534  0.0133  0.0208 -0.0460
  442POPI   C4A 6994   2.034   5.398   9.117 -0.0284  0.1214  0.0135
  442POPI   C1B 6995   1.404   5.629   9.855 -0.1811  0.1834  0.2481
  442POPI   C2B 6996   1.504   5.629   9.538  0.0375  0.2867  0.3112
  442POPI   C3B 6997   1.561   5.521   9.131 -0.1577  0.1182 -0.2126
  442POPI   C4B 6998   1.288   5.730   8.747 -0.2797  0.2903  0.0459
  443POPI    C1 6999  16.511  16.527  11.438  0.0513  0.1295  0.0443
  443POPI    C2 7000  16.646  16.829  11.212 -0.0617  0.1674  0.0272
  443POPI    C3 7001  16.684  16.844  11.610 -0.0620  0.2015  0.0260
  443POPI   PO4 7002  16.504  16.322  11.166  0.4034 -0.1927  0.1454
  443POPI   GL1 7003  16.687  16.581  10.763  0.1740  0.1188  0.0512
  443POPI   GL2 7004  16.394  16.595  10.779  0.0161 -0.0670  0.2700
  443POPI   C1A 7005  16.677  16.709  10.260  0.3386  0.1750 -0.0124
  443POPI   D2A 7006  16.695  16.627   9.770 -0.0792  0.0479 -0.3619
  443POPI   C3A 7007  16.598  16.814   9.362  0.1125 -0.2456 -0.0854
  443POPI   C4A 7008  16.867  16.745   8.991  0.0077  0.2577  0.1147
  443POPI   C1B 7009  16.248  16.942  10.457 -0.1018  0.0350  0.1145
  443POPI   C2B 7010  16.168  16.965  10.015 -0.2146 -0.1492  0.1423
  443POPI   C3B 7011  16.133  16.930   9.569 -0.2845 -0.2360 -0.0777
  443POPI   C4B 7012  16.076  17.209   9.243 -0.0408  0.0049  0.1187
  444POPI    C1 7013   7.636  10.267  11.847  0.1172  0.1492  0.0288
  444POPI    C2 7014   7.793  10.413  12.185 -0.2335  0.4047  0.0885
  444POPI    C3 7015   7.400  10.344  12.161 -0.1482 -0.0508 -0.1173
  444POPI   PO4 7016   7.776  10.323  11.711 -0.0718  0.0391 -0.2315
  444POPI   GL1 7017   7.687  10.495  11.332  0.1357  0.1759 -0.2965
  444POPI   GL2 7018   7.364  10.388  11.358  0.3420  0.0247 -0.0203
  444POPI   C1A 7019   7.624  10.384  10.926  0.2468  0.2718  0.0211
  444POPI   D2A 7020   7.626  10.369  10.550  0.1039  0.1687 -0.0403
  444POPI   C3A 7021   7.689  10.295  10.092 -0.0101 -0.1856  0.1307
  444POPI   C4A 7022   7.573  10.358   9.712 -0.0759 -0.0006 -0.0976
  444POPI   C1B 7023   7.180  10.128  11.073 -0.0145 -0.1237 -0.0523
  444POPI   C2B 7024   7.061  10.194  10.600 -0.0664 -0.0658  0.1497
  444POPI   C3B 7025   7.030  10.047  10.198  0.1006  0.3574  0.2064
  444POPI   C4B 7026   7.146  10.029   9.787 -0.0814  0.1947  0.2886
  445POPI    C1 7027  17.119  13.561  11.446  0.0108  0.0292 -0.0774
  445POPI    C2 7028  16.925  13.885  11.579  0.0872  0.0760 -0.0795
  445POPI    C3 7029  16.726  13.601  11.380 -0.0619 -0.0718  0.2721
  445POPI   PO4 7030  17.357  13.673  11.310  0.0265 -0.0756 -0.1408
  445POPI   GL1 7031  17.522  13.986  10.959 -0.0118  0.0705  0.0251
  445POPI   GL2 7032  17.528  14.319  10.931 -0.1910 -0.0164  0.0236
  445POPI   C1A 7033  17.695  13.778  10.640 -0.2348  0.2066 -0.2445
  445POPI   D2A 7034  17.885  13.893  10.346 -0.0120  0.1008  0.0977
  445POPI   C3A 7035  17.890  13.731   9.900 -0.0691  0.1910  0.0917
  445POPI   C4A 7036  17.872  13.743   9.462  0.2069 -0.3026 -0.0197
  445POPI   C1B 7037  17.718  14.384  10.555 -0.3255 -0.0184  0.2443
  445POPI   C2B 7038  17.939  14.397  10.119  0.1201  0.1857  0.0611
  445POPI   C3B 7039  17.962  14.283   9.695 -0.1562 -0.0720  0.3603
  445POPI   C4B 7040  17.887  14.318   9.293 -0.1262  0.3345 -0.0800
  446POPI    C1 7041   4.333   7.335  11.360 -0.1006 -0.1190  0.0816
  446POPI    C2 7042   4.661   7.118  11.437  0.0380  0.0978  0.1099
  446POPI    C3 7043   4.692   7.468  11.245 -0.2154 -0.0423 -0.1975
  446POPI   PO4 7044   4.151   7.182  11.280  0.1412  0.3423  0.0322
  446POPI   GL1 7045   4.012   6.954  10.933  0.1105 -0.1225 -0.2326
  446POPI   GL2 7046   3.753   6.847  10.774 -0.0292 -0.1237 -0.0265
  446POPI   C1A 7047   4.251   6.999  10.550  0.0704 -0.3341 -0.0497
  446POPI   D2A 7048   4.259   7.008  10.151 -0.1558 -0.0903  0.0182
  446POPI   C3A 7049   4.261   7.078   9.774  0.0900 -0.4196  0.0160
  446POPI   C4A 7050   4.204   7.130   9.299 -0.0370 -0.0222 -0.1927
  446POPI   C1B 7051   3.814   6.821  10.302 -0.1504 -0.0428 -0.0634
  446POPI   C2B 7052   3.804   6.824   9.918 -0.2588  0.1476  0.0503
  446POPI   C3B 7053   3.794   6.791   9.454 -0.0694 -0.1150 -0.1716
  446POPI   C4B 7054   3.948   6.795   9.016 -0.2796 -0.0968 -0.0857
  447POPI    C1 7055   6.919  12.566  11.831 -0.0298 -0.1331  0.1326
  447POPI    C2 7056   6.921  12.901  12.049 -0.0244  0.0079 -0.0809
  447POPI    C3 7057   6.853  12.548  12.225 -0.1478  0.1331  0.1268
  447POPI   PO4 7058   7.091  12.662  11.646 -0.1920  0.0562  0.3287
  447POPI   GL1 7059   7.146  12.698  11.301  0.0547  0.3781 -0.0553
  447POPI   GL2 7060   6.857  12.642  11.174  0.3775  0.3289 -0.1859
  447POPI   C1A 7061   7.346  12.812  10.963 -0.2304 -0.0207 -0.0228
  447POPI   D2A 7062   7.242  12.918  10.607  0.1299  0.2601  0.2650
  447POPI   C3A 7063   7.325  12.931  10.202 -0.1234  0.0017 -0.2116
  447POPI   C4A 7064   7.367  12.703   9.850 -0.0749  0.0864  0.0614
  447POPI   C1B 7065   6.776  12.558  10.779  0.0797  0.0031 -0.1733
  447POPI   C2B 7066   6.806  12.459  10.326 -0.1625  0.0997 -0.1660
  447POPI   C3B 7067   6.944  12.459   9.895  0.1752  0.0566  0.0883
  447POPI   C4B 7068   6.852  12.296   9.543  0.0756  0.0432  0.0294
  448POPI    C1 7069  14.342   8.282  11.063 -0.0403 -0.2090  0.0057
  448POPI    C2 7070  14.109   7.958  11.043 -0.1751 -0.1114 -0.0142
  448POPI    C3 7071  14.086   8.201  11.360 -0.0182 -0.1628  0.0376
  448POPI   PO4 7072  14.451   8.353  10.838  0.3055 -0.3103  0.1414
  448POPI   GL1 7073  14.495   8.289  10.393  0.1305  0.0050  0.2172
  448POPI   GL2 7074  14.704   8.135  10.173  0.1228  0.1517 -0.1694
  448POPI   C1A 7075  14.233   8.411  10.113 -0.2262 -0.0318  0.1754
  448POPI   D2A 7076  14.085   8.506   9.730  0.0123  0.0863 -0.1283
  448POPI   C3A 7077  14.026   8.549   9.195 -0.0025 -0.1226  0.3432
  448POPI   C4A 7078  13.763   8.338   8.811 -0.0161 -0.1058  0.0391
  448POPI   C1B 7079  14.704   8.083   9.814  0.0917 -0.5066  0.2790
  448POPI   C2B 7080  14.680   8.174   9.292 -0.0771 -0.1809  0.1941
  448POPI   C3B 7081  14.505   8.345   8.945 -0.1737  0.0032  0.0322
  448POPI   C4B 7082  14.696   8.480   8.557  0.1450 -0.0397  0.4434
  449POPI    C1 7083   4.751  11.761  11.618  0.2122 -0.2430  0.2290
  449POPI    C2 7084   4.617  11.393  11.701 -0.1794 -0.1571  0.0022
  449POPI    C3 7085   4.565  11.689  11.965 -0.1441 -0.1962  0.0530
  449POPI   PO4 7086   4.668  11.870  11.313 -0.0002  0.0533  0.2353
  449POPI   GL1 7087   4.802  12.012  10.942  0.0639 -0.2135  0.3018
  449POPI   GL2 7088   4.939  11.715  10.984  0.0596  0.0522 -0.0741
  449POPI   C1A 7089   4.619  11.928  10.578 -0.2234  0.1399 -0.0942
  449POPI   D2A 7090   4.535  11.647  10.359 -0.1035  0.0153 -0.2312
  449POPI   C3A 7091   4.500  11.723  10.035  0.2461  0.0782  0.5765
  449POPI   C4A 7092   4.546  11.785   9.586 -0.1865 -0.4889 -0.0570
  449POPI   C1B 7093   4.938  11.498  10.627 -0.3168  0.1679  0.1591
  449POPI   C2B 7094   5.006  11.433  10.249  0.0341 -0.2232 -0.1587
  449POPI   C3B 7095   4.893  11.450   9.886  0.2829  0.2070 -0.0903
  449POPI   C4B 7096   5.010  11.458   9.462  0.0604 -0.3292  0.3969
  450POPI    C1 7097   2.196  14.981  11.786  0.1582  0.2007  0.0039
  450POPI    C2 7098   1.802  15.037  11.740  0.1626  0.2121 -0.0195
  450POPI    C3 7099   2.004  15.249  12.012  0.1325  0.1281  0.0688
  450POPI   PO4 7100   2.245  14.994  11.496 -0.2196 -0.0198  0.2646
  450POPI   GL1 7101   2.517  14.867  11.182 -0.0852 -0.1318 -0.1094
  450POPI   GL2 7102   2.248  14.688  11.056 -0.1420  0.0166 -0.0654
  450POPI   C1A 7103   2.723  14.940  10.795  0.0187  0.2780 -0.2610
  450POPI   D2A 7104   2.837  14.990  10.341 -0.1286  0.0770  0.2292
  450POPI   C3A 7105   2.847  14.980   9.911  0.0689  0.1081  0.1667
  450POPI   C4A 7106   3.008  15.013   9.470  0.1125  0.1759  0.2000
  450POPI   C1B 7107   2.329  14.635  10.649 -0.1298 -0.1252 -0.0010
  450POPI   C2B 7108   2.416  14.795  10.211 -0.0094 -0.1348  0.1871
  450POPI   C3B 7109   2.450  14.739   9.796 -0.0423  0.0430  0.2083
  450POPI   C4B 7110   2.536  14.789   9.346 -0.1097  0.3778  0.0078
  451POPI    C1 7111   0.158   0.790  11.573  0.1164  0.0304  0.0237
  451POPI    C2 7112  -0.146   0.913  11.345  0.0453 -0.0766  0.0602
  451POPI    C3 7113  -0.168   0.947  11.743  0.0701 -0.1081  0.0642
  451POPI   PO4 7114   0.344   0.822  11.422  0.2946  0.1628 -0.2126
  451POPI   GL1 7115   0.603   0.685  11.000 -0.1938  0.0795 -0.1354
  451POPI   GL2 7116   0.304   0.478  10.982  0.2644 -0.2547  0.0694
  451POPI   C1A 7117   0.739   0.688  10.553 -0.1896  0.0418 -0.0577
  451POPI   D2A 7118   0.778   0.662  10.151 -0.2598 -0.2982  0.0658
  451POPI   C3A 7119   0.769   0.645   9.763  0.1226  0.1053  0.1764
  451POPI   C4A 7120   0.886   0.495   9.253 -0.1400  0.1408  0.0075
  451POPI   C1B 7121   0.328   0.437  10.540  0.1222 -0.0956 -0.3356
  451POPI   C2B 7122   0.299   0.458  10.022 -0.0339  0.2238 -0.1570
  451POPI   C3B 7123   0.412   0.393   9.588  0.3135  0.0351 -0.3313
  451POPI   C4B 7124   0.437   0.285   9.157 -0.1196 -0.2265  0.1629
  452POPI    C1 7125   8.654   1.845  12.105  0.0522  0.0914  0.1757
  452POPI    C2 7126   8.740   1.796  12.492  0.2339 -0.1346  0.1091
  452POPI    C3 7127   8.774   2.158  12.324 -0.1854  0.0403  0.3835
  452POPI   PO4 7128   8.713   1.744  11.974 -0.2796 -0.0075  0.1827
  452POPI   GL1 7129   8.872   1.942  11.461  0.3491  0.1824 -0.0116
  452POPI   GL2 7130   8.557   2.069  11.404 -0.2567  0.0473  0.0825
  452POPI   C1A 7131   8.974   1.875  11.025 -0.3255  0.1353  0.2751
  452POPI   D2A 7132   9.061   1.956  10.589 -0.1236  0.2815 -0.0781
  452POPI   C3A 7133   9.073   1.951  10.157  0.1495 -0.1429  0.2290
  452POPI   C4A 7134   9.108   1.988   9.697 -0.0435 -0.1865 -0.2253
  452POPI   C1B 7135   8.692   2.242  11.101 -0.0172 -0.0357 -0.0517
  452POPI   C2B 7136   8.630   2.136  10.711 -0.1503  0.1995 -0.1250
  452POPI   C3B 7137   8.656   2.125  10.213  0.2453 -0.0607 -0.0143
  452POPI   C4B 7138   8.550   2.298   9.886  0.1001 -0.0827  0.3250
  453POPI    C1 7139  12.671   0.572  11.469  0.1665 -0.1635  0.1961
  453POPI    C2 7140  12.741   0.650  11.855 -0.0710  0.1250  0.1848
  453POPI    C3 7141  12.369   0.673  11.711  0.0160  0.0176 -0.0627
  453POPI   PO4 7142  12.752   0.268  11.429 -0.2277  0.0365 -0.1448
  453POPI   GL1 7143  12.959   0.199  11.113 -0.6415 -0.0745  0.0879
  453POPI   GL2 7144  13.182   0.005  11.162 -0.2918 -0.0159 -0.1759
  453POPI   C1A 7145  12.631   0.251  10.832 -0.0933  0.0184 -0.0554
  453POPI   D2A 7146  12.629   0.421  10.441 -0.0203  0.3000 -0.0294
  453POPI   C3A 7147  12.603   0.248  10.057  0.1084 -0.0652 -0.0095
  453POPI   C4A 7148  12.612   0.116   9.563 -0.1311 -0.0658  0.2309
  453POPI   C1B 7149  13.170   0.054  10.660  0.2723 -0.0505 -0.0694
  453POPI   C2B 7150  13.139  -0.015  10.221  0.0416  0.1751 -0.0598
  453POPI   C3B 7151  13.129  -0.102   9.755 -0.0155 -0.0687 -0.0443
  453POPI   C4B 7152  13.091  -0.155   9.316 -0.0585 -0.5081 -0.1294
  454POPI    C1 7153   3.666  15.354  11.726  0.1483 -0.2025 -0.0381
  454POPI    C2 7154   3.870  15.439  12.060 -0.0709 -0.1603  0.0871
  454POPI    C3 7155   3.615  15.131  12.055 -0.2927  0.0214  0.0523
  454POPI   PO4 7156   3.633  15.551  11.618  0.0960  0.0062  0.4258
  454POPI   GL1 7157   3.410  15.645  11.219 -0.1800 -0.3753  0.1589
  454POPI   GL2 7158   3.601  15.825  11.070  0.0429  0.2161 -0.0119
  454POPI   C1A 7159   3.075  15.545  10.908  0.1282  0.1291  0.2119
  454POPI   D2A 7160   2.829  15.468  10.520  0.0743 -0.4307  0.0104
  454POPI   C3A 7161   2.945  15.554  10.112 -0.0391  0.1062 -0.2146
  454POPI   C4A 7162   2.934  15.458   9.727  0.0124  0.3014  0.0231
  454POPI   C1B 7163   3.498  15.689  10.661  0.3790  0.0618 -0.1395
  454POPI   C2B 7164   3.365  15.786  10.215  0.0715  0.0841  0.5309
  454POPI   C3B 7165   3.393  15.705   9.778 -0.1859 -0.0324 -0.1052
  454POPI   C4B 7166   3.446  15.626   9.298 -0.0276 -0.1660 -0.0573
  455POPI    C1 7167  14.261   4.828  11.611  0.1106  0.0119 -0.0612
  455POPI    C2 7168  14.393   4.516  11.824 -0.0832  0.1096  0.2088
  455POPI    C3 7169  14.653   4.756  11.638  0.0677 -0.2090 -0.0011
  455POPI   PO4 7170  13.981   4.584  11.533 -0.1698  0.1943 -0.0254
  455POPI   GL1 7171  14.012   4.509  11.152  0.0735 -0.0921 -0.1427
  455POPI   GL2 7172  14.044   4.219  10.973  0.1813  0.0287 -0.1732
  455POPI   C1A 7173  13.884   4.638  10.731  0.1210  0.1006 -0.1075
  455POPI   D2A 7174  13.728   4.485  10.350  0.0640 -0.1393  0.1295
  455POPI   C3A 7175  13.804   4.234  10.005 -0.4273  0.1306  0.0019
  455POPI   C4A 7176  13.715   4.020   9.678  0.2875 -0.2279 -0.0852
  455POPI   C1B 7177  14.002   4.111  10.513 -0.0561  0.1915  0.3289
  455POPI   C2B 7178  14.025   3.817  10.101  0.1096  0.3199  0.2497
  455POPI   C3B 7179  13.998   3.571   9.714 -0.1704 -0.1697 -0.1939
  455POPI   C4B 7180  13.987   3.650   9.230  0.0525 -0.2470 -0.1018
  456POPI    C1 7181   8.811   5.752  11.798 -0.1294 -0.0910 -0.0077
  456POPI    C2 7182   8.729   5.425  12.013 -0.1243 -0.0688  0.0281
  456POPI    C3 7183   8.505   5.516  11.694 -0.1772 -0.0623  0.0671
  456POPI   PO4 7184   9.009   5.770  11.742  0.0103  0.0038  0.1400
  456POPI   GL1 7185   9.200   5.709  11.359 -0.0359  0.0365  0.0469
  456POPI   GL2 7186   8.950   5.642  11.220 -0.1857  0.0168 -0.0784
  456POPI   C1A 7187   9.123   6.103  11.069  0.0780 -0.1166 -0.0145
  456POPI   D2A 7188   9.334   6.185  10.760 -0.1238  0.1763 -0.0660
  456POPI   C3A 7189   9.085   6.108  10.431 -0.1102  0.0618  0.2696
  456POPI   C4A 7190   9.147   6.002   9.961  0.0341 -0.0627 -0.1839
  456POPI   C1B 7191   9.017   5.706  10.738 -0.3811  0.0021 -0.1780
  456POPI   C2B 7192   9.168   5.605  10.321  0.0313 -0.1046  0.1118
  456POPI   C3B 7193   9.069   5.510   9.937  0.1541  0.2457 -0.0407
  456POPI   C4B 7194   9.093   5.625   9.521 -0.0402  0.1973 -0.1072
  457POPI    C1 7195  11.971   9.826  11.351  0.0476 -0.0810 -0.3201
  457POPI    C2 7196  12.076   9.641  11.689 -0.1172  0.1084 -0.1622
  457POPI    C3 7197  12.279   9.963  11.566 -0.0849  0.0657 -0.2215
  457POPI   PO4 7198  11.979   9.672  11.198 -0.1499 -0.0160  0.0500
  457POPI   GL1 7199  12.131   9.450  10.876 -0.0442  0.1008  0.3334
  457POPI   GL2 7200  12.538   9.490  10.754  0.1478  0.0859  0.2288
  457POPI   C1A 7201  11.885   9.314  10.503  0.1787 -0.1187 -0.0693
  457POPI   D2A 7202  11.843   9.273  10.035  0.0115 -0.2196  0.2154
  457POPI   C3A 7203  11.732   9.407   9.790  0.0302  0.0879  0.2897
  457POPI   C4A 7204  11.640   9.457   9.298 -0.2754 -0.0524 -0.0462
  457POPI   C1B 7205  12.302   9.566  10.336 -0.0964 -0.2372  0.2494
  457POPI   C2B 7206  12.337   9.588   9.952  0.0374  0.1894  0.2386
  457POPI   C3B 7207  12.148   9.689   9.559 -0.1071  0.0252  0.3362
  457POPI   C4B 7208  12.156   9.713   9.108 -0.0513  0.2302  0.0349
  458POPI    C1 7209  11.532  15.768  11.565 -0.0634 -0.0155 -0.0624
  458POPI    C2 7210  11.614  15.629  11.931  0.0372  0.1020 -0.0398
  458POPI    C3 7211  11.340  15.917  11.883  0.0053  0.0685 -0.0599
  458POPI   PO4 7212  11.434  15.577  11.424 -0.0978 -0.1125  0.4264
  458POPI   GL1 7213  11.251  15.668  11.028  0.0791 -0.1551  0.6933
  458POPI   GL2 7214  11.326  15.965  11.095  0.2082 -0.1724 -0.1738
  458POPI   C1A 7215  11.195  15.695  10.627  0.2432 -0.3933  0.0094
  458POPI   D2A 7216  11.150  15.750  10.132  0.0987  0.0615  0.1764
  458POPI   C3A 7217  11.093  15.840   9.697  0.2730  0.2550  0.1422
  458POPI   C4A 7218  11.104  15.938   9.221 -0.0506  0.1614 -0.2913
  458POPI   C1B 7219  11.271  16.160  10.727  0.2485 -0.1223 -0.1838
  458POPI   C2B 7220  11.183  16.256  10.336 -0.3173 -0.2184 -0.2520
  458POPI   C3B 7221  11.190  16.301   9.996 -0.2181 -0.0355 -0.0510
  458POPI   C4B 7222  11.102  16.355   9.518 -0.2380  0.2439 -0.3622
  459POPI    C1 7223  11.541   9.657  11.500 -0.1849 -0.0809  0.0236
  459POPI    C2 7224  11.713   9.309  11.593 -0.1450 -0.0860 -0.0690
  459POPI    C3 7225  11.419   9.453  11.822 -0.1523 -0.1737 -0.0225
  459POPI   PO4 7226  11.437   9.613  11.275  0.0194 -0.1524  0.2158
  459POPI   GL1 7227  11.611   9.749  10.870  0.2237 -0.0244 -0.3386
  459POPI   GL2 7228  11.326   9.956  10.881 -0.0435 -0.0676  0.0770
  459POPI   C1A 7229  11.368   9.579  10.447 -0.4817  0.0113  0.2081
  459POPI   D2A 7230  11.369   9.691   9.923 -0.0709  0.1461  0.0550
  459POPI   C3A 7231  11.211   9.676   9.603 -0.0159  0.3882 -0.0057
  459POPI   C4A 7232  11.112   9.728   9.132  0.0503 -0.0444  0.1180
  459POPI   C1B 7233  11.431  10.134  10.514 -0.2441  0.2730 -0.0055
  459POPI   C2B 7234  11.461  10.175  10.155  0.1614 -0.2308 -0.0774
  459POPI   C3B 7235  11.285  10.201   9.779  0.0747  0.1078  0.0400
  459POPI   C4B 7236  11.315  10.070   9.380  0.1071 -0.0145 -0.1265
  460POPI    C1 7237  11.322  12.780  11.824  0.0316 -0.0321  0.0128
  460POPI    C2 7238  11.243  13.129  12.004 -0.2058 -0.0739 -0.0065
  460POPI    C3 7239  11.191  12.785  12.202  0.0736 -0.0983  0.0283
  460POPI   PO4 7240  11.252  12.822  11.625 -0.0420  0.2935 -0.1916
  460POPI   GL1 7241  11.382  12.684  11.274 -0.1565  0.3061 -0.1129
  460POPI   GL2 7242  11.634  12.658  11.129  0.1858  0.2539 -0.0657
  460POPI   C1A 7243  11.071  12.556  10.950 -0.3016  0.2273  0.0696
  460POPI   D2A 7244  11.034  12.648  10.454 -0.2447 -0.2270 -0.0462
  460POPI   C3A 7245  11.036  12.598  10.030  0.2717  0.1643  0.0882
  460POPI   C4A 7246  11.063  12.606   9.553 -0.0046 -0.1043  0.3742
  460POPI   C1B 7247  11.447  12.832  10.765 -0.1527  0.1207  0.0718
  460POPI   C2B 7248  11.502  12.835  10.347 -0.1806 -0.0236  0.0344
  460POPI   C3B 7249  11.477  12.815   9.927  0.2385 -0.4001  0.0037
  460POPI   C4B 7250  11.554  12.841   9.507 -0.2366  0.1275  0.1541
  461POPI    C1 7251  16.008   0.632  11.729  0.0851 -0.0866 -0.0660
  461POPI    C2 7252  15.701   0.382  11.786 -0.0656  0.1227  0.0555
  461POPI    C3 7253  16.024   0.358  12.020 -0.1892  0.2093  0.2372
  461POPI   PO4 7254  16.076   0.696  11.485 -0.1278  0.0715  0.0088
  461POPI   GL1 7255  16.078   0.824  11.035  0.0052 -0.0957  0.1912
  461POPI   GL2 7256  16.343   0.795  10.936  0.0970 -0.0429  0.0243
  461POPI   C1A 7257  15.800   0.978  10.756 -0.3807 -0.0151  0.0190
  461POPI   D2A 7258  15.716   1.007  10.261 -0.2359  0.4845 -0.0843
  461POPI   C3A 7259  15.749   0.903   9.848 -0.1784  0.0779 -0.1194
  461POPI   C4A 7260  15.778   0.892   9.335  0.1293 -0.0083  0.0238
  461POPI   C1B 7261  16.136   0.689  10.584 -0.2803  0.0160 -0.2638
  461POPI   C2B 7262  16.118   0.767  10.125  0.0679  0.3195 -0.1270
  461POPI   C3B 7263  16.312   0.749   9.658  0.3502  0.0349  0.0649
  461POPI   C4B 7264  16.327   0.892   9.189  0.2774  0.1623  0.1073
  462POPI    C1 7265   4.824   2.854  11.781  0.0618 -0.0702  0.0139
  462POPI    C2 7266   4.676   2.671  12.104  0.2698 -0.0168  0.1415
  462POPI    C3 7267   4.713   3.069  12.100 -0.0283  0.0119 -0.0722
  462POPI   PO4 7268   5.047   2.758  11.733 -0.2023  0.0687 -0.0084
  462POPI   GL1 7269   5.094   2.921  11.300 -0.0921 -0.0873 -0.1979
  462POPI   GL2 7270   4.818   2.817  11.113 -0.2242 -0.0037  0.0325
  462POPI   C1A 7271   5.290   3.046  10.993  0.0442 -0.1010  0.0169
  462POPI   D2A 7272   5.284   3.026  10.550 -0.0855  0.0908 -0.1734
  462POPI   C3A 7273   5.435   3.064  10.072 -0.0020  0.1241  0.0489
  462POPI   C4A 7274   5.474   2.971   9.580  0.1823  0.1932  0.1448
  462POPI   C1B 7275   4.806   2.788  10.707 -0.0403 -0.2104  0.0517
  462POPI   C2B 7276   4.846   2.840  10.346 -0.4485 -0.0923  0.0700
  462POPI   C3B 7277   5.003   2.775   9.927  0.0461 -0.1386  0.1253
  462POPI   C4B 7278   4.936   2.750   9.535 -0.1453 -0.0055 -0.0666
  463POPI    C1 7279   9.660  12.194  11.844 -0.0816  0.2055  0.1380
  463POPI    C2 7280  10.029  12.320  11.755 -0.0474 -0.1652 -0.2805
  463POPI    C3 7281   9.956  12.150  12.110  0.1503  0.0290 -0.1438
  463POPI   PO4 7282   9.617  12.050  11.530  0.0731  0.1714  0.0727
  463POPI   GL1 7283   9.404  12.064  11.195  0.2841  0.2269  0.0892
  463POPI   GL2 7284   9.582  12.367  11.055  0.1252 -0.1398 -0.0550
  463POPI   C1A 7285   9.487  11.922  10.815  0.0704 -0.1122 -0.0115
  463POPI   D2A 7286   9.582  11.910  10.463 -0.0568 -0.2308  0.1576
  463POPI   C3A 7287   9.481  11.833   9.996  0.2179 -0.1374 -0.0171
  463POPI   C4A 7288   9.667  11.756   9.627 -0.1339  0.2640 -0.1502
  463POPI   C1B 7289   9.657  12.391  10.595  0.1396 -0.3135 -0.0715
  463POPI   C2B 7290   9.742  12.353  10.196 -0.3342 -0.2904  0.0316
  463POPI   C3B 7291   9.540  12.331   9.878  0.0268 -0.2414  0.5002
  463POPI   C4B 7292   9.484  12.500   9.525 -0.0908 -0.1153 -0.2503
  464POPI    C1 7293   8.367   4.563  12.046 -0.2173  0.0151 -0.0343
  464POPI    C2 7294   8.605   4.825  12.232 -0.1885 -0.1292  0.1343
  464POPI    C3 7295   8.219   4.913  12.172 -0.0904  0.1143 -0.1589
  464POPI   PO4 7296   8.533   4.475  11.780  0.0133  0.2248 -0.3215
  464POPI   GL1 7297   8.772   4.607  11.509  0.1202  0.0727  0.0297
  464POPI   GL2 7298   8.433   4.757  11.288 -0.1466 -0.0091  0.2937
  464POPI   C1A 7299   8.867   4.925  11.179  0.1247 -0.1490  0.0756
  464POPI   D2A 7300   9.060   4.803  10.684  0.1575 -0.0895  0.1240
  464POPI   C3A 7301   9.156   4.989  10.257  0.0754  0.0903  0.0071
  464POPI   C4A 7302   9.076   5.046   9.791  0.0449 -0.0140  0.1999
  464POPI   C1B 7303   8.479   4.778  10.847  0.3192 -0.0885 -0.1394
  464POPI   C2B 7304   8.549   4.822  10.389 -0.2132 -0.0381 -0.1274
  464POPI   C3B 7305   8.711   4.831  10.016 -0.0494  0.0560 -0.0715
  464POPI   C4B 7306   8.723   4.757   9.633  0.1210 -0.2764 -0.1509
  465POPI    C1 7307   0.040  11.364  11.219 -0.1185 -0.0262 -0.1588
  465POPI    C2 7308   0.381  11.269  11.405 -0.1209  0.0451 -0.1176
  465POPI    C3 7309   0.388  11.505  11.082 -0.1099 -0.1356 -0.2511
  465POPI   PO4 7310  -0.067  11.144  11.243  0.1277  0.1682 -0.0405
  465POPI   GL1 7311  -0.166  10.999  10.765 -0.2551 -0.2680 -0.2051
  465POPI   GL2 7312  -0.177  11.404  10.784  0.2659  0.0072  0.1793
  465POPI   C1A 7313  -0.226  10.987  10.342 -0.1456 -0.0239  0.2592
  465POPI   D2A 7314  -0.152  10.973   9.858  0.0629  0.0185  0.2436
  465POPI   C3A 7315  -0.087  11.048   9.419  0.0247  0.1229  0.3901
  465POPI   C4A 7316  -0.154  11.229   8.996  0.3581 -0.0352 -0.0104
  465POPI   C1B 7317   0.175  11.480  10.565 -0.1178 -0.1687 -0.0669
  465POPI   C2B 7318   0.444  11.633  10.234  0.0150 -0.0468 -0.0613
  465POPI   C3B 7319   0.377  11.718   9.827  0.0625 -0.0762  0.2657
  465POPI   C4B 7320   0.562  11.697   9.416  0.2851  0.0004 -0.2046
  466POPI    C1 7321  13.312   6.866  11.396 -0.0007  0.0933  0.0378
  466POPI    C2 7322  13.668   6.740  11.530  0.0732  0.1187 -0.1316
  466POPI    C3 7323  13.509   7.079  11.671 -0.0215 -0.0432  0.1599
  466POPI   PO4 7324  13.392   6.930  11.093 -0.0857  0.5313  0.0217
  466POPI   GL1 7325  13.231   6.874  10.698 -0.0969  0.0337  0.1943
  466POPI   GL2 7326  13.154   7.154  10.665 -0.3311  0.2437 -0.0689
  466POPI   C1A 7327  13.324   6.723  10.282  0.1193 -0.2308  0.0261
  466POPI   D2A 7328  13.237   6.822   9.794 -0.1969 -0.1679  0.0932
  466POPI   C3A 7329  13.187   6.669   9.386 -0.1060  0.2970 -0.0822
  466POPI   C4A 7330  13.374   6.572   8.992  0.0711  0.2224  0.0507
  466POPI   C1B 7331  13.034   7.253  10.284 -0.0950  0.1706 -0.0819
  466POPI   C2B 7332  13.043   7.250   9.897  0.1227 -0.1311 -0.2027
  466POPI   C3B 7333  13.005   7.190   9.497  0.1374 -0.1951  0.0027
  466POPI   C4B 7334  12.811   6.921   9.093  0.2542 -0.1069  0.0164
  467POPI    C1 7335   9.878   2.621  12.152 -0.2758 -0.0432  0.0442
  467POPI    C2 7336  10.092   2.318  12.301 -0.2094 -0.0550 -0.0741
  467POPI    C3 7337   9.758   2.437  12.486 -0.0521  0.0242  0.1634
  467POPI   PO4 7338  10.000   2.517  11.833 -0.0282 -0.2016 -0.0236
  467POPI   GL1 7339  10.026   2.547  11.435 -0.3023 -0.4272  0.1506
  467POPI   GL2 7340  10.248   2.824  11.341  0.2169 -0.1191 -0.1262
  467POPI   C1A 7341   9.914   2.455  11.048 -0.0186  0.0523 -0.0567
  467POPI   D2A 7342  10.122   2.410  10.661  0.1636  0.0961 -0.2127
  467POPI   C3A 7343   9.976   2.439  10.313 -0.0484 -0.1782  0.0327
  467POPI   C4A 7344  10.036   2.379   9.978 -0.2791  0.1274  0.0885
  467POPI   C1B 7345  10.391   2.705  10.911 -0.0201  0.0734 -0.0036
  467POPI   C2B 7346  10.454   2.650  10.397 -0.0365  0.0778 -0.1086
  467POPI   C3B 7347  10.466   2.656   9.933 -0.0250 -0.2220 -0.2131
  467POPI   C4B 7348  10.297   2.599   9.504 -0.1357 -0.0059 -0.0739
  468POPI    C1 7349   7.086   2.291  11.761 -0.3390 -0.0909 -0.0324
  468POPI    C2 7350   6.780   2.370  12.006 -0.1828  0.1971  0.0747
  468POPI    C3 7351   7.108   2.598  12.016 -0.0459  0.0166 -0.1828
  468POPI   PO4 7352   6.912   2.147  11.563 -0.2454 -0.2935  0.1013
  468POPI   GL1 7353   6.589   2.294  11.222  0.0175 -0.1285  0.1495
  468POPI   GL2 7354   6.682   2.584  11.169 -0.0658 -0.0096  0.1482
  468POPI   C1A 7355   6.770   2.160  10.831  0.2377  0.2873 -0.5326
  468POPI   D2A 7356   6.823   2.221  10.438 -0.0263 -0.0914 -0.0950
  468POPI   C3A 7357   6.739   2.349   9.938  0.0918  0.0757 -0.5031
  468POPI   C4A 7358   6.834   2.331   9.397 -0.0306 -0.0365 -0.1865
  468POPI   C1B 7359   6.770   2.690  10.765 -0.3068  0.1458 -0.0060
  468POPI   C2B 7360   6.862   2.776  10.307  0.0527  0.0902 -0.0263
  468POPI   C3B 7361   6.783   2.835   9.850 -0.0490 -0.0072  0.1008
  468POPI   C4B 7362   6.685   2.810   9.416 -0.1290  0.1911 -0.3003
  469POPI    C1 7363  14.440  11.365  11.150 -0.0363 -0.0613  0.3183
  469POPI    C2 7364  14.781  11.540  11.035 -0.1024 -0.1647 -0.0504
  469POPI    C3 7365  14.792  11.205  11.253  0.0312 -0.1720 -0.0673
  469POPI   PO4 7366  14.294  11.366  10.873  0.0578 -0.0767  0.1062
  469POPI   GL1 7367  13.938  11.456  10.709  0.0772  0.1510 -0.0821
  469POPI   GL2 7368  13.696  11.347  10.629 -0.2333  0.0598 -0.0925
  469POPI   C1A 7369  13.948  11.356  10.246 -0.0647 -0.0153 -0.0824
  469POPI   D2A 7370  13.674  11.410   9.877  0.1799 -0.0070  0.5253
  469POPI   C3A 7371  13.748  11.428   9.451  0.2877 -0.1179 -0.1840
  469POPI   C4A 7372  13.910  11.296   9.011 -0.1910  0.0052  0.0555
  469POPI   C1B 7373  13.404  11.186  10.369  0.0294 -0.2931 -0.0831
  469POPI   C2B 7374  13.275  11.100   9.948  0.0998  0.0100  0.2398
  469POPI   C3B 7375  13.401  11.032   9.580  0.0375  0.0211  0.1645
  469POPI   C4B 7376  13.463  10.999   9.125  0.1481  0.1053  0.0609
  470POPI    C1 7377  10.652   7.811  11.563  0.0873  0.0661  0.0043
  470POPI    C2 7378  10.719   8.092  11.840 -0.2578  0.0610  0.0975
  470POPI    C3 7379  10.504   7.767  11.932 -0.1609 -0.0635 -0.1079
  470POPI   PO4 7380  10.735   7.937  11.312 -0.2130 -0.0790  0.1150
  470POPI   GL1 7381  10.987   7.939  10.989 -0.0263 -0.2756 -0.3725
  470POPI   GL2 7382  10.737   7.981  10.789  0.1573  0.2421 -0.0943
  470POPI   C1A 7383  11.338   8.117  10.734  0.0227 -0.0884  0.1124
  470POPI   D2A 7384  11.451   8.213  10.313 -0.1620  0.1084 -0.1953
  470POPI   C3A 7385  11.167   8.046  10.141 -0.0247 -0.1911 -0.1424
  470POPI   C4A 7386  11.115   8.096   9.636 -0.0234  0.2446  0.2651
  470POPI   C1B 7387  10.679   7.871  10.442 -0.1347  0.0309  0.2103
  470POPI   C2B 7388  10.735   7.873   9.937  0.0440  0.2755  0.2450
  470POPI   C3B 7389  10.647   7.912   9.536  0.0478  0.2320  0.2153
  470POPI   C4B 7390  10.660   7.979   9.109 -0.0272  0.0579 -0.1492
  471POPI    C1 7391  13.739  10.090  11.106  0.0206  0.1677 -0.0218
  471POPI    C2 7392  14.002   9.953  11.374  0.0882  0.1369 -0.1035
  471POPI    C3 7393  13.703  10.191  11.491  0.1418  0.1573 -0.0074
  471POPI   PO4 7394  13.626   9.840  10.964  0.2036 -0.0570 -0.1433
  471POPI   GL1 7395  13.736   9.677  10.561 -0.1588 -0.1029 -0.5247
  471POPI   GL2 7396  13.612   9.952  10.488 -0.0551 -0.0750 -0.0246
  471POPI   C1A 7397  13.761   9.479  10.073  0.2505 -0.3362  0.0665
  471POPI   D2A 7398  13.826   9.296   9.748  0.1388 -0.0538  0.0124
  471POPI   C3A 7399  13.740   9.215   9.313  0.2341 -0.0492 -0.4415
  471POPI   C4A 7400  13.506   9.202   9.006 -0.0319  0.0248  0.2339
  471POPI   C1B 7401  13.617  10.017  10.115  0.0380  0.1489  0.1802
  471POPI   C2B 7402  13.752   9.910   9.661  0.0970 -0.0185  0.1872
  471POPI   C3B 7403  13.858   9.755   9.179  0.2171 -0.0284 -0.2470
  471POPI   C4B 7404  13.849   9.506   8.809  0.0614 -0.1313 -0.2197
  472POPI    C1 7405   1.933   2.620  11.545  0.1486 -0.0884 -0.3682
  472POPI    C2 7406   1.599   2.403  11.515 -0.0253  0.1054  0.0733
  472POPI    C3 7407   1.799   2.414  11.861 -0.0015  0.6167  0.0506
  472POPI   PO4 7408   2.097   2.514  11.341 -0.1433  0.2866 -0.0647
  472POPI   GL1 7409   1.961   2.467  10.909 -0.1399  0.0453 -0.0800
  472POPI   GL2 7410   2.251   2.332  10.662 -0.0839  0.1159 -0.0869
  472POPI   C1A 7411   1.777   2.684  10.524  0.3089  0.2589 -0.0387
  472POPI   D2A 7412   1.701   2.695  10.142 -0.1642  0.2391  0.0896
  472POPI   C3A 7413   1.776   2.669   9.631 -0.1172  0.1202  0.1824
  472POPI   C4A 7414   1.778   2.644   9.150  0.0813 -0.0989  0.0154
  472POPI   C1B 7415   2.167   2.440  10.346  0.0597 -0.2412  0.0727
  472POPI   C2B 7416   2.130   2.473   9.972 -0.0627  0.1355  0.0403
  472POPI   C3B 7417   2.224   2.371   9.502 -0.0274 -0.0157  0.1654
  472POPI   C4B 7418   2.219   2.344   9.039  0.0044  0.1334 -0.2252
  473DPPI    C1 7419   4.466   6.614  11.695  0.1915 -0.0650 -0.0587
  473DPPI    C2 7420   4.336   6.982  11.783  0.0276 -0.1070 -0.1213
  473DPPI    C3 7421   4.115   6.664  11.880  0.2083 -0.1947  0.0087
  473DPPI   PO4 7422   4.543   6.611  11.481  0.1702 -0.0382 -0.2136
  473DPPI   GL1 7423   4.572   6.721  10.981 -0.2302 -0.1329  0.0044
  473DPPI   GL2 7424   4.619   7.138  10.871 -0.1414 -0.1272 -0.3435
  473DPPI   C1A 7425   4.647   6.720  10.515 -0.0185  0.0174 -0.0003
  473DPPI   C2A 7426   4.732   6.819  10.053 -0.1009 -0.1611 -0.1534
  473DPPI   C3A 7427   4.766   6.830   9.598 -0.1678  0.2485 -0.2753
  473DPPI   C4A 7428   4.859   6.525   9.167 -0.1549 -0.0356 -0.0817
  473DPPI   C1B 7429   4.695   7.256  10.416 -0.0992  0.2292  0.1198
  473DPPI   C2B 7430   4.709   7.336   9.891 -0.0861  0.2631 -0.0691
  473DPPI   C3B 7431   4.756   7.351   9.384 -0.1780  0.0016 -0.0258
  473DPPI   C4B 7432   4.517   7.442   9.019 -0.0418  0.0590  0.2282
  474DPPI    C1 7433   0.028   1.729  11.829  0.0885  0.0119 -0.0188
  474DPPI    C2 7434  -0.186   1.401  11.912 -0.1552  0.1684 -0.0171
  474DPPI    C3 7435   0.143   1.484  12.124  0.0448 -0.1987 -0.1743
  474DPPI   PO4 7436  -0.003   1.761  11.476 -0.0137 -0.0817 -0.0501
  474DPPI   GL1 7437  -0.262   1.710  11.095 -0.1022  0.1277  0.4603
  474DPPI   GL2 7438  -0.189   1.906  10.872  0.1499 -0.0828 -0.0674
  474DPPI   C1A 7439   0.149   1.564  10.858 -0.0864 -0.3009 -0.4244
  474DPPI   C2A 7440   0.247   1.372  10.561 -0.2606 -0.0752  0.0116
  474DPPI   C3A 7441   0.357   1.457  10.074 -0.2106  0.0964  0.0074
  474DPPI   C4A 7442   0.402   1.493   9.566  0.1316 -0.4155 -0.1957
  474DPPI   C1B 7443  -0.118   1.745  10.436  0.2009 -0.1632  0.2258
  474DPPI   C2B 7444  -0.121   1.735   9.954 -0.0079 -0.1256 -0.0305
  474DPPI   C3B 7445  -0.137   1.837   9.551  0.0556 -0.0097  0.1305
  474DPPI   C4B 7446  -0.119   1.752   9.019 -0.2479 -0.0086  0.1193
  475DPPI    C1 7447   4.885  15.463  11.636 -0.1148 -0.1436  0.1111
  475DPPI    C2 7448   4.836  15.436  12.032 -0.1790  0.0418  0.1171
  475DPPI    C3 7449   4.524  15.523  11.797 -0.0876  0.2004  0.0527
  475DPPI   PO4 7450   5.019  15.728  11.607  0.2020 -0.2643  0.1171
  475DPPI   GL1 7451   5.144  15.795  11.165 -0.1803 -0.2057  0.1275
  475DPPI   GL2 7452   4.953  15.597  11.028  0.0831 -0.0647  0.0307
  475DPPI   C1A 7453   5.255  16.047  10.711 -0.2229  0.0648  0.0995
  475DPPI   C2A 7454   5.312  16.047  10.237  0.3362  0.0707 -0.1652
  475DPPI   C3A 7455   5.342  16.298   9.817  0.2715  0.2079  0.3437
  475DPPI   C4A 7456   5.380  16.327   9.367  0.2374  0.0532  0.0383
  475DPPI   C1B 7457   4.886  15.638  10.576 -0.1014 -0.1379  0.0157
  475DPPI   C2B 7458   4.840  15.628  10.150 -0.2358  0.3852 -0.3803
  475DPPI   C3B 7459   4.733  15.614   9.804  0.2122  0.1172  0.3864
  475DPPI   C4B 7460   4.671  15.314   9.482  0.2712  0.0717  0.0040
  476DPPI    C1 7461   2.239   8.900  11.802  0.0886  0.0535 -0.2301
  476DPPI    C2 7462   2.596   8.719  11.795  0.0530 -0.0143 -0.3088
  476DPPI    C3 7463   2.320   8.607  12.062  0.0657 -0.0101 -0.2940
  476DPPI   PO4 7464   2.269   8.918  11.411  0.2652  0.2131 -0.0664
  476DPPI   GL1 7465   2.373   9.062  11.043 -0.1102  0.3284 -0.2445
  476DPPI   GL2 7466   2.281   8.800  10.905  0.1389 -0.0716  0.0265
  476DPPI   C1A 7467   2.390   9.244  10.699  0.1251 -0.1017  0.1104
  476DPPI   C2A 7468   2.517   9.307  10.310  0.1674  0.0417 -0.2457
  476DPPI   C3A 7469   2.500   9.351   9.866 -0.1359 -0.0387  0.1206
  476DPPI   C4A 7470   2.518   9.268   9.467  0.2242  0.0875  0.0739
  476DPPI   C1B 7471   2.452   8.775  10.472 -0.1312 -0.2121 -0.0768
  476DPPI   C2B 7472   2.436   8.850  10.077 -0.0414 -0.0374  0.1033
  476DPPI   C3B 7473   2.526   8.781   9.682 -0.1417 -0.0732 -0.2696
  476DPPI   C4B 7474   2.569   8.813   9.327  0.2065  0.0177  0.3103
  477DPPI    C1 7475   9.759   0.407  12.081  0.0254  0.1175 -0.2258
  477DPPI    C2 7476   9.676   0.792  12.152 -0.0764  0.0752 -0.1122
  477DPPI    C3 7477   9.397   0.512  12.213  0.0092 -0.0210 -0.1576
  477DPPI   PO4 7478   9.912   0.491  11.803 -0.0806 -0.2092 -0.0163
  477DPPI   GL1 7479   9.907   0.345  11.366  0.2659 -0.1821 -0.1328
  477DPPI   GL2 7480  10.155   0.113  11.422 -0.0144 -0.1267 -0.1429
  477DPPI   C1A 7481  10.035   0.347  10.916 -0.0435  0.1580  0.0999
  477DPPI   C2A 7482  10.010   0.333  10.478 -0.4228 -0.0160  0.0177
  477DPPI   C3A 7483   9.874   0.296  10.032  0.0628  0.0938 -0.0361
  477DPPI   C4A 7484   9.867   0.347   9.580  0.3899  0.0104 -0.0257
  477DPPI   C1B 7485  10.021  -0.154  11.091  0.0343 -0.0633 -0.2891
  477DPPI   C2B 7486   9.940  -0.281  10.692  0.0912  0.0093 -0.1181
  477DPPI   C3B 7487   9.900  -0.238  10.238  0.4127 -0.2784 -0.0730
  477DPPI   C4B 7488   9.810  -0.143   9.716 -0.1430 -0.0649  0.1562
  478DPPI    C1 7489  14.853   8.250  11.133  0.2754  0.0075  0.0208
  478DPPI    C2 7490  14.656   8.404  11.446 -0.0440 -0.2488 -0.0484
  478DPPI    C3 7491  14.935   8.123  11.504  0.1551 -0.0371  0.0326
  478DPPI   PO4 7492  14.929   8.440  10.887  0.0472  0.2070 -0.2444
  478DPPI   GL1 7493  14.883   8.578  10.530  0.1412  0.2395 -0.1630
  478DPPI   GL2 7494  15.055   8.380  10.441  0.0612  0.0575  0.1509
  478DPPI   C1A 7495  14.643   8.743  10.180 -0.0158  0.0955  0.1640
  478DPPI   C2A 7496  14.530   8.677   9.762 -0.0320  0.0049  0.0707
  478DPPI   C3A 7497  14.516   8.683   9.337 -0.0113  0.2557 -0.0308
  478DPPI   C4A 7498  14.834   8.730   9.089 -0.0280 -0.0023 -0.0408
  478DPPI   C1B 7499  15.032   8.511   9.995 -0.0799  0.2016 -0.0891
  478DPPI   C2B 7500  14.945   8.511   9.527  0.1758  0.0658  0.0600
  478DPPI   C3B 7501  15.160   8.434   9.212  0.3619 -0.1551  0.1963
  478DPPI   C4B 7502  15.010   8.217   8.883  0.1672 -0.2688 -0.3613
  479DPPI    C1 7503  12.257  13.130  11.965 -0.0385  0.0793  0.2122
  479DPPI    C2 7504  12.540  13.384  12.088  0.0211  0.0295  0.1783
  479DPPI    C3 7505  12.176  13.395  12.253  0.1406 -0.1289  0.4583
  479DPPI   PO4 7506  12.209  13.197  11.762 -0.2517 -0.2305 -0.0076
  479DPPI   GL1 7507  12.033  13.111  11.341  0.1355  0.1371 -0.1366
  479DPPI   GL2 7508  12.218  12.956  11.227 -0.0349 -0.1506 -0.0769
  479DPPI   C1A 7509  12.216  13.352  10.905  0.0439  0.1542  0.0143
  479DPPI   C2A 7510  12.183  13.490  10.573  0.0369  0.0878 -0.1425
  479DPPI   C3A 7511  12.122  13.481  10.141 -0.1737  0.2781 -0.0300
  479DPPI   C4A 7512  11.897  13.630   9.769  0.2736  0.1151  0.0223
  479DPPI   C1B 7513  12.365  12.844  10.752 -0.0263  0.4121  0.0356
  479DPPI   C2B 7514  12.398  12.955  10.409  0.0637 -0.3949 -0.1258
  479DPPI   C3B 7515  12.442  12.959  10.028 -0.0993 -0.1233  0.2268
  479DPPI   C4B 7516  12.430  12.744   9.577 -0.0650  0.1692  0.2291
  480DPPI    C1 7517   7.141   5.455  11.687  0.1657 -0.1201 -0.1166
  480DPPI    C2 7518   7.397   5.453  11.994  0.0871  0.1939 -0.0451
  480DPPI    C3 7519   7.046   5.640  12.029 -0.0316  0.0117 -0.2409
  480DPPI   PO4 7520   7.206   5.558  11.538  0.0546 -0.1142  0.2484
  480DPPI   GL1 7521   7.446   5.581  11.187 -0.2211  0.0026  0.1785
  480DPPI   GL2 7522   7.642   5.383  11.047 -0.3242 -0.0721  0.2315
  480DPPI   C1A 7523   7.388   5.679  10.710 -0.0183  0.3444 -0.0424
  480DPPI   C2A 7524   7.353   5.711  10.185  0.0357 -0.1880  0.0694
  480DPPI   C3A 7525   7.410   5.613   9.787  0.0467  0.0291 -0.4616
  480DPPI   C4A 7526   7.533   5.548   9.367 -0.1692  0.2983 -0.3809
  480DPPI   C1B 7527   7.744   5.364  10.615 -0.5891 -0.2289  0.1193
  480DPPI   C2B 7528   7.709   5.401  10.133 -0.0393  0.2655 -0.3681
  480DPPI   C3B 7529   7.825   5.305   9.710 -0.0212 -0.0528  0.1581
  480DPPI   C4B 7530   7.839   5.069   9.324 -0.0446  0.0635 -0.1324
  481DPPI    C1 7531  11.803   6.888  11.517 -0.0618 -0.0828  0.0038
  481DPPI    C2 7532  11.677   6.512  11.464 -0.0351 -0.0721 -0.1396
  481DPPI    C3 7533  12.011   6.584  11.672 -0.0783 -0.1227 -0.0521
  481DPPI   PO4 7534  11.848   6.994  11.267  0.1083  0.2403  0.1364
  481DPPI   GL1 7535  11.483   7.146  10.968 -0.2233 -0.0998  0.3142
  481DPPI   GL2 7536  11.444   6.836  10.955 -0.1810  0.0986 -0.0699
  481DPPI   C1A 7537  11.489   7.246  10.531  0.0577 -0.3085 -0.1147
  481DPPI   C2A 7538  11.691   7.239  10.130  0.2522  0.5355  0.1645
  481DPPI   C3A 7539  11.895   7.032   9.880  0.0385 -0.1781  0.1826
  481DPPI   C4A 7540  12.045   6.956   9.599  0.2588 -0.1721 -0.1563
  481DPPI   C1B 7541  11.717   6.796  10.656 -0.2015 -0.1651 -0.1935
  481DPPI   C2B 7542  11.766   6.718  10.246  0.0275 -0.1342 -0.0663
  481DPPI   C3B 7543  11.704   6.555   9.803 -0.0372  0.1415 -0.2281
  481DPPI   C4B 7544  11.862   6.561   9.354 -0.0066  0.0742 -0.1231
  482DPPI    C1 7545   0.874   6.583  11.286  0.3268  0.0357  0.0150
  482DPPI    C2 7546   0.993   6.238  11.449 -0.0990 -0.1630 -0.0833
  482DPPI    C3 7547   1.014   6.576  11.660  0.1168 -0.2834  0.0916
  482DPPI   PO4 7548   0.900   6.591  11.047 -0.0802  0.1816 -0.1116
  482DPPI   GL1 7549   0.735   6.471  10.613 -0.1926 -0.1276  0.0251
  482DPPI   GL2 7550   0.512   6.440  10.766  0.1496 -0.0390 -0.2144
  482DPPI   C1A 7551   0.828   6.511  10.124  0.0371  0.0176  0.0882
  482DPPI   C2A 7552   0.988   6.411   9.734 -0.0453  0.0832  0.2816
  482DPPI   C3A 7553   1.106   6.308   9.277 -0.0088 -0.1399 -0.0071
  482DPPI   C4A 7554   1.136   6.255   8.889  0.0167  0.2811 -0.0124
  482DPPI   C1B 7555   0.255   6.435  10.333 -0.0391 -0.0668 -0.1860
  482DPPI   C2B 7556   0.420   6.303   9.867  0.0582 -0.3854  0.0917
  482DPPI   C3B 7557   0.525   6.301   9.446  0.1875 -0.0863  0.3484
  482DPPI   C4B 7558   0.611   6.169   9.099 -0.2481 -0.1446 -0.1380
  483DPPI    C1 7559  15.777  16.190  11.580 -0.0002 -0.0219 -0.1047
  483DPPI    C2 7560  15.638  16.518  11.763  0.1289 -0.0167 -0.0139
  483DPPI    C3 7561  16.028  16.487  11.677  0.0868 -0.0664 -0.1916
  483DPPI   PO4 7562  15.648  16.166  11.301  0.2570  0.2180 -0.2042
  483DPPI   GL1 7563  15.726  15.963  10.949  0.0765  0.1286 -0.1274
  483DPPI   GL2 7564  15.661  16.255  10.760  0.1785 -0.2319  0.1042
  483DPPI   C1A 7565  15.817  15.789  10.511  0.2037  0.4011 -0.3362
  483DPPI   C2A 7566  15.897  15.882  10.094 -0.3141  0.2468  0.0151
  483DPPI   C3A 7567  16.196  15.909   9.721 -0.1040  0.3713 -0.2023
  483DPPI   C4A 7568  16.164  15.949   9.282 -0.0359  0.0034 -0.4386
  483DPPI   C1B 7569  15.668  16.242  10.298 -0.0165  0.1452  0.2601
  483DPPI   C2B 7570  15.632  16.276   9.881  0.0299 -0.0144 -0.0808
  483DPPI   C3B 7571  15.735  16.080   9.491  0.0889 -0.0459 -0.1575
  483DPPI   C4B 7572  15.751  15.667   9.438 -0.0427  0.1268  0.2317
  484DPPI    C1 7573  14.216   2.880  11.890  0.0171 -0.1259  0.1508
  484DPPI    C2 7574  14.060   2.550  12.053 -0.1629  0.0668  0.3775
  484DPPI    C3 7575  13.825   2.863  11.973 -0.0135  0.1016  0.0605
  484DPPI   PO4 7576  14.348   2.833  11.581  0.0963 -0.2293 -0.1078
  484DPPI   GL1 7577  14.336   2.655  11.150  0.3233  0.0995 -0.1646
  484DPPI   GL2 7578  14.064   2.539  11.050  0.1127  0.2000 -0.4391
  484DPPI   C1A 7579  14.696   2.768  10.777 -0.3781 -0.1636  0.0179
  484DPPI   C2A 7580  14.939   2.622  10.441  0.0147 -0.0802  0.1419
  484DPPI   C3A 7581  14.970   2.530  10.015 -0.0427 -0.2081  0.1423
  484DPPI   C4A 7582  14.914   2.529   9.586 -0.3000 -0.0733 -0.1652
  484DPPI   C1B 7583  14.067   2.619  10.655  0.2307  0.1451 -0.0872
  484DPPI   C2B 7584  13.969   2.658  10.224  0.3446 -0.1417 -0.0475
  484DPPI   C3B 7585  14.054   2.487   9.819  0.0026  0.4242  0.1401
  484DPPI   C4B 7586  14.050   2.272   9.383  0.0165 -0.0224 -0.0985
  485DPPI    C1 7587   7.281  15.943  11.720 -0.1486  0.0804  0.1543
  485DPPI    C2 7588   7.080  16.258  11.864  0.0211  0.0942  0.3658
  485DPPI    C3 7589   7.480  16.261  11.858  0.0202  0.1111 -0.1502
  485DPPI   PO4 7590   7.215  15.907  11.350  0.1878 -0.2731 -0.2758
  485DPPI   GL1 7591   7.457  15.764  11.081 -0.3072 -0.1107 -0.1087
  485DPPI   GL2 7592   7.437  15.459  11.027 -0.0267 -0.3025 -0.1202
  485DPPI   C1A 7593   7.483  15.945  10.760 -0.2978  0.1709  0.1247
  485DPPI   C2A 7594   7.637  15.897  10.461 -0.1968 -0.0684 -0.3338
  485DPPI   C3A 7595   7.542  15.877  10.023 -0.0311 -0.1065  0.3254
  485DPPI   C4A 7596   7.583  15.786   9.601  0.2224  0.0806 -0.1798
  485DPPI   C1B 7597   7.646  15.387  10.678 -0.2303  0.2753 -0.1746
  485DPPI   C2B 7598   7.656  15.340  10.296 -0.1047  0.1301  0.2320
  485DPPI   C3B 7599   7.600  15.349   9.953  0.1739 -0.3540 -0.1442
  485DPPI   C4B 7600   7.614  15.250   9.452 -0.0576  0.0983 -0.0977
  486DPPI    C1 7601   8.003   8.404  11.651 -0.1226  0.0099  0.0581
  486DPPI    C2 7602   7.927   8.091  11.888  0.1839 -0.0637  0.0636
  486DPPI    C3 7603   8.212   8.353  11.989 -0.1613  0.2968  0.1284
  486DPPI   PO4 7604   7.880   8.352  11.428 -0.1036 -0.0033 -0.1036
  486DPPI   GL1 7605   7.838   8.674  11.173  0.1217 -0.1449 -0.0032
  486DPPI   GL2 7606   7.462   8.713  11.146 -0.0259 -0.0290 -0.1739
  486DPPI   C1A 7607   8.069   8.607  10.772 -0.1316  0.1924  0.0451
  486DPPI   C2A 7608   7.993   8.475  10.301 -0.3359  0.1964  0.3155
  486DPPI   C3A 7609   7.909   8.470   9.828 -0.0281  0.0164 -0.2548
  486DPPI   C4A 7610   7.885   8.556   9.382 -0.0981 -0.0377 -0.0557
  486DPPI   C1B 7611   7.586   8.855  10.750  0.3714 -0.1347 -0.3115
  486DPPI   C2B 7612   7.507   8.866  10.349 -0.0411  0.0559 -0.2634
  486DPPI   C3B 7613   7.507   8.780   9.971  0.2479 -0.0986  0.0623
  486DPPI   C4B 7614   7.433   8.713   9.612 -0.1133  0.2095  0.1156
  487DPPI    C1 7615   3.914   2.981  11.518  0.2507  0.0251  0.1530
  487DPPI    C2 7616   3.920   3.298  11.762 -0.1795 -0.0509  0.2722
  487DPPI    C3 7617   3.571   3.136  11.653  0.0188 -0.2153 -0.1442
  487DPPI   PO4 7618   4.040   3.028  11.260 -0.0226 -0.0541 -0.1589
  487DPPI   GL1 7619   3.985   2.917  10.890 -0.0636  0.1161  0.2926
  487DPPI   GL2 7620   4.381   3.079  10.897  0.2521  0.2304  0.2851
  487DPPI   C1A 7621   3.884   2.932  10.418 -0.0870 -0.0345 -0.1121
  487DPPI   C2A 7622   4.035   2.913   9.979  0.0515 -0.1295 -0.0356
  487DPPI   C3A 7623   4.051   2.823   9.569  0.0580 -0.0163  0.3325
  487DPPI   C4A 7624   4.094   2.808   9.166 -0.2391 -0.1829 -0.0263
  487DPPI   C1B 7625   4.444   3.125  10.525  0.1867 -0.1755 -0.0097
  487DPPI   C2B 7626   4.554   3.180  10.066 -0.0067 -0.0760 -0.0300
  487DPPI   C3B 7627   4.589   3.036   9.631  0.2875 -0.2167  0.0890
  487DPPI   C4B 7628   4.625   2.997   9.179  0.0427  0.1998  0.0826
  488DPPI    C1 7629  16.219   2.890  11.747 -0.0066 -0.0404 -0.0353
  488DPPI    C2 7630  16.220   3.089  12.095  0.2469  0.0866 -0.1064
  488DPPI    C3 7631  16.134   2.698  12.088 -0.0931  0.1548  0.0552
  488DPPI   PO4 7632  16.174   2.987  11.528 -0.0069 -0.2377  0.1442
  488DPPI   GL1 7633  16.134   2.885  11.147  0.0798  0.0629  0.1874
  488DPPI   GL2 7634  16.121   3.245  11.126 -0.2195  0.0667  0.3143
  488DPPI   C1A 7635  16.068   2.772  10.738 -0.2070 -0.2496  0.2571
  488DPPI   C2A 7636  16.278   2.827  10.387  0.1153 -0.1240  0.1650
  488DPPI   C3A 7637  16.250   2.860   9.927  0.0175  0.1660 -0.0222
  488DPPI   C4A 7638  16.315   2.934   9.444 -0.2486  0.1147 -0.1321
  488DPPI   C1B 7639  16.128   3.321  10.673  0.5017 -0.2152 -0.2019
  488DPPI   C2B 7640  16.301   3.318  10.230 -0.0318  0.0871 -0.0816
  488DPPI   C3B 7641  16.300   3.383   9.800 -0.1847 -0.3062  0.0732
  488DPPI   C4B 7642  16.387   3.522   9.399 -0.1106  0.2080  0.2945
  489DPPI    C1 7643  14.064   7.442  11.154  0.2626  0.0384  0.4026
  489DPPI    C2 7644  13.679   7.355  11.222  0.2051 -0.1611 -0.1288
  489DPPI    C3 7645  13.838   7.689  11.373 -0.1765 -0.0735  0.0920
  489DPPI   PO4 7646  14.077   7.450  10.954 -0.3430 -0.0558  0.0843
  489DPPI   GL1 7647  14.073   7.358  10.509 -0.0020  0.0376  0.3328
  489DPPI   GL2 7648  13.865   7.622  10.432 -0.1060  0.3107 -0.0212
  489DPPI   C1A 7649  14.331   7.320  10.162  0.1069  0.0945  0.3100
  489DPPI   C2A 7650  14.305   7.450   9.801 -0.0188  0.0231  0.0247
  489DPPI   C3A 7651  14.534   7.699   9.499  0.0769 -0.1713 -0.1497
  489DPPI   C4A 7652  14.634   7.735   9.018  0.0890  0.2326 -0.0058
  489DPPI   C1B 7653  13.897   7.651  10.023  0.0429  0.1073  0.2147
  489DPPI   C2B 7654  13.853   7.743   9.604 -0.0775 -0.0449 -0.2982
  489DPPI   C3B 7655  13.836   7.686   9.212  0.1797 -0.1333  0.0450
  489DPPI   C4B 7656  13.890   7.740   8.737 -0.1058 -0.1254  0.1690
  490DPPI    C1 7657   9.237   0.234  11.748 -0.0171  0.2215  0.1442
  490DPPI    C2 7658   9.225  -0.166  11.759  0.0767  0.2093 -0.1367
  490DPPI    C3 7659   9.376   0.038  12.068 -0.0783  0.0337  0.0571
  490DPPI   PO4 7660   9.314   0.258  11.473 -0.2578 -0.0536  0.0200
  490DPPI   GL1 7661   9.270   0.544  11.223 -0.2307  0.2016 -0.0737
  490DPPI   GL2 7662   9.587   0.679  11.250  0.3881  0.0897 -0.1684
  490DPPI   C1A 7663   9.094   0.359  10.871  0.0008  0.1708  0.0613
  490DPPI   C2A 7664   9.012   0.428  10.473 -0.3551 -0.0168 -0.1815
  490DPPI   C3A 7665   8.934   0.392  10.128 -0.0394  0.2708 -0.0398
  490DPPI   C4A 7666   8.990   0.394   9.759 -0.0243  0.1851  0.0407
  490DPPI   C1B 7667   9.514   0.595  10.742  0.0028  0.2873 -0.0444
  490DPPI   C2B 7668   9.489   0.521  10.366  0.1413 -0.1202  0.2224
  490DPPI   C3B 7669   9.430   0.599   9.988  0.1542  0.1171 -0.0106
  490DPPI   C4B 7670   9.459   0.623   9.604  0.1830 -0.0871  0.1347
  491DPPI    C1 7671  12.406   7.893  11.335 -0.1033  0.1160 -0.2390
  491DPPI    C2 7672  12.686   7.817  11.059  0.0630 -0.2494  0.0215
  491DPPI    C3 7673  12.625   7.559  11.359 -0.4859 -0.1250  0.0287
  491DPPI   PO4 7674  12.491   8.144  11.369  0.1383  0.1598  0.1042
  491DPPI   GL1 7675  12.548   8.533  11.177  0.1505  0.3829 -0.1826
  491DPPI   GL2 7676  12.230   8.416  10.973 -0.2826 -0.2111  0.0054
  491DPPI   C1A 7677  12.648   8.334  10.778  0.0382  0.0617 -0.0607
  491DPPI   C2A 7678  12.763   8.159  10.398 -0.0663 -0.1508 -0.3400
  491DPPI   C3A 7679  12.647   8.335   9.941 -0.1356 -0.0050  0.0603
  491DPPI   C4A 7680  12.646   8.283   9.486  0.0494  0.0049  0.2464
  491DPPI   C1B 7681  12.240   8.535  10.504 -0.1752  0.1056  0.0266
  491DPPI   C2B 7682  12.246   8.566  10.129 -0.2141 -0.0021 -0.0723
  491DPPI   C3B 7683  12.172   8.460   9.698 -0.1740  0.0551 -0.0046
  491DPPI   C4B 7684  12.006   8.596   9.314  0.1007 -0.0114  0.1667
  492DPPI    C1 7685  12.825   6.147  11.428  0.0301 -0.0723  0.0912
  492DPPI    C2 7686  13.037   5.908  11.669 -0.0824  0.0433  0.3071
  492DPPI    C3 7687  12.637   5.895  11.675 -0.0899  0.2395  0.3249
  492DPPI   PO4 7688  12.983   6.017  11.128 -0.1231  0.2523 -0.1599
  492DPPI   GL1 7689  13.213   5.770  10.846 -0.1613 -0.0230  0.0209
  492DPPI   GL2 7690  13.153   5.507  10.803  0.0789 -0.0252 -0.0782
  492DPPI   C1A 7691  13.315   5.809  10.347  0.1750 -0.0803 -0.0687
  492DPPI   C2A 7692  13.331   5.758   9.864  0.0336  0.3626 -0.2924
  492DPPI   C3A 7693  13.466   5.763   9.481  0.0984  0.3167  0.1977
  492DPPI   C4A 7694  13.803   5.561   9.345 -0.0693 -0.2585 -0.1536
  492DPPI   C1B 7695  13.123   5.339  10.294 -0.0277 -0.0273  0.1402
  492DPPI   C2B 7696  13.149   5.173   9.899  0.0424 -0.0336 -0.2362
  492DPPI   C3B 7697  13.219   5.241   9.489  0.4019  0.1387  0.0223
  492DPPI   C4B 7698  13.257   5.056   9.028 -0.0466  0.2182 -0.0876
  493DPPI    C1 7699   0.489  15.616  11.589  0.0794 -0.0087  0.0676
  493DPPI    C2 7700   0.667  15.503  11.930  0.0659 -0.1277  0.0357
  493DPPI    C3 7701   0.606  15.891  11.855  0.0821 -0.1003  0.1623
  493DPPI   PO4 7702   0.645  15.488  11.425 -0.1027  0.1298 -0.3215
  493DPPI   GL1 7703   0.809  15.696  11.039  0.0864 -0.0499  0.2278
  493DPPI   GL2 7704   0.588  15.399  10.916  0.0871 -0.0338  0.0927
  493DPPI   C1A 7705   0.705  15.874  10.709 -0.2497 -0.4117 -0.0227
  493DPPI   C2A 7706   0.696  15.895  10.249 -0.1373 -0.0128 -0.0935
  493DPPI   C3A 7707   0.799  15.893   9.818 -0.1228 -0.1522  0.1430
  493DPPI   C4A 7708   0.801  15.806   9.422  0.0770 -0.0986 -0.1768
  493DPPI   C1B 7709   0.633  15.346  10.473  0.2579 -0.0860  0.0823
  493DPPI   C2B 7710   0.676  15.360   9.966 -0.3107 -0.1888  0.0859
  493DPPI   C3B 7711   0.744  15.296   9.584 -0.3644 -0.0628  0.3967
  493DPPI   C4B 7712   0.705  15.359   9.266  0.1215 -0.2901 -0.1595
  494DPPI    C1 7713  16.890   6.000  10.872 -0.0394  0.1960  0.0165
  494DPPI    C2 7714  16.828   6.390  10.935 -0.1759  0.1850 -0.0459
  494DPPI    C3 7715  16.924   6.151  11.240 -0.1268  0.2610 -0.0017
  494DPPI   PO4 7716  17.075   5.972  10.704 -0.2010  0.2097  0.0637
  494DPPI   GL1 7717  17.046   5.968  10.316 -0.0526  0.0534  0.1930
  494DPPI   GL2 7718  16.861   5.692  10.362 -0.0586  0.1413 -0.2064
  494DPPI   C1A 7719  17.276   6.040  10.009  0.2825  0.0918  0.4223
  494DPPI   C2A 7720  17.346   6.058   9.569 -0.1224 -0.0865  0.0508
  494DPPI   C3A 7721  17.314   6.111   9.199  0.0488 -0.1727 -0.0965
  494DPPI   C4A 7722  17.040   5.912   8.889 -0.0121 -0.1574 -0.0480
  494DPPI   C1B 7723  16.809   5.644   9.961  0.3088  0.0688  0.2358
  494DPPI   C2B 7724  17.006   5.696   9.534 -0.0967 -0.0408 -0.0844
  494DPPI   C3B 7725  17.249   5.444   9.260  0.1409 -0.2140  0.1138
  494DPPI   C4B 7726  17.451   5.358   8.886  0.0776  0.1544  0.2476
  495DPPI    C1 7727   8.824  14.267  12.152  0.1071 -0.0766 -0.0798
  495DPPI    C2 7728   9.147  14.053  12.252  0.0446 -0.1779 -0.0935
  495DPPI    C3 7729   8.781  13.902  12.311 -0.0016 -0.0420 -0.0294
  495DPPI   PO4 7730   8.837  14.356  11.932 -0.0014 -0.2113  0.3019
  495DPPI   GL1 7731   8.778  14.224  11.587  0.0493  0.0572  0.2425
  495DPPI   GL2 7732   8.832  14.070  11.324  0.1149  0.1771  0.2154
  495DPPI   C1A 7733   8.915  14.523  11.183  0.0550  0.0423  0.0671
  495DPPI   C2A 7734   8.849  14.631  10.729 -0.1589 -0.2784 -0.1698
  495DPPI   C3A 7735   8.841  14.606  10.287  0.0056  0.2845  0.1249
  495DPPI   C4A 7736   8.883  14.510   9.922 -0.4340 -0.2119 -0.0073
  495DPPI   C1B 7737   8.838  13.786  11.044  0.1766 -0.2358 -0.0450
  495DPPI   C2B 7738   8.830  13.792  10.645 -0.0020 -0.1609 -0.2183
  495DPPI   C3B 7739   8.820  14.007  10.205 -0.1027  0.1051 -0.1563
  495DPPI   C4B 7740   8.807  14.036   9.789  0.3628  0.0359 -0.0098
  496DPPI    C1 7741  12.569   1.189  11.905 -0.0914 -0.1827 -0.0683
  496DPPI    C2 7742  12.397   0.906  12.129 -0.0619 -0.1399  0.0087
  496DPPI    C3 7743  12.776   1.015  12.200 -0.0966 -0.0296  0.0267
  496DPPI   PO4 7744  12.451   1.159  11.600 -0.1222 -0.3798  0.2930
  496DPPI   GL1 7745  12.540   1.023  11.197 -0.0191  0.0119 -0.3185
  496DPPI   GL2 7746  12.710   0.719  11.035  0.0190 -0.0930 -0.1435
  496DPPI   C1A 7747  12.197   1.165  11.008 -0.0187  0.2526  0.1044
  496DPPI   C2A 7748  12.171   1.121  10.599 -0.1046  0.1657 -0.3665
  496DPPI   C3A 7749  12.159   1.074  10.185 -0.0160 -0.1031  0.2969
  496DPPI   C4A 7750  12.182   1.038   9.798  0.1566  0.1807  0.1270
  496DPPI   C1B 7751  12.629   0.855  10.716 -0.0158 -0.0579  0.0408
  496DPPI   C2B 7752  12.585   0.883  10.322  0.0558 -0.0955 -0.2679
  496DPPI   C3B 7753  12.602   0.767   9.951 -0.1750  0.1135  0.2646
  496DPPI   C4B 7754  12.626   0.768   9.537  0.2030 -0.0920  0.0188
  497DPPI    C1 7755   9.814  16.150  12.105 -0.3301  0.0342 -0.2881
  497DPPI    C2 7756   9.565  15.922  12.319  0.0765  0.0514  0.2223
  497DPPI    C3 7757   9.920  15.778  12.207  0.0969  0.2378  0.0407
  497DPPI   PO4 7758   9.652  16.273  11.898 -0.1350  0.0532  0.0701
  497DPPI   GL1 7759   9.727  16.303  11.548 -0.0704  0.0389 -0.0046
  497DPPI   GL2 7760   9.810  16.518  11.350  0.1582  0.0888  0.0371
  497DPPI   C1A 7761   9.710  16.025  11.187  0.1032 -0.0595 -0.0302
  497DPPI   C2A 7762   9.883  15.995  10.800  0.0350  0.2548 -0.0973
  497DPPI   C3A 7763   9.819  16.012  10.377 -0.0583  0.0611 -0.1213
  497DPPI   C4A 7764   9.718  15.973   9.970 -0.0020 -0.1546  0.0014
  497DPPI   C1B 7765   9.908  16.479  10.917  0.1536 -0.0724  0.3125
  497DPPI   C2B 7766   9.895  16.479  10.524  0.3452 -0.2172  0.2126
  497DPPI   C3B 7767   9.840  16.535  10.105 -0.0053 -0.0111  0.0903
  497DPPI   C4B 7768   9.729  16.577   9.707  0.0608  0.0183 -0.0457
  498DPPI    C1 7769   5.687  14.064  11.906  0.2184 -0.0980 -0.0673
  498DPPI    C2 7770   5.828  13.722  12.059 -0.1012 -0.2205 -0.0399
  498DPPI    C3 7771   5.780  14.041  12.295  0.3395 -0.1068 -0.0963
  498DPPI   PO4 7772   5.813  14.100  11.720  0.0867  0.2511  0.0824
  498DPPI   GL1 7773   5.717  14.203  11.311 -0.0636  0.3038 -0.0341
  498DPPI   GL2 7774   5.660  13.890  11.251 -0.1530 -0.0783 -0.2558
  498DPPI   C1A 7775   5.597  14.360  10.851 -0.1264 -0.0942 -0.0801
  498DPPI   C2A 7776   5.550  14.377  10.373 -0.0942  0.1424  0.1072
  498DPPI   C3A 7777   5.637  14.396   9.960  0.2911 -0.1797  0.0549
  498DPPI   C4A 7778   5.749  14.283   9.588 -0.0141  0.0940  0.1876
  498DPPI   C1B 7779   5.511  13.910  10.729  0.0302 -0.0816  0.1780
  498DPPI   C2B 7780   5.560  13.855  10.319 -0.0758  0.0420  0.2261
  498DPPI   C3B 7781   5.587  13.828   9.867 -0.2528 -0.1095  0.2429
  498DPPI   C4B 7782   5.522  13.785   9.306  0.0493  0.0156  0.6022
  499DPPI    C1 7783   7.435   1.357  11.966 -0.2893  0.0689 -0.0362
  499DPPI    C2 7784   7.128   1.102  11.940 -0.2412  0.0021  0.0454
  499DPPI    C3 7785   7.270   1.208  12.299 -0.1177 -0.0292  0.0060
  499DPPI   PO4 7786   7.423   1.340  11.624  0.0602 -0.0690 -0.1820
  499DPPI   GL1 7787   7.665   1.088  11.367  0.0181 -0.0437  0.3273
  499DPPI   GL2 7788   8.020   1.043  11.264 -0.1223  0.0801  0.0841
  499DPPI   C1A 7789   7.677   1.232  10.926  0.1007  0.0249  0.1388
  499DPPI   C2A 7790   7.640   1.250  10.488  0.2141 -0.1268  0.0346
  499DPPI   C3A 7791   7.627   1.223   9.988 -0.0049 -0.0669 -0.1562
  499DPPI   C4A 7792   7.647   1.332   9.669  0.2099 -0.2203 -0.1628
  499DPPI   C1B 7793   8.207   0.961  10.818  0.1049  0.2729  0.1599
  499DPPI   C2B 7794   8.139   0.945  10.314  0.0164 -0.0429 -0.0728
  499DPPI   C3B 7795   8.104   0.971   9.796  0.3901  0.1620  0.0783
  499DPPI   C4B 7796   8.054   1.012   9.415  0.3185  0.3247 -0.0457
  500DPPI    C1 7797   0.204  15.283  11.318  0.0844  0.1418  0.2465
  500DPPI    C2 7798  -0.053  15.524  11.508 -0.1700  0.0778 -0.0092
  500DPPI    C3 7799   0.068  15.185  11.681  0.0204  0.2791  0.2607
  500DPPI   PO4 7800   0.126  15.225  11.120  0.2194  0.0154 -0.2056
  500DPPI   GL1 7801   0.103  15.525  10.742 -0.3338 -0.1801 -0.1010
  500DPPI   GL2 7802   0.245  15.685  10.683 -0.1533 -0.2976  0.2157
  500DPPI   C1A 7803  -0.197  15.492  10.404 -0.0399 -0.0516 -0.0607
  500DPPI   C2A 7804  -0.203  15.414  10.001  0.0494  0.2106  0.4162
  500DPPI   C3A 7805  -0.262  15.378   9.561 -0.3635 -0.0590  0.1490
  500DPPI   C4A 7806  -0.229  15.356   9.066 -0.1444 -0.0287 -0.1802
  500DPPI   C1B 7807   0.258  15.585  10.206 -0.2852 -0.1221  0.1390
  500DPPI   C2B 7808   0.232  15.619   9.719  0.1439 -0.0546  0.1847
  500DPPI   C3B 7809   0.180  15.709   9.298 -0.2438 -0.1415  0.0759
  500DPPI   C4B 7810   0.467  15.691   9.002 -0.0094  0.0775  0.1051
  501DPPI    C1 7811   7.366  11.721  12.248  0.3408  0.2015 -0.0474
  501DPPI    C2 7812   7.599  11.592  12.546 -0.0098  0.0465  0.1660
  501DPPI    C3 7813   7.454  11.965  12.553  0.1846  0.1256  0.0597
  501DPPI   PO4 7814   7.419  11.722  12.027  0.1614 -0.0858  0.0495
  501DPPI   GL1 7815   7.376  11.717  11.594 -0.1646 -0.1025  0.3790
  501DPPI   GL2 7816   7.596  11.535  11.396  0.0653  0.0438 -0.1846
  501DPPI   C1A 7817   7.171  11.767  11.149  0.0384  0.0764  0.1677
  501DPPI   C2A 7818   7.241  11.755  10.725  0.2921 -0.0793 -0.1742
  501DPPI   C3A 7819   7.276  11.773  10.261  0.3725 -0.1518  0.4359
  501DPPI   C4A 7820   7.234  11.561   9.763 -0.2127  0.0807 -0.1951
  501DPPI   C1B 7821   7.671  11.508  10.900  0.0227  0.1960  0.1451
  501DPPI   C2B 7822   7.664  11.437  10.371 -0.0099 -0.0579 -0.5766
  501DPPI   C3B 7823   7.713  11.424   9.945  0.1191  0.1405 -0.0535
  501DPPI   C4B 7824   7.646  11.368   9.511  0.2248  0.1355  0.0306
  502DPPI    C1 7825   0.140   3.679  11.451 -0.0324  0.1733  0.1791
  502DPPI    C2 7826   0.057   4.052  11.570  0.2064  0.1835  0.3186
  502DPPI    C3 7827   0.056   3.752  11.835 -0.1939  0.0465  0.1689
  502DPPI   PO4 7828   0.270   3.835  11.168 -0.0518  0.0695  0.0246
  502DPPI   GL1 7829   0.545   3.810  10.799 -0.3039  0.1086 -0.0830
  502DPPI   GL2 7830   0.503   3.475  10.535 -0.2132  0.0086  0.1708
  502DPPI   C1A 7831   0.572   3.942  10.332  0.2069  0.0094 -0.2163
  502DPPI   C2A 7832   0.549   4.001   9.916  0.0990 -0.0359  0.2057
  502DPPI   C3A 7833   0.537   4.087   9.502  0.2525 -0.2050  0.4979
  502DPPI   C4A 7834   0.527   4.067   8.957  0.0104 -0.1017  0.4820
  502DPPI   C1B 7835   0.556   3.529  10.102 -0.3498 -0.4087  0.2552
  502DPPI   C2B 7836   0.573   3.549   9.679  0.0569  0.1644  0.0522
  502DPPI   C3B 7837   0.457   3.511   9.249  0.3270  0.2141  0.2395
  502DPPI   C4B 7838   0.476   3.509   8.848 -0.2365 -0.1355 -0.0323
  503DPPI    C1 7839   6.797  14.305  11.946  0.0331 -0.0792 -0.0128
  503DPPI    C2 7840   6.707  14.580  12.221 -0.1792 -0.0995 -0.0601
  503DPPI    C3 7841   6.664  14.191  12.305 -0.1750 -0.1081 -0.0974
  503DPPI   PO4 7842   6.919  14.515  11.776  0.1236  0.2899 -0.1980
  503DPPI   GL1 7843   6.968  14.343  11.416  0.1790 -0.1910 -0.1459
  503DPPI   GL2 7844   7.097  14.492  11.220 -0.0645  0.0375 -0.1009
  503DPPI   C1A 7845   6.619  14.463  10.958  0.0742 -0.0290  0.0215
  503DPPI   C2A 7846   6.598  14.381  10.560  0.3020  0.0176 -0.3057
  503DPPI   C3A 7847   6.552  14.242  10.114  0.0192  0.0329  0.0378
  503DPPI   C4A 7848   6.624  14.281   9.685 -0.1991  0.0636  0.2289
  503DPPI   C1B 7849   7.055  14.547  10.760 -0.1020 -0.2537 -0.1408
  503DPPI   C2B 7850   6.974  14.562  10.240 -0.0310  0.0055 -0.2607
  503DPPI   C3B 7851   6.915  14.569   9.956  0.4183 -0.2014 -0.1690
  503DPPI   C4B 7852   7.124  14.557   9.552 -0.0917 -0.1093 -0.1706
  504DPPI    C1 7853   1.026   7.044  11.421 -0.2554 -0.4561 -0.0931
  504DPPI    C2 7854   0.738   7.317  11.472 -0.0778 -0.2583 -0.1348
  504DPPI    C3 7855   0.674   6.936  11.576 -0.1725 -0.1166  0.3512
  504DPPI   PO4 7856   1.120   7.133  11.213  0.0519  0.0656  0.2402
  504DPPI   GL1 7857   1.159   7.120  10.788 -0.0070  0.0954 -0.0457
  504DPPI   GL2 7858   1.060   6.869  10.708  0.0582 -0.2841  0.0964
  504DPPI   C1A 7859   1.119   7.396  10.349 -0.1700  0.1025 -0.0552
  504DPPI   C2A 7860   1.116   7.377  10.007  0.2140 -0.0736 -0.0343
  504DPPI   C3A 7861   1.125   7.543   9.623 -0.0549  0.0152  0.1318
  504DPPI   C4A 7862   1.186   7.616   9.188 -0.1404  0.0949 -0.1272
  504DPPI   C1B 7863   0.928   6.948  10.284 -0.2833 -0.1487 -0.0838
  504DPPI   C2B 7864   1.037   6.923   9.875  0.0390  0.0928 -0.3691
  504DPPI   C3B 7865   1.114   6.808   9.495 -0.3074  0.2076  0.1613
  504DPPI   C4B 7866   1.090   6.748   9.090 -0.2062  0.0862  0.2066
  505DPPI    C1 7867   1.751   7.958  11.136 -0.3148 -0.0858  0.0532
  505DPPI    C2 7868   1.978   7.636  11.066  0.1119  0.2421 -0.1160
  505DPPI    C3 7869   1.737   7.778  10.779 -0.1683  0.0086 -0.0011
  505DPPI   PO4 7870   1.935   8.104  11.238 -0.1154 -0.2120 -0.1813
  505DPPI   GL1 7871   2.150   8.265  10.852 -0.3239 -0.2435  0.0398
  505DPPI   GL2 7872   2.308   7.998  10.918 -0.1333 -0.1493  0.0269
  505DPPI   C1A 7873   2.014   8.582  10.465 -0.2270  0.1407 -0.2103
  505DPPI   C2A 7874   1.994   8.546   9.989  0.1685  0.0975 -0.0243
  505DPPI   C3A 7875   2.114   8.591   9.553 -0.3048  0.0365  0.3636
  505DPPI   C4A 7876   2.146   8.650   9.114 -0.2878 -0.0843  0.0850
  505DPPI   C1B 7877   2.499   8.129  10.550  0.0966  0.3576  0.0840
  505DPPI   C2B 7878   2.426   8.344  10.184  0.0457  0.1223  0.0295
  505DPPI   C3B 7879   2.506   8.298   9.752  0.1843 -0.0633 -0.0642
  505DPPI   C4B 7880   2.534   8.152   9.381  0.2642  0.0196 -0.0660
  506DPPI    C1 7881   9.500   2.986  11.990 -0.0700  0.2775 -0.0112
  506DPPI    C2 7882   9.412   3.285  12.241  0.0810  0.2302  0.0996
  506DPPI    C3 7883   9.769   3.105  12.262 -0.0082  0.0434  0.0323
  506DPPI   PO4 7884   9.223   3.120  11.854  0.0162  0.1576 -0.0639
  506DPPI   GL1 7885   9.048   3.347  11.444 -0.0179  0.2404 -0.1243
  506DPPI   GL2 7886   9.336   3.383  11.389  0.3543 -0.0355  0.1510
  506DPPI   C1A 7887   8.883   3.052  11.129 -0.0432 -0.1107 -0.0276
  506DPPI   C2A 7888   9.049   2.933  10.695  0.1296 -0.0261 -0.0606
  506DPPI   C3A 7889   9.164   2.892  10.332  0.1826  0.0294  0.0548
  506DPPI   C4A 7890   9.090   2.995   9.887 -0.2216  0.1119  0.1225
  506DPPI   C1B 7891   9.525   3.322  11.045 -0.0423 -0.2676  0.0119
  506DPPI   C2B 7892   9.539   3.157  10.694 -0.0777  0.0528 -0.2323
  506DPPI   C3B 7893   9.601   3.161  10.332  0.0240 -0.1101 -0.1255
  506DPPI   C4B 7894   9.541   3.134   9.919  0.0183  0.0296 -0.0025
  507DPPI    C1 7895   5.486  11.188  12.130  0.2238 -0.0975 -0.0363
  507DPPI    C2 7896   5.647  11.312  12.475 -0.1336  0.0880  0.0685
  507DPPI    C3 7897   5.261  11.382  12.397 -0.1154 -0.1609 -0.2701
  507DPPI   PO4 7898   5.601  11.274  11.743 -0.1898 -0.0501 -0.2546
  507DPPI   GL1 7899   5.530  11.285  11.267  0.1774  0.1996  0.1522
  507DPPI   GL2 7900   5.353  11.203  11.066  0.0768 -0.2665 -0.0063
  507DPPI   C1A 7901   5.804  11.466  10.988  0.1797  0.0059  0.1284
  507DPPI   C2A 7902   5.845  11.476  10.619 -0.0261 -0.0552  0.0502
  507DPPI   C3A 7903   5.927  11.495  10.122  0.2997  0.1816  0.0775
  507DPPI   C4A 7904   5.765  11.387   9.775 -0.0935 -0.0240  0.1255
  507DPPI   C1B 7905   5.355  11.241  10.692 -0.0030  0.0616  0.0990
  507DPPI   C2B 7906   5.465  11.234  10.236  0.0661  0.0401  0.0144
  507DPPI   C3B 7907   5.324  11.166   9.836  0.1026 -0.2079  0.1049
  507DPPI   C4B 7908   5.445  11.168   9.335 -0.1383  0.1614  0.0657
  508DPPI    C1 7909   7.050   8.072  12.018 -0.0615  0.0745  0.0664
  508DPPI    C2 7910   7.448   8.103  12.038 -0.0674  0.0860  0.1724
  508DPPI    C3 7911   7.219   8.295  12.304 -0.1392 -0.0315  0.1959
  508DPPI   PO4 7912   6.985   8.126  11.761  0.2598 -0.0653  0.0324
  508DPPI   GL1 7913   6.863   8.071  11.306  0.2695  0.0035 -0.2321
  508DPPI   GL2 7914   6.673   8.303  11.115  0.0785 -0.4637  0.2537
  508DPPI   C1A 7915   7.032   7.923  11.002  0.2540 -0.1371  0.0830
  508DPPI   C2A 7916   7.020   8.104  10.548  0.2516 -0.0419  0.1940
  508DPPI   C3A 7917   7.060   7.981  10.087  0.1017 -0.1247 -0.0514
  508DPPI   C4A 7918   7.059   7.957   9.665 -0.0729 -0.1037 -0.1012
  508DPPI   C1B 7919   6.580   8.331  10.619 -0.0577  0.1011  0.1376
  508DPPI   C2B 7920   6.565   8.217  10.240 -0.0729  0.0437  0.1704
  508DPPI   C3B 7921   6.564   8.246   9.797 -0.1806 -0.0076 -0.0970
  508DPPI   C4B 7922   6.645   8.274   9.362  0.0603  0.1116 -0.0149
  509DPPI    C1 7923  13.015   3.619  11.726  0.0009  0.0612  0.1462
  509DPPI    C2 7924  13.062   3.262  11.901  0.2622  0.0634  0.0846
  509DPPI    C3 7925  12.706   3.445  11.911  0.2108 -0.0488  0.3997
  509DPPI   PO4 7926  13.050   3.569  11.390 -0.1060  0.1185  0.0564
  509DPPI   GL1 7927  13.186   3.776  11.052 -0.1109  0.4541  0.2312
  509DPPI   GL2 7928  13.015   4.075  10.928 -0.0192 -0.3520  0.2698
  509DPPI   C1A 7929  13.333   3.574  10.635  0.0252 -0.0624  0.1426
  509DPPI   C2A 7930  13.194   3.271  10.278 -0.0794  0.2401 -0.0126
  509DPPI   C3A 7931  13.086   3.096   9.868  0.1510 -0.1258  0.1501
  509DPPI   C4A 7932  13.131   2.981   9.338 -0.3014 -0.0601  0.1462
  509DPPI   C1B 7933  13.016   3.948  10.497 -0.0947 -0.0874 -0.1037
  509DPPI   C2B 7934  13.150   3.759  10.134 -0.1068 -0.0560 -0.0035
  509DPPI   C3B 7935  13.061   3.606   9.757 -0.1020 -0.0943 -0.1022
  509DPPI   C4B 7936  13.061   3.454   9.311 -0.1945  0.2509 -0.0995
  510DPPI    C1 7937   5.386   7.273  11.492 -0.0204 -0.2260 -0.1823
  510DPPI    C2 7938   5.381   7.064  11.833  0.1783 -0.3139 -0.2315
  510DPPI    C3 7939   5.649   7.356  11.781 -0.0995 -0.0412 -0.1623
  510DPPI   PO4 7940   5.110   7.363  11.503 -0.2014 -0.1075  0.1013
  510DPPI   GL1 7941   5.093   7.126  11.108  0.1483 -0.0279  0.0719
  510DPPI   GL2 7942   5.298   6.930  11.122 -0.4533  0.2740  0.2973
  510DPPI   C1A 7943   5.103   7.019  10.663 -0.1811 -0.1359  0.1293
  510DPPI   C2A 7944   5.219   7.021  10.233  0.3865  0.0418 -0.0699
  510DPPI   C3A 7945   5.198   7.086   9.813  0.2042 -0.1063 -0.0148
  510DPPI   C4A 7946   5.243   7.099   9.374  0.0345  0.0361 -0.0568
  510DPPI   C1B 7947   5.462   6.699  10.771 -0.1713 -0.1556  0.0574
  510DPPI   C2B 7948   5.545   6.745  10.468 -0.1083 -0.0400  0.0023
  510DPPI   C3B 7949   5.604   6.780  10.026  0.0021  0.2153  0.0762
  510DPPI   C4B 7950   5.665   6.731   9.647 -0.0647  0.1797  0.0078
  511DPPI    C1 7951   3.655   9.445  11.811 -0.0853 -0.0882  0.0463
  511DPPI    C2 7952   3.834   9.769  11.965 -0.1094 -0.0497 -0.0063
  511DPPI    C3 7953   3.951   9.403  12.077 -0.0675 -0.0230  0.0372
  511DPPI   PO4 7954   3.691   9.522  11.558 -0.2594 -0.1689  0.1320
  511DPPI   GL1 7955   3.486   9.736  11.091 -0.1065  0.0173  0.1428
  511DPPI   GL2 7956   3.537   9.345  11.148 -0.0380 -0.0707  0.1382
  511DPPI   C1A 7957   3.473   9.702  10.616  0.0133 -0.1967  0.1648
  511DPPI   C2A 7958   3.412   9.703  10.249  0.1721  0.0686 -0.1477
  511DPPI   C3A 7959   3.513   9.755   9.903  0.0001  0.2008  0.2176
  511DPPI   C4A 7960   3.471   9.610   9.574 -0.3621 -0.2132  0.0406
  511DPPI   C1B 7961   3.365   9.211  10.737 -0.0664  0.3164  0.1613
  511DPPI   C2B 7962   3.334   9.160  10.230  0.2407 -0.0609 -0.0660
  511DPPI   C3B 7963   3.392   9.203   9.871 -0.0748 -0.0096  0.2241
  511DPPI   C4B 7964   3.435   9.145   9.396  0.1566  0.1204 -0.0414
  512DPPI    C1 7965  15.016   8.731  11.307 -0.0830 -0.0099 -0.2315
  512DPPI    C2 7966  14.739   8.864  11.563  0.1009  0.0651 -0.0679
  512DPPI    C3 7967  15.071   8.689  11.701  0.1525  0.0082 -0.2606
  512DPPI   PO4 7968  14.998   8.913  11.135  0.1439 -0.1884 -0.0029
  512DPPI   GL1 7969  15.079   9.021  10.743  0.1410  0.2018 -0.0476
  512DPPI   GL2 7970  14.663   9.083  10.754  0.1397  0.2113 -0.1390
  512DPPI   C1A 7971  15.079   8.976  10.316  0.0754 -0.2537 -0.1997
  512DPPI   C2A 7972  15.060   8.945   9.795  0.1652  0.0018  0.1048
  512DPPI   C3A 7973  15.139   9.019   9.432  0.2662 -0.0943  0.2132
  512DPPI   C4A 7974  15.280   9.021   8.998 -0.1176  0.1746 -0.0223
  512DPPI   C1B 7975  14.599   9.203  10.281 -0.0899  0.0179 -0.2074
  512DPPI   C2B 7976  14.618   9.186   9.920  0.1188  0.3756  0.1267
  512DPPI   C3B 7977  14.670   9.130   9.459  0.2522  0.0475  0.1729
  512DPPI   C4B 7978  14.830   9.225   9.051  0.1928  0.0839  0.2903
  513PYPI    C1 7979  15.765   6.674  11.366 -0.0699  0.1795 -0.1723
  513PYPI    C2 7980  16.060   6.766  11.620  0.0567 -0.1012 -0.2144
  513PYPI    C3 7981  15.679   6.825  11.727  0.1128 -0.1252  0.0029
  513PYPI   PO4 7982  15.938   6.465  11.195 -0.0133 -0.2217  0.0629
  513PYPI   GL1 7983  16.026   6.307  10.837 -0.0757  0.4808  0.1214
  513PYPI   GL2 7984  15.938   6.187  10.546  0.0114 -0.5604 -0.0833
  513PYPI   C1A 7985  16.127   6.697  10.467  0.1218  0.2786  0.0057
  513PYPI   C2A 7986  16.122   6.720   9.870 -0.0451  0.0845  0.0494
  513PYPI   D3A 7987  16.094   6.707   9.411 -0.3161 -0.0849  0.0331
  513PYPI   C4A 7988  16.370   6.547   9.059 -0.0425 -0.1345  0.2789
  513PYPI   C1B 7989  16.135   6.128  10.119 -0.1661  0.2037 -0.3641
  513PYPI   C2B 7990  16.255   6.236   9.687  0.0213  0.0299  0.0594
  513PYPI   C3B 7991  15.938   6.242   9.295 -0.2521  0.0131 -0.3082
  513PYPI   C4B 7992  15.660   6.193   9.040 -0.0416 -0.1954 -0.2014
  514PYPI    C1 7993   4.000   2.076  11.385 -0.0922 -0.0415  0.0180
  514PYPI    C2 7994   3.735   1.806  11.256 -0.1715 -0.0648  0.2272
  514PYPI    C3 7995   3.993   1.711  11.546  0.0878 -0.0518  0.0045
  514PYPI   PO4 7996   4.081   2.126  11.095 -0.0162  0.2163  0.0864
  514PYPI   GL1 7997   3.789   2.197  10.835 -0.1060 -0.0849  0.1504
  514PYPI   GL2 7998   3.586   1.940  10.787 -0.0472 -0.2540  0.0237
  514PYPI   C1A 7999   4.008   2.249  10.393 -0.0932  0.0835 -0.1167
  514PYPI   C2A 8000   3.934   2.373   9.918  0.1189  0.3114 -0.3303
  514PYPI   D3A 8001   4.078   2.280   9.489  0.2452  0.3223  0.1169
  514PYPI   C4A 8002   4.128   2.324   9.034  0.0012  0.2959  0.0925
  514PYPI   C1B 8003   3.580   2.057  10.360  0.1460  0.0060  0.0594
  514PYPI   C2B 8004   3.509   2.191   9.940  0.3223 -0.3466 -0.0139
  514PYPI   C3B 8005   3.619   2.077   9.554  0.0109 -0.1480 -0.1399
  514PYPI   C4B 8006   3.671   2.066   9.140  0.1250  0.1164  0.1553
  515PYPI    C1 8007   4.956   1.109  11.477 -0.2564 -0.0323  0.1072
  515PYPI    C2 8008   5.080   1.339  11.780  0.0717 -0.0295 -0.0248
  515PYPI    C3 8009   5.062   0.942  11.824  0.0539 -0.0238  0.0197
  515PYPI   PO4 8010   5.083   1.196  11.267 -0.0505 -0.0410  0.2824
  515PYPI   GL1 8011   5.016   1.197  10.851 -0.2557  0.0370 -0.0238
  515PYPI   GL2 8012   5.277   0.944  10.837  0.0822  0.1928  0.2560
  515PYPI   C1A 8013   4.891   1.221  10.434  0.2108  0.0803  0.3974
  515PYPI   C2A 8014   4.990   1.244   9.982  0.1759 -0.0880 -0.3926
  515PYPI   D3A 8015   5.018   1.313   9.485  0.1671  0.0691 -0.1919
  515PYPI   C4A 8016   5.328   1.558   9.425  0.0766  0.2053  0.1194
  515PYPI   C1B 8017   5.307   0.928  10.361  0.0958  0.0152 -0.0908
  515PYPI   C2B 8018   5.345   0.638  10.096 -0.0446 -0.0804  0.2139
  515PYPI   C3B 8019   5.457   0.508   9.725 -0.1637 -0.0451  0.0219
  515PYPI   C4B 8020   5.503   0.422   9.250 -0.2127 -0.0876 -0.1505
  516PYPI    C1 8021   4.217  14.280  11.781 -0.1115  0.0872 -0.2091
  516PYPI    C2 8022   4.301  14.662  11.696 -0.0159  0.0368 -0.3457
  516PYPI    C3 8023   4.597  14.404  11.771 -0.0989  0.1046  0.2697
  516PYPI   PO4 8024   4.079  14.187  11.580 -0.1010 -0.1093  0.1279
  516PYPI   GL1 8025   4.248  14.291  11.168 -0.0155  0.1035 -0.0492
  516PYPI   GL2 8026   3.913  14.465  11.159 -0.1010 -0.2857  0.3852
  516PYPI   C1A 8027   4.396  14.458  10.787  0.1159  0.3165 -0.2887
  516PYPI   C2A 8028   4.402  14.331  10.276 -0.5700  0.3362  0.1688
  516PYPI   D3A 8029   4.244  14.218   9.880  0.0281 -0.1773  0.3803
  516PYPI   C4A 8030   4.386  14.110   9.523 -0.3063  0.0058 -0.1575
  516PYPI   C1B 8031   3.883  14.312  10.802  0.1940  0.1696 -0.2384
  516PYPI   C2B 8032   3.928  14.414  10.363  0.0625  0.1479  0.1553
  516PYPI   C3B 8033   3.790  14.391  10.021 -0.1759  0.2871 -0.1502
  516PYPI   C4B 8034   3.805  14.530   9.598  0.0828 -0.0073  0.1529
  517PYPI    C1 8035  15.935   2.524  11.418 -0.2847 -0.0877  0.1285
  517PYPI    C2 8036  16.016   2.133  11.403 -0.2748 -0.0860  0.1371
  517PYPI    C3 8037  16.034   2.328  11.752  0.3282  0.0506  0.0401
  517PYPI   PO4 8038  15.757   2.567  11.328  0.0838  0.0665 -0.0837
  517PYPI   GL1 8039  15.736   2.429  10.922 -0.2481  0.0751 -0.1321
  517PYPI   GL2 8040  15.794   2.116  10.854  0.2838  0.1899  0.2042
  517PYPI   C1A 8041  15.757   2.522  10.416  0.0104  0.0246  0.1822
  517PYPI   C2A 8042  15.820   2.615  10.058 -0.1698 -0.1980  0.0119
  517PYPI   D3A 8043  15.859   2.643   9.633 -0.0954 -0.1973 -0.2595
  517PYPI   C4A 8044  15.723   2.338   9.423  0.0033  0.1242  0.0778
  517PYPI   C1B 8045  15.760   2.015  10.406  0.0096 -0.0335 -0.0877
  517PYPI   C2B 8046  15.803   2.109   9.855 -0.2624 -0.0262  0.1331
  517PYPI   C3B 8047  15.773   1.873   9.386  0.0830 -0.0437  0.1878
  517PYPI   C4B 8048  15.605   1.905   9.010  0.1420 -0.2911  0.2737
  518PYPI    C1 8049   3.963   8.311  11.499  0.2661  0.2261  0.1952
  518PYPI    C2 8050   3.588   8.443  11.457  0.1133 -0.2500 -0.0126
  518PYPI    C3 8051   3.732   8.363  11.822 -0.0112 -0.1372  0.0625
  518PYPI   PO4 8052   3.981   8.125  11.348  0.2111 -0.2157  0.1156
  518PYPI   GL1 8053   3.808   8.053  11.063  0.1341 -0.3700  0.1275
  518PYPI   GL2 8054   3.632   8.266  11.003 -0.0334  0.4077  0.3322
  518PYPI   C1A 8055   3.863   7.861  10.741  0.1151  0.0933  0.0599
  518PYPI   C2A 8056   3.767   7.894  10.367 -0.0764  0.1151  0.1691
  518PYPI   D3A 8057   3.859   7.819   9.991  0.2319  0.0239  0.0095
  518PYPI   C4A 8058   3.757   7.882   9.516  0.0719 -0.2229  0.2001
  518PYPI   C1B 8059   3.715   8.319  10.583 -0.3602  0.0378  0.1850
  518PYPI   C2B 8060   3.735   8.336  10.128 -0.2304  0.1742 -0.0154
  518PYPI   C3B 8061   3.822   8.346   9.716  0.0541  0.2405 -0.0075
  518PYPI   C4B 8062   3.745   8.403   9.261 -0.2667  0.3577 -0.0602
  519PYPI    C1 8063   0.576   0.034  11.944 -0.0306  0.0193 -0.0242
  519PYPI    C2 8064   0.622  -0.356  11.871 -0.2405  0.0173 -0.1548
  519PYPI    C3 8065   0.768  -0.197  12.207 -0.1979 -0.1831 -0.0769
  519PYPI   PO4 8066   0.723   0.180  11.662  0.0721  0.1818 -0.1217
  519PYPI   GL1 8067   0.648   0.165  11.210  0.0599 -0.0844  0.2156
  519PYPI   GL2 8068   1.017   0.101  11.219 -0.4317  0.3010  0.1269
  519PYPI   C1A 8069   0.686   0.155  10.730  0.4009 -0.2997  0.1894
  519PYPI   C2A 8070   0.756   0.241  10.306 -0.3151  0.1154 -0.0592
  519PYPI   D3A 8071   0.746   0.192   9.962  0.0523  0.2546  0.1108
  519PYPI   C4A 8072   0.811   0.114   9.533 -0.3175 -0.1623 -0.1132
  519PYPI   C1B 8073   1.121  -0.062  10.855 -0.1127  0.1802  0.0503
  519PYPI   C2B 8074   1.187  -0.036  10.387  0.0523  0.1839 -0.1214
  519PYPI   C3B 8075   1.132  -0.056   9.962 -0.0879 -0.1466  0.2353
  519PYPI   C4B 8076   1.306  -0.205   9.575  0.2922  0.1643  0.0724
  520PYPI    C1 8077  13.981   9.017  11.160 -0.0084  0.0371  0.1861
  520PYPI    C2 8078  13.968   9.378  11.330 -0.0321  0.1837 -0.1195
  520PYPI    C3 8079  13.646   9.142  11.339  0.0019  0.1434  0.1320
  520PYPI   PO4 8080  14.136   9.052  10.908  0.1226 -0.0284  0.0944
  520PYPI   GL1 8081  14.121   9.229  10.544 -0.0998  0.4573 -0.3432
  520PYPI   GL2 8082  14.159   9.504  10.429 -0.1452  0.2717 -0.0647
  520PYPI   C1A 8083  14.219   8.971  10.163 -0.1436 -0.0925  0.2090
  520PYPI   C2A 8084  14.170   8.996   9.650 -0.1427 -0.0373  0.1108
  520PYPI   D3A 8085  14.220   9.169   9.215  0.1548 -0.0203 -0.4281
  520PYPI   C4A 8086  13.885   9.005   8.861  0.1807 -0.0582  0.1124
  520PYPI   C1B 8087  14.223   9.447   9.989  0.2114 -0.1130  0.2199
  520PYPI   C2B 8088  14.288   9.563   9.606  0.0029  0.1913 -0.0665
  520PYPI   C3B 8089  14.342   9.678   9.163  0.2147 -0.0402  0.2691
  520PYPI   C4B 8090  14.240   9.778   8.715 -0.0459 -0.0180 -0.1251
  521PYPI    C1 8091   3.300   5.365  11.539  0.1527  0.0792  0.1924
  521PYPI    C2 8092   2.963   5.442  11.741 -0.0406 -0.1354 -0.0414
  521PYPI    C3 8093   3.318   5.529  11.903 -0.2128  0.2924  0.1196
  521PYPI   PO4 8094   3.281   5.253  11.316 -0.3609  0.0773  0.3125
  521PYPI   GL1 8095   3.487   5.132  11.062  0.0858 -0.2922  0.1118
  521PYPI   GL2 8096   3.591   4.798  11.097 -0.0656 -0.1043  0.0072
  521PYPI   C1A 8097   3.754   5.318  10.739  0.0502 -0.4875  0.1828
  521PYPI   C2A 8098   3.648   5.307  10.288 -0.1760 -0.0060  0.3991
  521PYPI   D3A 8099   3.693   5.150   9.873 -0.0258 -0.1645  0.2573
  521PYPI   C4A 8100   3.765   5.312   9.413  0.1218  0.0574  0.2438
  521PYPI   C1B 8101   3.715   4.801  10.647 -0.0484  0.2256  0.1418
  521PYPI   C2B 8102   3.650   4.778  10.246 -0.0328  0.3473 -0.0648
  521PYPI   C3B 8103   3.688   4.710   9.850 -0.0015  0.2531  0.2931
  521PYPI   C4B 8104   3.680   4.767   9.399 -0.1742  0.2420 -0.2083
  522PYPI    C1 8105  12.568   6.545  11.215 -0.2085  0.2129  0.0094
  522PYPI    C2 8106  12.489   6.477  11.601  0.2748 -0.2224  0.0417
  522PYPI    C3 8107  12.807   6.698  11.498  0.0873 -0.0192 -0.1092
  522PYPI   PO4 8108  12.504   6.289  11.078 -0.1747 -0.1346 -0.2026
  522PYPI   GL1 8109  12.580   6.358  10.779 -0.0625 -0.0200  0.1084
  522PYPI   GL2 8110  12.331   6.445  10.644 -0.1776  0.1275  0.1668
  522PYPI   C1A 8111  12.824   6.208  10.447  0.3299 -0.0117  0.3669
  522PYPI   C2A 8112  13.216   6.219  10.170 -0.1679  0.2479  0.1400
  522PYPI   D3A 8113  13.485   6.403   9.831  0.1676  0.0776  0.1861
  522PYPI   C4A 8114  13.762   6.568   9.940  0.1303 -0.3625  0.0940
  522PYPI   C1B 8115  12.367   6.331  10.281 -0.0830 -0.0527  0.3703
  522PYPI   C2B 8116  12.649   6.198   9.961  0.3938  0.0129  0.1075
  522PYPI   C3B 8117  12.992   6.196   9.710  0.1565  0.0752  0.0871
  522PYPI   C4B 8118  13.346   6.201   9.364 -0.2704 -0.0386 -0.1026
  523PYPI    C1 8119   2.290   0.049  11.573 -0.0463  0.1278  0.0404
  523PYPI    C2 8120   2.087   0.225  11.869 -0.1482  0.1526 -0.0437
  523PYPI    C3 8121   2.133  -0.172  11.868 -0.2371  0.1420 -0.0490
  523PYPI   PO4 8122   2.258   0.261  11.397  0.0667  0.3638  0.1179
  523PYPI   GL1 8123   1.956   0.198  11.038 -0.1467 -0.1325  0.0163
  523PYPI   GL2 8124   2.111  -0.072  10.926  0.1510  0.1348  0.1003
  523PYPI   C1A 8125   2.013   0.330  10.701  0.0038 -0.2896  0.1073
  523PYPI   C2A 8126   2.104   0.334  10.220 -0.1235  0.1489 -0.1599
  523PYPI   D3A 8127   2.119   0.333   9.777  0.1237  0.1997 -0.0342
  523PYPI   C4A 8128   2.283   0.299   9.397  0.1004 -0.2396  0.3738
  523PYPI   C1B 8129   2.033  -0.157  10.538  0.1088  0.0178  0.0394
  523PYPI   C2B 8130   2.090  -0.164  10.151 -0.0217  0.0139  0.1903
  523PYPI   C3B 8131   2.292  -0.245   9.805  0.2540  0.1562 -0.1132
  523PYPI   C4B 8132   2.241  -0.212   9.393  0.0822  0.1331 -0.0725
  524PYPI    C1 8133  15.445  11.244  11.335 -0.1364 -0.1286 -0.3727
  524PYPI    C2 8134  15.293  10.883  11.417  0.0159 -0.0916  0.1016
  524PYPI    C3 8135  15.610  11.017  11.620 -0.0089  0.2916 -0.1033
  524PYPI   PO4 8136  15.260  11.307  11.090 -0.0834 -0.2997  0.0164
  524PYPI   GL1 8137  15.146  11.326  10.745  0.0357 -0.0038 -0.0029
  524PYPI   GL2 8138  15.283  11.038  10.605 -0.1675  0.1592 -0.3785
  524PYPI   C1A 8139  14.993  11.297  10.301  0.2887  0.2905  0.1409
  524PYPI   C2A 8140  14.850  11.283   9.858 -0.0323 -0.2520 -0.1996
  524PYPI   D3A 8141  14.680  11.479   9.484  0.0466  0.2638 -0.2244
  524PYPI   C4A 8142  14.685  11.529   9.108 -0.0701 -0.0039  0.3034
  524PYPI   C1B 8143  15.258  10.948  10.082  0.3283 -0.0782 -0.2075
  524PYPI   C2B 8144  15.257  11.113   9.615  0.2756 -0.0797  0.2665
  524PYPI   C3B 8145  15.418  10.981   9.224 -0.1493  0.4286 -0.1368
  524PYPI   C4B 8146  15.659  11.187   8.874 -0.1252  0.1023 -0.2254
  525PYPI    C1 8147   0.006   9.186  11.225  0.0679 -0.0571 -0.1661
  525PYPI    C2 8148   0.124   9.322  11.582 -0.1709  0.2206 -0.1904
  525PYPI    C3 8149   0.052   8.932  11.531  0.1662  0.1329 -0.0214
  525PYPI   PO4 8150   0.160   9.294  11.103 -0.1373  0.3462  0.0253
  525PYPI   GL1 8151   0.433   9.136  10.885 -0.0569  0.1293 -0.0067
  525PYPI   GL2 8152   0.751   9.246  10.760  0.3480 -0.2192  0.1757
  525PYPI   C1A 8153   0.313   9.087  10.447 -0.2821  0.1621  0.0318
  525PYPI   C2A 8154   0.251   9.067  10.020  0.4045  0.2881  0.2852
  525PYPI   D3A 8155   0.246   9.147   9.657 -0.0366 -0.2471  0.3203
  525PYPI   C4A 8156   0.297   9.068   9.206  0.2089 -0.3564  0.1584
  525PYPI   C1B 8157   0.720   9.381  10.325 -0.0594 -0.1276  0.1275
  525PYPI   C2B 8158   0.694   9.285   9.886 -0.1453  0.3773  0.0851
  525PYPI   C3B 8159   0.686   9.391   9.458  0.0028 -0.0835  0.0276
  525PYPI   C4B 8160   0.637   9.416   9.031  0.0050 -0.0313  0.0163
  526PYPI    C1 8161  14.445   1.077  11.665 -0.1503  0.2326 -0.0295
  526PYPI    C2 8162  14.702   1.138  11.966 -0.1603  0.4506 -0.0639
  526PYPI    C3 8163  14.308   1.137  12.036 -0.1530  0.1282 -0.0133
  526PYPI   PO4 8164  14.619   1.276  11.433  0.3897 -0.3151 -0.1526
  526PYPI   GL1 8165  14.474   1.290  11.086  0.1389 -0.0696  0.0857
  526PYPI   GL2 8166  14.281   0.997  11.165  0.0679 -0.0096  0.1043
  526PYPI   C1A 8167  14.359   1.381  10.771 -0.0235  0.0638 -0.2187
  526PYPI   C2A 8168  14.431   1.166  10.418  0.0765 -0.0852 -0.0961
  526PYPI   D3A 8169  14.466   1.210  10.006  0.1219  0.1430  0.1706
  526PYPI   C4A 8170  14.391   1.170   9.559 -0.0060 -0.2717 -0.0331
  526PYPI   C1B 8171  14.401   0.808  10.730  0.1870 -0.0638  0.1702
  526PYPI   C2B 8172  14.409   0.721  10.214  0.3139 -0.0100 -0.0186
  526PYPI   C3B 8173  14.358   0.699   9.783 -0.1804 -0.0237 -0.2567
  526PYPI   C4B 8174  14.196   0.653   9.319 -0.1797  0.0781 -0.0395
  527PYPI    C1 8175   3.519   7.927  11.551  0.0893 -0.0166  0.0672
  527PYPI    C2 8176   3.266   8.190  11.717  0.1099  0.0739 -0.0430
  527PYPI    C3 8177   3.378   7.864  11.920 -0.1908 -0.0303 -0.0392
  527PYPI   PO4 8178   3.431   7.871  11.382  0.0044  0.0560 -0.0264
  527PYPI   GL1 8179   3.470   7.661  11.079  0.1432  0.0076  0.0110
  527PYPI   GL2 8180   3.707   7.373  10.980  0.2188  0.1179 -0.0815
  527PYPI   C1A 8181   3.357   7.607  10.679  0.0543 -0.1390 -0.0222
  527PYPI   C2A 8182   3.406   7.574  10.290 -0.0282 -0.1016 -0.1615
  527PYPI   D3A 8183   3.346   7.682   9.845  0.2516 -0.1250 -0.3762
  527PYPI   C4A 8184   3.328   8.144   9.693  0.2243 -0.1307 -0.1889
  527PYPI   C1B 8185   3.804   7.343  10.620 -0.0938 -0.0047  0.0059
  527PYPI   C2B 8186   3.886   7.295  10.141  0.1402 -0.1637  0.0542
  527PYPI   C3B 8187   3.776   7.439   9.624 -0.2146 -0.1037  0.1100
  527PYPI   C4B 8188   3.380   7.618   9.345  0.1261 -0.1866  0.0421
  528PYPI    C1 8189  15.077   1.131  11.712 -0.1456  0.0387  0.0423
  528PYPI    C2 8190  15.401   1.351  11.791 -0.1386  0.0242  0.0535
  528PYPI    C3 8191  15.235   1.130  12.080 -0.2159  0.1070  0.0731
  528PYPI   PO4 8192  15.189   0.981  11.496  0.2040  0.1729 -0.1732
  528PYPI   GL1 8193  15.166   0.822  11.033  0.0621  0.4261  0.1375
  528PYPI   GL2 8194  14.860   1.046  10.982  0.2350 -0.4080 -0.1326
  528PYPI   C1A 8195  15.353   0.687  10.699 -0.0724  0.1281 -0.0578
  528PYPI   C2A 8196  15.321   0.712  10.215 -0.2370 -0.2081 -0.0726
  528PYPI   D3A 8197  15.311   0.677   9.799  0.0132  0.1798 -0.5486
  528PYPI   C4A 8198  15.334   0.471   9.371 -0.0369  0.0908 -0.0884
  528PYPI   C1B 8199  14.910   0.952  10.562  0.1616 -0.0548  0.2495
  528PYPI   C2B 8200  14.866   0.922  10.108 -0.0818  0.0594  0.1645
  528PYPI   C3B 8201  14.849   1.014   9.731  0.3677  0.0441  0.0372
  528PYPI   C4B 8202  14.759   0.943   9.300 -0.0655  0.0181  0.2532
  529PYPI    C1 8203  15.506   4.847  11.392  0.0378 -0.2159  0.0060
  529PYPI    C2 8204  15.121   4.869  11.499  0.0449 -0.1684  0.0215
  529PYPI    C3 8205  15.368   4.620  11.691  0.0440 -0.1269  0.0768
  529PYPI   PO4 8206  15.473   4.794  11.128  0.0591 -0.0081  0.1675
  529PYPI   GL1 8207  15.532   4.492  10.809  0.1299 -0.2497  0.0179
  529PYPI   GL2 8208  15.784   4.538  10.779 -0.1195 -0.0180  0.2023
  529PYPI   C1A 8209  15.366   4.461  10.432 -0.1656 -0.1374  0.1399
  529PYPI   C2A 8210  15.390   4.477  10.084  0.0213  0.0580  0.3330
  529PYPI   D3A 8211  15.278   4.470   9.761  0.1603 -0.1000 -0.1627
  529PYPI   C4A 8212  14.978   4.702   9.593 -0.2723  0.3181 -0.2311
  529PYPI   C1B 8213  15.821   4.262  10.370  0.2814 -0.0591 -0.3315
  529PYPI   C2B 8214  15.858   4.142   9.952 -0.3312 -0.0958 -0.1092
  529PYPI   C3B 8215  15.575   4.030   9.619  0.0612  0.0164  0.0869
  529PYPI   C4B 8216  15.417   3.742   9.293  0.0100 -0.2646  0.1547
  530PYPI    C1 8217   8.961   7.795  11.836 -0.3832  0.1780 -0.1535
  530PYPI    C2 8218   8.734   7.930  12.137 -0.1280  0.1932  0.0359
  530PYPI    C3 8219   9.076   8.116  12.045 -0.0229 -0.0272 -0.0270
  530PYPI   PO4 8220   8.796   7.677  11.623 -0.1554 -0.1033 -0.2765
  530PYPI   GL1 8221   8.882   7.417  11.301  0.1612  0.0769  0.1002
  530PYPI   GL2 8222   9.060   7.678  11.195 -0.0193 -0.0809  0.0793
  530PYPI   C1A 8223   8.845   7.368  10.846 -0.2174  0.3397  0.0265
  530PYPI   C2A 8224   8.916   7.457  10.490 -0.0604  0.1678 -0.0200
  530PYPI   D3A 8225   8.756   7.390   9.981 -0.0726 -0.2153  0.2912
  530PYPI   C4A 8226   8.638   7.311   9.577 -0.1650 -0.2761 -0.0705
  530PYPI   C1B 8227   8.962   7.892  10.842 -0.1267  0.0306  0.0113
  530PYPI   C2B 8228   8.903   7.941  10.372  0.0112  0.1504 -0.0497
  530PYPI   C3B 8229   8.821   7.868   9.946  0.0189 -0.3397 -0.2928
  530PYPI   C4B 8230   8.675   7.892   9.559  0.3006  0.0135  0.0927
  531PYPI    C1 8231   7.930   5.367  12.037 -0.3157  0.0212 -0.1933
  531PYPI    C2 8232   7.844   5.729  12.185 -0.0193 -0.0088  0.0619
  531PYPI    C3 8233   7.863   5.412  12.429  0.0849 -0.1311 -0.1024
  531PYPI   PO4 8234   8.079   5.333  11.834 -0.0083 -0.2320  0.0825
  531PYPI   GL1 8235   8.085   5.307  11.441 -0.1634 -0.2731 -0.1788
  531PYPI   GL2 8236   8.148   5.606  11.201 -0.0205 -0.0510 -0.2478
  531PYPI   C1A 8237   8.119   5.134  10.953 -0.1319  0.0255  0.0981
  531PYPI   C2A 8238   8.127   5.079  10.521 -0.2226  0.0995 -0.0255
  531PYPI   D3A 8239   8.123   5.102  10.074  0.1954  0.3864  0.2789
  531PYPI   C4A 8240   8.235   4.970   9.616 -0.0812 -0.1720 -0.1969
  531PYPI   C1B 8241   8.214   5.614  10.759  0.0328  0.0493  0.1732
  531PYPI   C2B 8242   8.158   5.595  10.356 -0.3833 -0.0140  0.0245
  531PYPI   C3B 8243   8.177   5.615   9.926  0.0509  0.2517  0.1339
  531PYPI   C4B 8244   8.254   5.539   9.544 -0.0188 -0.1560  0.0166
  532PYPI    C1 8245  13.188   7.634  11.207 -0.1590  0.0990 -0.0944
  532PYPI    C2 8246  13.085   7.380  11.499 -0.1791  0.0196 -0.1700
  532PYPI    C3 8247  13.398   7.624  11.547 -0.2634  0.1013 -0.0293
  532PYPI   PO4 8248  13.199   7.462  11.032 -0.0413  0.2457 -0.0576
  532PYPI   GL1 8249  13.294   7.630  10.569  0.1749 -0.0913 -0.0781
  532PYPI   GL2 8250  13.044   7.696  10.562  0.1547 -0.1950  0.2215
  532PYPI   C1A 8251  13.443   7.691  10.156  0.1881 -0.1550 -0.3236
  532PYPI   C2A 8252  13.324   7.667   9.796  0.0339  0.3620  0.1610
  532PYPI   D3A 8253  13.463   7.369   9.504 -0.3133  0.2092 -0.2152
  532PYPI   C4A 8254  13.542   6.998   9.394 -0.0925 -0.0468  0.0293
  532PYPI   C1B 8255  12.938   7.712  10.136  0.0548 -0.0403  0.0923
  532PYPI   C2B 8256  12.891   7.645   9.643  0.0283  0.1366  0.1170
  532PYPI   C3B 8257  12.831   7.633   9.278 -0.1347 -0.0679  0.1939
  532PYPI   C4B 8258  12.817   7.923   8.985  0.0333 -0.0292  0.3861
  533PYPI    C1 8259  12.381   6.957  11.416 -0.0559  0.0927 -0.2208
  533PYPI    C2 8260  12.610   7.127  11.697  0.2226 -0.5333 -0.0519
  533PYPI    C3 8261  12.219   7.075  11.762  0.0872  0.1986 -0.1886
  533PYPI   PO4 8262  12.441   7.046  11.210 -0.1514 -0.0171 -0.3496
  533PYPI   GL1 8263  12.164   7.054  10.832 -0.0345  0.1132 -0.1260
  533PYPI   GL2 8264  11.944   7.284  10.806 -0.0543  0.2612 -0.0773
  533PYPI   C1A 8265  12.246   6.893  10.418 -0.1477 -0.2010 -0.0097
  533PYPI   C2A 8266  12.289   6.735   9.994 -0.1885  0.0801  0.0345
  533PYPI   D3A 8267  12.246   6.388   9.763  0.1186 -0.0676  0.1241
  533PYPI   C4A 8268  12.517   6.133   9.479 -0.0020 -0.2374  0.1240
  533PYPI   C1B 8269  12.044   7.474  10.436 -0.0202 -0.0454  0.1785
  533PYPI   C2B 8270  12.026   7.627   9.941  0.1770 -0.1651 -0.0319
  533PYPI   C3B 8271  12.120   7.491   9.580 -0.0737  0.0033 -0.2322
  533PYPI   C4B 8272  11.981   7.520   9.193 -0.1013 -0.2653  0.4114
  534PYPI    C1 8273   4.966   2.063  11.644  0.1551 -0.2731 -0.0429
  534PYPI    C2 8274   5.135   2.281  11.933  0.1753 -0.1964 -0.1121
  534PYPI    C3 8275   4.747   2.188  11.954  0.1019  0.0763 -0.2163
  534PYPI   PO4 8276   5.150   2.048  11.395 -0.4115 -0.1743 -0.2642
  534PYPI   GL1 8277   5.162   2.162  11.071  0.3553 -0.0572  0.2419
  534PYPI   GL2 8278   5.253   2.544  10.969  0.3104  0.2201 -0.0812
  534PYPI   C1A 8279   5.297   2.022  10.743 -0.5215  0.0750  0.0546
  534PYPI   C2A 8280   5.458   2.082  10.427  0.0223 -0.0528  0.0059
  534PYPI   D3A 8281   5.473   2.011  10.082  0.0757  0.2263 -0.0736
  534PYPI   C4A 8282   5.446   1.859   9.753 -0.1239 -0.1175  0.0471
  534PYPI   C1B 8283   5.361   2.505  10.734 -0.2028 -0.1201 -0.0449
  534PYPI   C2B 8284   5.309   2.559  10.314 -0.4350  0.0088 -0.0366
  534PYPI   C3B 8285   5.430   2.598   9.880  0.1518 -0.2056  0.1258
  534PYPI   C4B 8286   5.446   2.508   9.429  0.0841 -0.5086 -0.0447
  535PYPI    C1 8287  11.910   7.848  11.639  0.1400  0.0464 -0.1703
  535PYPI    C2 8288  12.229   7.612  11.687 -0.0049 -0.0548  0.3528
  535PYPI    C3 8289  12.240   7.990  11.815  0.0026  0.0301  0.1058
  535PYPI   PO4 8290  11.837   7.830  11.437 -0.0385 -0.2084  0.2502
  535PYPI   GL1 8291  12.023   7.975  11.016 -0.3303 -0.1986 -0.2097
  535PYPI   GL2 8292  12.219   7.748  10.910  0.1509 -0.1521 -0.3464
  535PYPI   C1A 8293  11.742   7.810  10.668  0.1385 -0.3692  0.0089
  535PYPI   C2A 8294  11.593   7.717  10.273 -0.2044 -0.0252  0.0530
  535PYPI   D3A 8295  11.528   7.856   9.807  0.0205  0.0378 -0.2998
  535PYPI   C4A 8296  11.603   7.509   9.673  0.2325 -0.2303  0.1402
  535PYPI   C1B 8297  12.376   7.890  10.577 -0.1312 -0.0757  0.0751
  535PYPI   C2B 8298  12.439   7.865  10.165  0.0536 -0.0796  0.1762
  535PYPI   C3B 8299  12.415   7.923   9.746  0.3981 -0.1476  0.2438
  535PYPI   C4B 8300  12.363   7.894   9.292 -0.2046 -0.2093 -0.2617
  536PYPI    C1 8301   2.561  13.790  11.736  0.0423  0.0330  0.1712
  536PYPI    C2 8302   2.275  14.062  11.668 -0.0714 -0.1441 -0.0748
  536PYPI    C3 8303   2.614  14.170  11.851 -0.1907  0.1218 -0.0051
  536PYPI   PO4 8304   2.543  13.656  11.507  0.0167 -0.0251  0.2383
  536PYPI   GL1 8305   2.487  13.489  11.196 -0.1606 -0.1854  0.3874
  536PYPI   GL2 8306   2.318  13.564  10.945  0.0858 -0.1048 -0.0743
  536PYPI   C1A 8307   2.784  13.425  10.803 -0.2242 -0.2526 -0.1474
  536PYPI   C2A 8308   2.828  13.441  10.362  0.0118  0.0280  0.1962
  536PYPI   D3A 8309   2.794  13.469   9.991 -0.0076 -0.2267 -0.0031
  536PYPI   C4A 8310   2.859  13.377   9.562  0.1021 -0.0093  0.2015
  536PYPI   C1B 8311   2.417  13.685  10.535  0.0110 -0.2459  0.1914
  536PYPI   C2B 8312   2.367  13.795  10.103  0.2959  0.0759 -0.0781
  536PYPI   C3B 8313   2.464  13.719   9.652 -0.2305  0.2140  0.0277
  536PYPI   C4B 8314   2.513  13.576   9.223 -0.0935  0.1930 -0.0912
  537PYPI    C1 8315   5.156   8.702  11.881  0.2031 -0.2474 -0.0935
  537PYPI    C2 8316   4.858   8.505  12.061 -0.0525  0.0534 -0.1788
  537PYPI    C3 8317   5.021   8.825  12.237  0.0952  0.0007 -0.2182
  537PYPI   PO4 8318   5.325   8.755  11.731 -0.1058 -0.1322  0.2391
  537PYPI   GL1 8319   5.346   8.754  11.221  0.1958 -0.2130 -0.2037
  537PYPI   GL2 8320   5.355   9.009  11.147 -0.1412  0.1292 -0.2402
  537PYPI   C1A 8321   5.329   8.596  10.747 -0.0743  0.2041 -0.1038
  537PYPI   C2A 8322   5.224   8.602  10.320  0.0634 -0.1359  0.0825
  537PYPI   D3A 8323   5.275   8.569   9.936 -0.0362  0.0075  0.4901
  537PYPI   C4A 8324   5.131   8.656   9.588  0.1956  0.0208 -0.2611
  537PYPI   C1B 8325   5.359   9.146  10.682 -0.0076 -0.1034 -0.0631
  537PYPI   C2B 8326   5.250   9.248  10.221 -0.0675  0.2464  0.1731
  537PYPI   C3B 8327   5.218   9.104   9.910 -0.0297  0.0428 -0.0413
  537PYPI   C4B 8328   5.202   9.180   9.513  0.0202 -0.2556  0.1218
  538PYPI    C1 8329   4.096  10.219  11.728 -0.0942 -0.1051 -0.1796
  538PYPI    C2 8330   4.480  10.189  11.837 -0.1116  0.0215 -0.0815
  538PYPI    C3 8331   4.191  10.133  12.107 -0.1606  0.0181 -0.1346
  538PYPI   PO4 8332   4.098  10.437  11.547 -0.3361 -0.0316 -0.1939
  538PYPI   GL1 8333   4.203  10.599  11.172  0.1152 -0.2600  0.2893
  538PYPI   GL2 8334   4.318  10.278  11.092 -0.3533 -0.2844 -0.0302
  538PYPI   C1A 8335   3.927  10.494  10.926  0.0962 -0.1433 -0.0195
  538PYPI   C2A 8336   3.978  10.516  10.492  0.2188 -0.2344  0.1308
  538PYPI   D3A 8337   3.951  10.421  10.059  0.3992  0.0463 -0.1537
  538PYPI   C4A 8338   4.077  10.519   9.604  0.1942 -0.0107 -0.3720
  538PYPI   C1B 8339   4.395  10.222  10.674  0.1806 -0.0257 -0.0842
  538PYPI   C2B 8340   4.401  10.217  10.260 -0.3017 -0.0635  0.0962
  538PYPI   C3B 8341   4.426  10.304   9.860 -0.0643  0.0132  0.1830
  538PYPI   C4B 8342   4.450  10.292   9.385  0.0278 -0.1422 -0.2701
  539PYPI    C1 8343  16.939  14.909  11.116  0.0803 -0.2411  0.1453
  539PYPI    C2 8344  16.876  15.136  11.439 -0.1017 -0.0020 -0.0546
  539PYPI    C3 8345  16.834  14.739  11.463 -0.1136  0.0132  0.2145
  539PYPI   PO4 8346  16.903  15.032  10.964 -0.3182 -0.0195 -0.0228
  539PYPI   GL1 8347  16.975  14.944  10.542  0.0479  0.0930  0.0906
  539PYPI   GL2 8348  16.668  14.700  10.614 -0.0125 -0.0876  0.0474
  539PYPI   C1A 8349  16.954  14.930  10.102  0.1277 -0.0640 -0.1047
  539PYPI   C2A 8350  16.922  14.837   9.601 -0.1101 -0.0278  0.1098
  539PYPI   D3A 8351  16.904  14.876   9.149 -0.0417  0.1279 -0.1531
  539PYPI   C4A 8352  17.135  15.055   8.720 -0.2107 -0.3266 -0.3186
  539PYPI   C1B 8353  16.463  14.654  10.259  0.0235  0.0687  0.0346
  539PYPI   C2B 8354  16.510  14.687   9.902 -0.1991  0.2723  0.0962
  539PYPI   C3B 8355  16.496  14.672   9.557  0.1709 -0.1187  0.3022
  539PYPI   C4B 8356  16.385  14.707   9.122 -0.1103 -0.0391  0.2302
  540ERGO   ROH 8357   8.399   3.231  10.975  0.0873 -0.1942 -0.2072
  540ERGO    R1 8358   8.562   3.277  10.748  0.0504 -0.2109 -0.2379
  540ERGO    R2 8359   8.625   3.078  10.567 -0.1092 -0.1890 -0.3223
  540ERGO    R3 8360   8.525   3.256  10.387 -0.0639 -0.0741 -0.2345
  540ERGO    R4 8361   8.723   3.102  10.236 -0.2312 -0.1667 -0.3571
  540ERGO    R5 8362   8.714   3.319  10.254 -0.0780 -0.1658 -0.2956
  540ERGO    C1 8363   8.687   3.283   9.875 -0.2598 -0.0458 -0.2949
  540ERGO    C2 8364   8.788   3.274   9.654 -0.1841  0.3574  0.0888
  541ERGO   ROH 8365   9.694   6.233  11.171  0.0684  0.2965 -0.1763
  541ERGO    R1 8366   9.832   6.259  10.925  0.1223  0.0892 -0.1691
  541ERGO    R2 8367   9.929   6.042  10.785 -0.0420 -0.0428 -0.0729
  541ERGO    R3 8368   9.784   6.149  10.582  0.0771  0.0010 -0.1366
  541ERGO    R4 8369   9.991   5.990  10.449  0.0822 -0.0849 -0.0442
  541ERGO    R5 8370   9.947   6.200  10.413  0.1704 -0.0650 -0.0726
  541ERGO    C1 8371   9.892   6.061  10.063  0.2661 -0.0683 -0.0873
  541ERGO    C2 8372   9.990   5.931   9.804  0.0336  0.0092 -0.0607
  542ERGO   ROH 8373  15.645  14.927  10.702 -0.0263 -0.1628 -0.0245
  542ERGO    R1 8374  15.592  14.814  10.447  0.0005 -0.0724 -0.0708
  542ERGO    R2 8375  15.450  14.948  10.252 -0.0736 -0.0458  0.0006
  542ERGO    R3 8376  15.669  14.895  10.101 -0.0634  0.1158 -0.0422
  542ERGO    R4 8377  15.442  14.852   9.920 -0.0786 -0.2020  0.0453
  542ERGO    R5 8378  15.603  14.711   9.963  0.0835 -0.0171  0.0603
  542ERGO    C1 8379  15.643  14.747   9.585 -0.0719 -0.1413  0.0312
  542ERGO    C2 8380  15.631  14.711   9.269  0.0576  0.0166  0.2634
  543ERGO   ROH 8381   7.745   1.036   8.990  0.0115 -0.0225  0.1082
  543ERGO    R1 8382   7.556   1.185   9.137 -0.0113  0.0242  0.0316
  543ERGO    R2 8383   7.584   1.456   9.186 -0.0186  0.0395 -0.0501
  543ERGO    R3 8384   7.336   1.469   9.075 -0.0021  0.0043 -0.0929
  543ERGO    R4 8385   7.357   1.711   9.240 -0.0241  0.0650 -0.1845
  543ERGO    R5 8386   7.199   1.561   9.249 -0.0280  0.0736 -0.1512
  543ERGO    C1 8387   6.992   1.871   9.169 -0.0118  0.0469 -0.3030
  543ERGO    C2 8388   6.852   2.054   8.966 -0.5600  0.0746 -0.2759
  544ERGO   ROH 8389   0.071   3.486  10.869 -0.1415 -0.1529 -0.0106
  544ERGO    R1 8390   0.015   3.343  10.631  0.0752 -0.0602 -0.1200
  544ERGO    R2 8391  -0.183   3.420  10.455  0.0531 -0.1461 -0.1299
  544ERGO    R3 8392   0.020   3.412  10.274  0.1181  0.1707 -0.0773
  544ERGO    R4 8393  -0.224   3.399  10.112  0.1629 -0.3718 -0.1310
  544ERGO    R5 8394  -0.057   3.260  10.106  0.4437 -0.0572 -0.0326
  544ERGO    C1 8395  -0.058   3.379   9.743  0.2877 -0.2059 -0.0823
  544ERGO    C2 8396   0.094   3.256   9.496  0.0474  0.3351  0.1726
  545ERGO   ROH 8397   0.067   4.030  10.736  0.0931 -0.0813  0.2063
  545ERGO    R1 8398   0.075   3.855  10.513 -0.0068  0.0948  0.0614
  545ERGO    R2 8399  -0.103   3.874  10.302 -0.0461  0.3193  0.1128
  545ERGO    R3 8400   0.125   3.887  10.154 -0.0738  0.3698  0.0741
  545ERGO    R4 8401  -0.084   3.814   9.963 -0.0299 -0.0468  0.1740
  545ERGO    R5 8402   0.104   3.709   9.996  0.0764  0.1672  0.2751
  545ERGO    C1 8403   0.140   3.792   9.626 -0.0464 -0.2127  0.1735
  545ERGO    C2 8404   0.114   3.850   9.313 -0.0200  0.0630  0.0532
  546ERGO   ROH 8405  12.773  16.765  11.097  0.1591  0.1122 -0.1027
  546ERGO    R1 8406  12.625  16.851  10.871 -0.0088  0.0244 -0.0288
  546ERGO    R2 8407  12.715  17.050  10.701 -0.2669  0.1618 -0.0121
  546ERGO    R3 8408  12.675  16.860  10.511 -0.1440  0.1682 -0.0447
  546ERGO    R4 8409  12.674  17.115  10.365 -0.2790  0.1904 -0.0049
  546ERGO    R5 8410  12.519  16.961  10.359 -0.1904  0.1023 -0.0402
  546ERGO    C1 8411  12.611  16.974   9.989 -0.1708  0.2128 -0.0312
  546ERGO    C2 8412  12.552  16.882   9.726  0.0463  0.1013  0.0671
  547ERGO   ROH 8413   8.578   7.856  11.239  0.1476  0.0517 -0.2107
  547ERGO    R1 8414   8.532   7.690  11.014  0.0245 -0.0610 -0.1061
  547ERGO    R2 8415   8.317   7.725  10.845  0.0662  0.0162 -0.1564
  547ERGO    R3 8416   8.510   7.733  10.653  0.1007 -0.2769 -0.1359
  547ERGO    R4 8417   8.260   7.695  10.505  0.0749  0.0265 -0.1571
  547ERGO    R5 8418   8.439   7.572  10.491 -0.0887 -0.2123 -0.1124
  547ERGO    C1 8419   8.408   7.685  10.128  0.1123 -0.2427 -0.1383
  547ERGO    C2 8420   8.369   7.646   9.784  0.1298  0.1686  0.4638
  548ERGO   ROH 8421   1.202   1.328  11.084  0.1664 -0.1396 -0.0299
  548ERGO    R1 8422   1.155   1.456  10.836 -0.2141 -0.1634  0.0239
  548ERGO    R2 8423   1.353   1.493  10.647 -0.3244  0.4319 -0.0008
  548ERGO    R3 8424   1.176   1.366  10.484 -0.0316  0.0142 -0.0116
  548ERGO    R4 8425   1.350   1.516  10.302 -0.3268  0.3719 -0.0045
  548ERGO    R5 8426   1.132   1.524  10.309 -0.3537 -0.1025 -0.0410
  548ERGO    C1 8427   1.182   1.411   9.949 -0.0534 -0.0553 -0.0170
  548ERGO    C2 8428   1.323   1.383   9.619 -0.2871 -0.0427 -0.0852
  549ERGO   ROH 8429   3.919   3.773  10.934 -0.0681  0.0354 -0.0389
  549ERGO    R1 8430   3.935   3.932  10.701 -0.1749  0.0220 -0.0547
  549ERGO    R2 8431   4.141   3.910  10.519 -0.1176  0.1972 -0.0078
  549ERGO    R3 8432   3.938   3.876  10.341 -0.0491 -0.0181 -0.0487
  549ERGO    R4 8433   4.178   3.906  10.175 -0.0244  0.1275  0.0023
  549ERGO    R5 8434   3.994   4.021  10.159 -0.1174 -0.0226 -0.0768
  549ERGO    C1 8435   4.009   3.871   9.809  0.0942 -0.1151 -0.0302
  549ERGO    C2 8436   4.163   3.866   9.477 -0.1647  0.0325 -0.3560
  550ERGO   ROH 8437   0.537  10.358   6.413 -0.0100  0.2088  0.0495
  550ERGO    R1 8438   0.456  10.270   6.670 -0.0130  0.1365  0.0248
  550ERGO    R2 8439   0.635  10.173   6.857 -0.0221  0.0086 -0.0247
  550ERGO    R3 8440   0.523  10.364   7.015  0.0514 -0.0124  0.0522
  550ERGO    R4 8441   0.634  10.170   7.203 -0.0157 -0.1147 -0.0260
  550ERGO    R5 8442   0.430  10.243   7.199  0.0152 -0.0425  0.0091
  550ERGO    C1 8443   0.530  10.348   7.552  0.0571 -0.2062  0.0455
  550ERGO    C2 8444   0.641  10.337   7.869 -0.1716 -0.0248  0.0394
  551ERGO   ROH 8445   6.630  13.954  11.117 -0.1987 -0.0581  0.0016
  551ERGO    R1 8446   6.576  13.814  10.877 -0.2131 -0.0573  0.0041
  551ERGO    R2 8447   6.410  13.914  10.680 -0.0767  0.0304 -0.0700
  551ERGO    R3 8448   6.626  13.870  10.520 -0.0490 -0.1439  0.0126
  551ERGO    R4 8449   6.395  13.860  10.339  0.0101 -0.0229 -0.0656
  551ERGO    R5 8450   6.550  13.708  10.361 -0.1001 -0.1221  0.0165
  551ERGO    C1 8451   6.589  13.788   9.990  0.0866 -0.2175  0.0144
  551ERGO    C2 8452   6.487  13.727   9.688 -0.0792  0.0813  0.3864
  552ERGO   ROH 8453   5.659   2.746  11.122  0.1539  0.0734  0.0557
  552ERGO    R1 8454   5.728   2.870  10.878  0.0051  0.0369 -0.0045
  552ERGO    R2 8455   5.935   2.781  10.719 -0.0622  0.0501 -0.0855
  552ERGO    R3 8456   5.743   2.774  10.527 -0.1494 -0.0263  0.0022
  552ERGO    R4 8457   5.995   2.805  10.379 -0.1975  0.0214 -0.1123
  552ERGO    R5 8458   5.818   2.931  10.362 -0.2489 -0.0195 -0.0506
  552ERGO    C1 8459   5.849   2.813  10.001 -0.3582 -0.0669 -0.0457
  552ERGO    C2 8460   5.921   2.729   9.706  0.1700 -0.1170  0.2273
  553ERGO   ROH 8461   2.129   0.642  11.072 -0.0584 -0.0299  0.0817
  553ERGO    R1 8462   2.079   0.803  10.844 -0.3312 -0.2117  0.0093
  553ERGO    R2 8463   2.275   0.867  10.660 -0.3384  0.3275  0.1774
  553ERGO    R3 8464   2.097   0.763  10.483  0.1067 -0.2350  0.0280
  553ERGO    R4 8465   2.286   0.914  10.318 -0.1869  0.3426  0.1828
  553ERGO    R5 8466   2.069   0.934  10.319 -0.2756 -0.3112  0.0002
  553ERGO    C1 8467   2.125   0.844   9.952  0.3191 -0.1767  0.0456
  553ERGO    C2 8468   2.209   0.783   9.622  0.1588 -0.0902  0.0780
  554ERGO   ROH 8469   5.181   0.439  10.994 -0.2760  0.5886 -0.0572
  554ERGO    R1 8470   5.227   0.290  10.758  0.0825  0.4561  0.0894
  554ERGO    R2 8471   5.021   0.192  10.601  0.3118 -0.0868  0.1111
  554ERGO    R3 8472   5.151   0.326  10.404  0.1131 -0.0123  0.0279
  554ERGO    R4 8473   4.949   0.166  10.264  0.2204 -0.2646  0.1431
  554ERGO    R5 8474   5.163   0.169  10.223  0.2097 -0.0605  0.0718
  554ERGO    C1 8475   5.029   0.276   9.883 -0.0194 -0.2983  0.0837
  554ERGO    C2 8476   5.008   0.336   9.570  0.1578 -0.1469  0.2978
  555ERGO   ROH 8477   3.875   3.363  10.784  0.0085 -0.2806  0.0222
  555ERGO    R1 8478   3.887   3.459  10.518 -0.0783 -0.2173  0.0412
  555ERGO    R2 8479   4.121   3.462  10.371 -0.0953 -0.0458  0.0156
  555ERGO    R3 8480   3.971   3.323  10.191 -0.0321 -0.0984  0.0028
  555ERGO    R4 8481   4.152   3.484  10.027 -0.1770  0.0797  0.0155
  555ERGO    R5 8482   3.935   3.477  10.012 -0.1758 -0.0690  0.0557
  555ERGO    C1 8483   4.029   3.367   9.659 -0.1652  0.1034  0.0035
  555ERGO    C2 8484   4.160   3.335   9.313  0.3111  0.2130  0.0761
  556ERGO   ROH 8485  14.265  14.823  10.701 -0.0138  0.0026 -0.1106
  556ERGO    R1 8486  14.266  14.902  10.429 -0.1880  0.0134 -0.1101
  556ERGO    R2 8487  14.451  14.807  10.247 -0.0612  0.3076 -0.1489
  556ERGO    R3 8488  14.228  14.739  10.107  0.0133 -0.0449 -0.1039
  556ERGO    R4 8489  14.427  14.808   9.902 -0.1612  0.3392 -0.1413
  556ERGO    R5 8490  14.226  14.890   9.921 -0.2997 -0.0086 -0.0709
  556ERGO    C1 8491  14.204  14.744   9.570 -0.1497  0.0268 -0.0946
  556ERGO    C2 8492  14.214  14.698   9.235  0.0279 -0.0072  0.0512
  557ERGO   ROH 8493   1.519   6.047  10.620 -0.2112  0.0005  0.0152
  557ERGO    R1 8494   1.646   6.152  10.389 -0.2932  0.0145 -0.0228
  557ERGO    R2 8495   1.864   6.031  10.271 -0.1804  0.1588  0.0431
  557ERGO    R3 8496   1.709   6.040  10.048 -0.1760 -0.0752  0.0266
  557ERGO    R4 8497   1.973   5.961   9.951 -0.1097  0.0467  0.0901
  557ERGO    R5 8498   1.853   6.128   9.879 -0.2216 -0.0727 -0.0147
  557ERGO    C1 8499   1.891   5.930   9.555 -0.0644 -0.2384  0.1020
  557ERGO    C2 8500   2.017   5.866   9.282 -0.0749 -0.1014 -0.1000
  558ERGO   ROH 8501  16.106   7.570  10.526 -0.0195 -0.0203 -0.0490
  558ERGO    R1 8502  15.984   7.591  10.271 -0.0111 -0.0070 -0.0535
  558ERGO    R2 8503  16.045   7.793  10.093 -0.0033  0.0060 -0.0464
  558ERGO    R3 8504  16.092   7.585   9.924  0.0048  0.0104 -0.0466
  558ERGO    R4 8505  16.176   7.821   9.774 -0.1320  0.0130 -0.0978
  558ERGO    R5 8506  16.036   7.669   9.708 -0.1000 -0.0346 -0.0312
  558ERGO    C1 8507  16.297   7.643   9.431 -0.1991  0.0213 -0.1281
  558ERGO    C2 8508  16.508   7.527   9.071 -0.2477  0.2183  0.1675
  559ERGO   ROH 8509   5.947  12.118  11.234 -0.0950  0.3395 -0.0112
  559ERGO    R1 8510   5.920  11.992  10.982 -0.1890  0.2758  0.0292
  559ERGO    R2 8511   5.749  12.085  10.786 -0.0597  0.3931 -0.0361
  559ERGO    R3 8512   5.974  12.083  10.633 -0.0309  0.0966  0.0063
  559ERGO    R4 8513   5.753  12.065  10.441  0.0035  0.0596 -0.0189
  559ERGO    R5 8514   5.924  11.930  10.456 -0.0921 -0.0388  0.1423
  559ERGO    C1 8515   5.967  12.052  10.097  0.0673 -0.4130  0.0308
  559ERGO    C2 8516   5.917  11.965   9.836 -0.1548 -0.1700  0.1874
  560ERGO   ROH 8517   9.344   8.118  11.086 -0.1678  0.0535  0.0812
  560ERGO    R1 8518   9.417   8.211  10.828 -0.1038  0.0144  0.0848
  560ERGO    R2 8519   9.489   8.039  10.623 -0.0701 -0.0198  0.1205
  560ERGO    R3 8520   9.293   8.171  10.488 -0.0331 -0.0224  0.0644
  560ERGO    R4 8521   9.453   8.044  10.279 -0.0057 -0.0507  0.1133
  560ERGO    R5 8522   9.401   8.255  10.292  0.0065 -0.0505  0.0782
  560ERGO    C1 8523   9.248   8.172   9.953  0.0667 -0.0712  0.0564
  560ERGO    C2 8524   9.189   8.063   9.637 -0.2236 -0.0074  0.1434
  561ERGO   ROH 8525   9.912   9.448  11.037 -0.2162 -0.1468 -0.1494
  561ERGO    R1 8526   9.813   9.527  10.784 -0.1641 -0.1560 -0.1716
  561ERGO    R2 8527   9.978   9.589  10.572 -0.1231 -0.1485 -0.1299
  561ERGO    R3 8528   9.829   9.402  10.442 -0.0819 -0.1559 -0.1698
  561ERGO    R4 8529   9.937   9.572  10.229  0.0031 -0.1625 -0.1456
  561ERGO    R5 8530   9.727   9.522  10.261 -0.0157 -0.1579 -0.2150
  561ERGO    C1 8531   9.773   9.387   9.908  0.1153 -0.1776 -0.1922
  561ERGO    C2 8532   9.787   9.428   9.570  0.1640 -0.0401  0.0052
  562ERGO   ROH 8533   6.083   1.943  11.310 -0.0494  0.0569 -0.0106
  562ERGO    R1 8534   6.236   2.002  11.079 -0.0434  0.0506 -0.0078
  562ERGO    R2 8535   6.299   1.811  10.889 -0.0323  0.0449  0.0047
  562ERGO    R3 8536   6.187   1.991  10.719 -0.0297  0.0335 -0.0099
  562ERGO    R4 8537   6.353   1.823  10.548  0.0391  0.0675  0.0163
  562ERGO    R5 8538   6.359   2.039  10.560 -0.0021  0.0705  0.0282
  562ERGO    C1 8539   6.279   1.998  10.189  0.0831  0.0699  0.0094
  562ERGO    C2 8540   6.282   2.084   9.868 -0.2834  0.0773 -0.1713
  563ERGO   ROH 8541  14.641   2.264  10.978 -0.2286 -0.0047  0.1249
  563ERGO    R1 8542  14.482   2.267  10.743 -0.1128  0.0861  0.0439
  563ERGO    R2 8543  14.512   2.459  10.546  0.0583  0.1033  0.0746
  563ERGO    R3 8544  14.540   2.242  10.385  0.0587  0.1105  0.0700
  563ERGO    R4 8545  14.494   2.466  10.201 -0.1080  0.0895  0.0845
  563ERGO    R5 8546  14.383   2.279  10.208 -0.0371  0.0510  0.1439
  563ERGO    C1 8547  14.511   2.267   9.849 -0.2047  0.0884  0.0860
  563ERGO    C2 8548  14.507   2.241   9.564  0.1785  0.1681 -0.4288
  564ERGO   ROH 8549  12.390   4.884  10.914  0.3527  0.1613 -0.0465
  564ERGO    R1 8550  12.338   4.744  10.673  0.3489 -0.0022  0.0472
  564ERGO    R2 8551  12.221   4.865  10.453  0.0684 -0.2260  0.0674
  564ERGO    R3 8552  12.441   4.771  10.325  0.0928 -0.0355 -0.0331
  564ERGO    R4 8553  12.252   4.833  10.110  0.0274  0.0160  0.0397
  564ERGO    R5 8554  12.354   4.643  10.142  0.1243  0.0434 -0.1033
  564ERGO    C1 8555  12.477   4.726   9.790  0.0265  0.3358 -0.0708
  564ERGO    C2 8556  12.368   4.647   9.460  0.1620 -0.0107  0.1860
  565ERGO   ROH 8557  15.399   3.870  10.831 -0.3494  0.0517  0.0607
  565ERGO    R1 8558  15.334   3.979  10.578 -0.2668  0.0149  0.0240
  565ERGO    R2 8559  15.474   3.916  10.348 -0.1145  0.0753  0.1022
  565ERGO    R3 8560  15.226   3.852  10.255 -0.0358 -0.0425 -0.0335
  565ERGO    R4 8561  15.374   3.941  10.018  0.0446  0.0688  0.0520
  565ERGO    R5 8562  15.182   4.017  10.087 -0.0342 -0.0398 -0.0345
  565ERGO    C1 8563  15.083   3.897   9.739  0.2110 -0.0456 -0.1046
  565ERGO    C2 8564  15.016   3.928   9.477 -0.1509 -0.1802 -0.1320
  566ERGO   ROH 8565   6.780   4.119  11.311  0.0667  0.0466  0.1195
  566ERGO    R1 8566   6.687   4.247  11.077 -0.0615 -0.0586  0.1109
  566ERGO    R2 8567   6.851   4.404  10.917 -0.1972  0.0366  0.0613
  566ERGO    R3 8568   6.765   4.237  10.721 -0.1035 -0.0601  0.1018
  566ERGO    R4 8569   6.854   4.476  10.579 -0.2345 -0.0448  0.0437
  566ERGO    R5 8570   6.660   4.380  10.562 -0.1819 -0.1571  0.0653
  566ERGO    C1 8571   6.775   4.360  10.199 -0.1681 -0.1831  0.0715
  566ERGO    C2 8572   6.803   4.296   9.932  0.0003  0.0145 -0.4524
  567ERGO   ROH 8573  10.125  10.531   6.577  0.0277 -0.0013 -0.1226
  567ERGO    R1 8574  10.184  10.388   6.814  0.2009  0.0378 -0.1405
  567ERGO    R2 8575  10.407  10.441   6.969  0.1282  0.3052 -0.1197
  567ERGO    R3 8576  10.223  10.466   7.167  0.0800  0.0391 -0.1279
  567ERGO    R4 8577  10.465  10.373   7.303  0.1027  0.0658 -0.1619
  567ERGO    R5 8578  10.267  10.282   7.314  0.1544 -0.0543 -0.2687
  567ERGO    C1 8579  10.325  10.357   7.683  0.0424 -0.3236 -0.1941
  567ERGO    C2 8580  10.431  10.206   8.109 -0.3116 -0.2762  0.5651
  568ERGO   ROH 8581   8.941  17.004  11.311  0.2481 -0.0387  0.0949
  568ERGO    R1 8582   8.924  17.117  11.052 -0.0822 -0.0553  0.1049
  568ERGO    R2 8583   9.138  17.121  10.877 -0.1874  0.2786 -0.0257
  568ERGO    R3 8584   8.961  17.000  10.710 -0.1069  0.0080  0.0807
  568ERGO    R4 8585   9.092  17.202  10.544 -0.4086  0.1083 -0.0387
  568ERGO    R5 8586   8.878  17.176  10.572 -0.3700 -0.1383  0.0476
  568ERGO    C1 8587   8.900  17.135  10.194 -0.4619 -0.2448  0.0536
  568ERGO    C2 8588   9.001  17.120   9.869  0.0154 -0.0179  0.2730
  569ERGO   ROH 8589   7.575   8.172  11.092  0.0728  0.0060  0.0005
  569ERGO    R1 8590   7.473   8.204  10.830  0.0266 -0.0597  0.0105
  569ERGO    R2 8591   7.596   8.364  10.641 -0.1263  0.0640  0.0159
  569ERGO    R3 8592   7.590   8.138  10.492  0.0612  0.0713 -0.0041
  569ERGO    R4 8593   7.554   8.355  10.298 -0.2516  0.0571  0.0307
  569ERGO    R5 8594   7.425   8.181  10.324 -0.0550 -0.0884  0.0650
  569ERGO    C1 8595   7.525   8.137   9.958 -0.1486  0.0599  0.0206
  569ERGO    C2 8596   7.516   8.141   9.553 -0.2199  0.0969 -0.0076
  570ERGO   ROH 8597   2.889  16.991  10.785 -0.0725  0.0049  0.0112
  570ERGO    R1 8598   2.892  17.095  10.522  0.0067 -0.0156  0.0036
  570ERGO    R2 8599   3.127  17.149  10.386  0.0493 -0.0720  0.0507
  570ERGO    R3 8600   3.017  16.987  10.198  0.0583 -0.0658  0.0406
  570ERGO    R4 8601   3.236  17.122  10.059  0.0517 -0.0535  0.0501
  570ERGO    R5 8602   3.029  17.113   9.995  0.0553 -0.0577  0.0474
  570ERGO    C1 8603   3.196  16.954   9.692  0.0615 -0.0370  0.0403
  570ERGO    C2 8604   3.264  16.993   9.498 -0.0071  0.0815 -0.1109
  571ERGO   ROH 8605  10.770  12.165  11.108 -0.3012  0.2328  0.0586
  571ERGO    R1 8606  10.585  12.228  10.903 -0.2043  0.0853 -0.0771
  571ERGO    R2 8607  10.634  12.422  10.713 -0.1694  0.0398 -0.1137
  571ERGO    R3 8608  10.580  12.220  10.539  0.0196 -0.0426 -0.0791
  571ERGO    R4 8609  10.559  12.463  10.378 -0.2816 -0.0775 -0.1036
  571ERGO    R5 8610  10.409  12.307  10.397 -0.1082 -0.2453 -0.0554
  571ERGO    C1 8611  10.465  12.297  10.020 -0.1696 -0.2231 -0.0654
  571ERGO    C2 8612  10.445  12.172   9.640  0.2279 -0.2536 -0.2431
  572ERGO   ROH 8613  11.483   4.392  11.178 -0.0735 -0.1680 -0.0565
  572ERGO    R1 8614  11.530   4.440  10.903  0.0186 -0.1003 -0.0314
  572ERGO    R2 8615  11.606   4.240  10.728 -0.0459 -0.0884 -0.0869
  572ERGO    R3 8616  11.390   4.326  10.587  0.0294  0.0779 -0.0992
  572ERGO    R4 8617  11.576   4.225  10.384 -0.0133  0.0149 -0.0928
  572ERGO    R5 8618  11.483   4.422  10.389  0.1107  0.0657 -0.0610
  572ERGO    C1 8619  11.356   4.297  10.052  0.0764  0.2313 -0.1078
  572ERGO    C2 8620  11.425   4.204   9.802  0.0123 -0.1957 -0.3497
  573ERGO   ROH 8621   7.133   3.485  11.117 -0.1779  0.2081 -0.0756
  573ERGO    R1 8622   7.165   3.570  10.849 -0.0902  0.1178 -0.0947
  573ERGO    R2 8623   7.389   3.509  10.699 -0.0063  0.1307  0.0227
  573ERGO    R3 8624   7.205   3.410  10.524  0.0977  0.0084 -0.0186
  573ERGO    R4 8625   7.385   3.572  10.359  0.0886  0.0416  0.0049
  573ERGO    R5 8626   7.168   3.589  10.369  0.0776 -0.0473 -0.0777
  573ERGO    C1 8627   7.210   3.515   9.997  0.2417 -0.1252 -0.0443
  573ERGO    C2 8628   7.331   3.571   9.771 -0.0668 -0.1274  0.2968
  574ERGO   ROH 8629   9.330  14.189  11.289 -0.0881 -0.2996 -0.0099
  574ERGO    R1 8630   9.297  14.105  11.021 -0.0829 -0.2016 -0.0422
  574ERGO    R2 8631   9.105  14.212  10.854 -0.1137 -0.1722  0.0043
  574ERGO    R3 8632   9.317  14.259  10.691 -0.1259 -0.0663  0.0194
  574ERGO    R4 8633   9.091  14.218  10.509 -0.0241 -0.4887 -0.0072
  574ERGO    R5 8634   9.282  14.113  10.505  0.0976 -0.2688  0.1358
  574ERGO    C1 8635   9.283  14.266  10.155  0.0166 -0.5734  0.0001
  574ERGO    C2 8636   9.341  14.275   9.779  0.0300  0.0905 -0.1147
  575ERGO   ROH 8637   1.992   8.054  10.425  0.5530  0.0667 -0.0031
  575ERGO    R1 8638   2.091   7.973  10.173  0.0981 -0.0665 -0.1500
  575ERGO    R2 8639   1.925   7.898   9.965 -0.3044  0.2198  0.0452
  575ERGO    R3 8640   2.063   8.089   9.829 -0.1708  0.0222 -0.0985
  575ERGO    R4 8641   1.944   7.921   9.620 -0.2412 -0.0679  0.0282
  575ERGO    R5 8642   2.154   7.973   9.640 -0.2179 -0.1827  0.0082
  575ERGO    C1 8643   2.084   8.113   9.292 -0.0790 -0.4209 -0.1166
  575ERGO    C2 8644   2.007   8.213   9.075  0.1796  0.0488  0.2655
  576ERGO   ROH 8645   6.219   0.215  10.881 -0.2491  0.1072  0.0341
  576ERGO    R1 8646   6.150   0.219  10.606 -0.1583  0.0800  0.0111
  576ERGO    R2 8647   6.146   0.451  10.457 -0.0898  0.0599 -0.0161
  576ERGO    R3 8648   6.312   0.311  10.294 -0.0489  0.0283  0.0510
  576ERGO    R4 8649   6.173   0.497  10.115 -0.0369 -0.0279 -0.0246
  576ERGO    R5 8650   6.186   0.281  10.092 -0.0149 -0.0363  0.0364
  576ERGO    C1 8651   6.345   0.392   9.763  0.0323 -0.1087  0.0334
  576ERGO    C2 8652   6.335   0.507   9.349  0.1527  0.0502 -0.5985
  577ERGO   ROH 8653   4.236   2.476  10.754  0.0364  0.0452 -0.1395
  577ERGO    R1 8654   4.345   2.605  10.527 -0.1212  0.1485 -0.1579
  577ERGO    R2 8655   4.546   2.493  10.373  0.0798  0.4067 -0.0920
  577ERGO    R3 8656   4.370   2.537  10.170  0.0414  0.0822 -0.1343
  577ERGO    R4 8657   4.625   2.480  10.037  0.1299  0.3370 -0.0778
  577ERGO    R5 8658   4.498   2.655  10.005 -0.0899  0.1628 -0.1796
  577ERGO    C1 8659   4.506   2.514   9.651  0.1231 -0.0083 -0.1093
  577ERGO    C2 8660   4.564   2.479   9.299  0.2291 -0.1997  0.0377
  578ERGO   ROH 8661  15.613   8.490  10.508 -0.2091 -0.0768 -0.0550
  578ERGO    R1 8662  15.501   8.446  10.252 -0.2353  0.1609 -0.0878
  578ERGO    R2 8663  15.485   8.644  10.060  0.1263  0.2350 -0.0517
  578ERGO    R3 8664  15.616   8.461   9.907 -0.1386  0.0487 -0.0605
  578ERGO    R4 8665  15.491   8.643   9.714  0.3349  0.3972 -0.0504
  578ERGO    R5 8666  15.471   8.426   9.719 -0.0979  0.4271 -0.1681
  578ERGO    C1 8667  15.616   8.471   9.370  0.2077  0.3167 -0.0578
  578ERGO    C2 8668  15.679   8.738   9.150 -0.1461 -0.1398  0.0326
  579ERGO   ROH 8669  12.650   6.842  10.797  0.2043  0.1956  0.0258
  579ERGO    R1 8670  12.773   6.873  10.544  0.2879 -0.1163  0.0222
  579ERGO    R2 8671  12.862   6.659  10.393 -0.2189 -0.3573  0.0370
  579ERGO    R3 8672  12.704   6.769  10.202  0.0331  0.0138  0.0325
  579ERGO    R4 8673  12.893   6.603  10.054 -0.3253 -0.4063  0.0359
  579ERGO    R5 8674  12.852   6.813  10.020  0.1476 -0.3050  0.0448
  579ERGO    C1 8675  12.762   6.673   9.677 -0.1506 -0.0865  0.0311
  579ERGO    C2 8676  12.617   6.652   9.436 -0.1183 -0.0471  0.2163
  580ERGO   ROH 8677  12.245   3.256  11.072 -0.1023 -0.0027 -0.0196
  580ERGO    R1 8678  12.136   3.261  10.810 -0.0101 -0.0225 -0.0595
  580ERGO    R2 8679  12.265   3.383  10.598  0.0946 -0.0908 -0.0388
  580ERGO    R3 8680  12.233   3.140  10.481  0.0768 -0.1047 -0.0039
  580ERGO    R4 8681  12.247   3.328  10.257 -0.1035 -0.1169 -0.0249
  580ERGO    R5 8682  12.090   3.182  10.294 -0.0479 -0.1492  0.0813
  580ERGO    C1 8683  12.207   3.068   9.949 -0.2355 -0.1451  0.0159
  580ERGO    C2 8684  12.251   2.993   9.600 -0.0151  0.3319  0.0068
  581ERGO   ROH 8685   1.235  16.704  11.055  0.1628 -0.1634  0.2517
  581ERGO    R1 8686   1.161  16.598  10.803  0.0293 -0.1092  0.2671
  581ERGO    R2 8687   1.054  16.754  10.601  0.0763 -0.0338  0.2986
  581ERGO    R3 8688   1.258  16.649  10.456 -0.0273 -0.1608  0.2438
  581ERGO    R4 8689   1.058  16.729  10.256  0.1136  0.2832  0.2733
  581ERGO    R5 8690   1.149  16.532  10.277 -0.1424  0.1436  0.1093
  581ERGO    C1 8691   1.252  16.616   9.919  0.0380  0.3487  0.2072
  581ERGO    C2 8692   1.296  16.591   9.585 -0.1478  0.1634  0.2151
  582ERGO   ROH 8693   5.227  14.324  11.153  0.0391 -0.0322  0.0260
  582ERGO    R1 8694   5.124  14.180  10.933 -0.0048  0.0092  0.0190
  582ERGO    R2 8695   4.982  14.301  10.729  0.0766  0.0715 -0.0040
  582ERGO    R3 8696   5.169  14.182  10.572  0.0399 -0.0244  0.0252
  582ERGO    R4 8697   4.993  14.320  10.384  0.1976  0.1373  0.0029
  582ERGO    R5 8698   5.048  14.110  10.378  0.0511  0.1024 -0.0269
  582ERGO    C1 8699   5.175  14.219  10.036  0.2336  0.0856  0.0343
  582ERGO    C2 8700   5.246  14.162   9.709  0.2963 -0.0264 -0.2117
  583ERGO   ROH 8701  11.010  13.014  11.203 -0.1351 -0.0013  0.1319
  583ERGO    R1 8702  10.975  13.156  10.960  0.1103 -0.0026  0.0927
  583ERGO    R2 8703  11.186  13.217  10.791  0.2413 -0.2869  0.1422
  583ERGO    R3 8704  11.031  13.092  10.606  0.1443 -0.1394  0.1237
  583ERGO    R4 8705  11.221  13.249  10.449  0.3819 -0.4105  0.1443
  583ERGO    R5 8706  11.004  13.254  10.432  0.3935 -0.1489  0.0774
  583ERGO    C1 8707  11.095  13.151  10.076  0.3727 -0.3441  0.1280
  583ERGO    C2 8708  10.995  13.036   9.757 -0.1660 -0.2771 -0.2009
  584ERGO   ROH 8709  15.650   6.593  10.485 -0.0325  0.1110 -0.0498
  584ERGO    R1 8710  15.582   6.503  10.226 -0.0744  0.1313 -0.0460
  584ERGO    R2 8711  15.770   6.461  10.028 -0.0850 -0.0289 -0.0249
  584ERGO    R3 8712  15.656   6.214  10.017 -0.2649  0.0515 -0.0055
  584ERGO    R4 8713  15.728   6.276   9.739 -0.0596 -0.0953  0.0139
  584ERGO    R5 8714  15.531   6.216   9.812 -0.1479  0.0770 -0.0769
  584ERGO    C1 8715  15.597   5.937   9.560 -0.2137 -0.0586  0.0547
  584ERGO    C2 8716  15.729   5.725   9.196  0.0243  0.2772  0.2149
  585ERGO   ROH 8717  16.645  12.292  10.791 -0.2408 -0.0483 -0.1360
  585ERGO    R1 8718  16.741  12.373  10.538 -0.2936  0.0901 -0.1120
  585ERGO    R2 8719  16.791  12.194  10.333 -0.0055  0.1607 -0.1061
  585ERGO    R3 8720  16.624  12.358  10.193 -0.1983 -0.0585 -0.1391
  585ERGO    R4 8721  16.800  12.240   9.990  0.0356  0.2055 -0.0992
  585ERGO    R5 8722  16.762  12.453  10.023 -0.2758  0.1556 -0.0879
  585ERGO    C1 8723  16.648  12.420   9.660 -0.1216  0.0258 -0.1264
  585ERGO    C2 8724  16.605  12.498   9.397  0.0281 -0.0419  0.0135
  586ERGO   ROH 8725   9.605  10.893  11.017  0.0607  0.4176  0.0302
  586ERGO    R1 8726   9.502  10.967  10.764  0.0295  0.1900 -0.0265
  586ERGO    R2 8727   9.662  10.997  10.541  0.0400  0.2306 -0.0147
  586ERGO    R3 8728   9.487  10.821  10.431  0.2258  0.0025  0.0450
  586ERGO    R4 8729   9.627  10.938  10.202  0.0332  0.1434  0.0006
  586ERGO    R5 8730   9.411  10.929  10.231  0.0493 -0.1138  0.0480
  586ERGO    C1 8731   9.442  10.739   9.902  0.2039 -0.1213  0.0656
  586ERGO    C2 8732   9.555  10.820   9.649  0.1358  0.0232 -0.1610
  587ERGO   ROH 8733  12.664   7.345  10.817  0.0314  0.0788 -0.1136
  587ERGO    R1 8734  12.498   7.324  10.588  0.0526  0.2142 -0.1419
  587ERGO    R2 8735  12.548   7.463  10.355  0.2760  0.0818 -0.1735
  587ERGO    R3 8736  12.535   7.215  10.243 -0.0078  0.0593 -0.1010
  587ERGO    R4 8737  12.533   7.400  10.015  0.5050 -0.0001 -0.1707
  587ERGO    R5 8738  12.388   7.242  10.056  0.2091  0.2367 -0.2536
  587ERGO    C1 8739  12.512   7.131   9.713  0.3719 -0.0690 -0.1010
  587ERGO    C2 8740  12.523   7.177   9.429  0.0337  0.2145 -0.1361
  588ERGO   ROH 8741   4.061   9.188  11.025  0.1365 -0.1245 -0.0294
  588ERGO    R1 8742   3.899   9.268  10.807  0.1456  0.0595  0.0297
  588ERGO    R2 8743   3.977   9.464  10.627  0.3202 -0.0526 -0.0187
  588ERGO    R3 8744   3.927   9.270  10.444  0.0002 -0.0096  0.0173
  588ERGO    R4 8745   3.927   9.519  10.290  0.1973 -0.0144  0.0053
  588ERGO    R5 8746   3.769   9.369  10.294  0.0273  0.1613  0.0989
  588ERGO    C1 8747   3.850   9.369   9.921 -0.1746  0.0481  0.0531
  588ERGO    C2 8748   3.930   9.465   9.575  0.3480  0.0334  0.1509
  589ERGO   ROH 8749  11.105   3.677  11.368 -0.2264  0.0969 -0.0236
  589ERGO    R1 8750  11.172   3.570  11.114 -0.0463  0.2051 -0.0235
  589ERGO    R2 8751  11.007   3.395  10.978  0.2214 -0.0403 -0.0435
  589ERGO    R3 8752  11.032   3.578  10.778 -0.0367  0.0095 -0.0334
  589ERGO    R4 8753  10.938   3.335  10.644  0.2014 -0.0860 -0.0311
  589ERGO    R5 8754  11.114   3.453  10.592  0.0575  0.1187 -0.0667
  589ERGO    C1 8755  10.922   3.472  10.263 -0.0528 -0.0660 -0.0146
  589ERGO    C2 8756  10.887   3.462   9.873  0.0434  0.2530  0.0535
  590ERGO   ROH 8757   3.777   0.526  10.741 -0.0074  0.1238  0.0115
  590ERGO    R1 8758   3.873   0.698  10.538 -0.0947  0.1051 -0.0465
  590ERGO    R2 8759   4.097   0.639  10.386 -0.0088  0.2101  0.0377
  590ERGO    R3 8760   3.926   0.679  10.178  0.0090 -0.0248 -0.0252
  590ERGO    R4 8761   4.192   0.731  10.067 -0.0003  0.1049  0.0096
  590ERGO    R5 8762   4.020   0.864  10.059 -0.0955 -0.0210 -0.1034
  590ERGO    C1 8763   4.087   0.822   9.686  0.0213 -0.1769 -0.0658
  590ERGO    C2 8764   4.165   0.775   9.423  0.2239  0.1400 -0.0332
  591ERGO   ROH 8765   0.134   8.531  10.544  0.1199 -0.0248 -0.0480
  591ERGO    R1 8766   0.227   8.464  10.285  0.0658  0.0329 -0.0822
  591ERGO    R2 8767   0.056   8.422  10.071  0.0156 -0.0296 -0.0273
  591ERGO    R3 8768   0.211   8.611   9.952 -0.1068  0.0464 -0.0696
  591ERGO    R4 8769   0.108   8.449   9.731  0.1476 -0.1956 -0.0220
  591ERGO    R5 8770   0.317   8.495   9.771  0.0893  0.0292  0.0506
  591ERGO    C1 8771   0.284   8.642   9.421  0.1095 -0.2208 -0.0586
  591ERGO    C2 8772   0.202   8.632   9.025  0.0198  0.4051  0.0868
  592ERGO   ROH 8773   4.150  13.825  11.109 -0.1461 -0.0760  0.0217
  592ERGO    R1 8774   4.078  13.771  10.840 -0.0932 -0.2132  0.0345
  592ERGO    R2 8775   4.145  13.939  10.632 -0.3766 -0.1237  0.0116
  592ERGO    R3 8776   4.253  13.713  10.527 -0.0332  0.0293  0.0213
  592ERGO    R4 8777   4.157  13.864  10.295 -0.1714 -0.0784  0.0072
  592ERGO    R5 8778   4.109  13.657  10.344  0.0954 -0.1530 -0.0279
  592ERGO    C1 8779   4.266  13.608  10.000  0.2705  0.0915  0.0139
  592ERGO    C2 8780   4.294  13.593   9.710  0.1637  0.0062 -0.2694
  593ERGO   ROH 8781  11.903   8.857  10.795 -0.1965 -0.0391  0.0901
  593ERGO    R1 8782  11.767   8.860  10.547  0.0648  0.1037 -0.0575
  593ERGO    R2 8783  11.899   8.860  10.305  0.3299 -0.2548  0.0726
  593ERGO    R3 8784  11.743   8.643  10.256 -0.0293  0.0063  0.0236
  593ERGO    R4 8785  11.841   8.726   9.992  0.2976 -0.2349  0.0707
  593ERGO    R5 8786  11.632   8.695  10.049  0.1995  0.1507 -0.0622
  593ERGO    C1 8787  11.660   8.444   9.763 -0.0586  0.0217  0.0235
  593ERGO    C2 8788  11.566   8.372   9.415  0.3018  0.0963 -0.0823
  594ERGO   ROH 8789  17.050   6.475  10.499  0.1491 -0.2642  0.0407
  594ERGO    R1 8790  17.034   6.453  10.217 -0.0093 -0.1194  0.0366
  594ERGO    R2 8791  17.032   6.674  10.051 -0.0569 -0.0318  0.1448
  594ERGO    R3 8792  17.241   6.545   9.932 -0.1452 -0.0168 -0.0284
  594ERGO    R4 8793  17.125   6.710   9.720 -0.3917 -0.1121  0.0386
  594ERGO    R5 8794  17.163   6.496   9.712 -0.3510 -0.1009  0.0644
  594ERGO    C1 8795  17.375   6.610   9.416 -0.6694 -0.1447 -0.1857
  594ERGO    C2 8796  17.300   6.647   9.087 -0.1601  0.1757 -0.0697
  595ERGO   ROH 8797   6.421   4.477  11.480  0.0241  0.1148 -0.0802
  595ERGO    R1 8798   6.281   4.482  11.235  0.0185  0.0225 -0.0784
  595ERGO    R2 8799   6.299   4.693  11.057 -0.0205 -0.0263 -0.1350
  595ERGO    R3 8800   6.367   4.498  10.881  0.0064 -0.0624 -0.0863
  595ERGO    R4 8801   6.299   4.729  10.714  0.1681 -0.0463 -0.1389
  595ERGO    R5 8802   6.216   4.528  10.698  0.1079 -0.0226 -0.1675
  595ERGO    C1 8803   6.363   4.566  10.348  0.3032 -0.0918 -0.0955
  595ERGO    C2 8804   6.352   4.650  10.063 -0.1704  0.4129 -0.0055
  596ERGO   ROH 8805  16.206  16.085  10.701 -0.0148 -0.1249 -0.0660
  596ERGO    R1 8806  16.118  16.213  10.464 -0.0899 -0.1267 -0.0412
  596ERGO    R2 8807  16.265  16.411  10.338 -0.1976 -0.0130 -0.0089
  596ERGO    R3 8808  16.238  16.248  10.123 -0.1076  0.0045 -0.0317
  596ERGO    R4 8809  16.240  16.518  10.011 -0.2490  0.0024  0.0010
  596ERGO    R5 8810  16.089  16.365   9.977 -0.1612 -0.0655 -0.0218
  596ERGO    C1 8811  16.201  16.428   9.618 -0.1946  0.0278 -0.0147
  596ERGO    C2 8812  16.216  16.475   9.235 -0.1465 -0.1256  0.0323
  597ERGO   ROH 8813  16.606   1.620  10.789 -0.0754 -0.0377  0.0526
  597ERGO    R1 8814  16.636   1.491  10.539 -0.3673 -0.0381  0.0184
  597ERGO    R2 8815  16.471   1.544  10.324 -0.1273  0.5557 -0.0180
  597ERGO    R3 8816  16.706   1.591  10.196  0.0860 -0.1146  0.0774
  597ERGO    R4 8817  16.521   1.506   9.984 -0.2817  0.8509 -0.0792
  597ERGO    R5 8818  16.718   1.421  10.028 -0.5540  0.0442 -0.1752
  597ERGO    C1 8819  16.772   1.529   9.666 -0.1715  0.3935 -0.0254
  597ERGO    C2 8820  16.751   1.600   9.308 -0.0376  0.0174  0.1654
  598ERGO   ROH 8821  14.472   4.689  11.150 -0.1265  0.2639 -0.1693
  598ERGO    R1 8822  14.383   4.691  10.881  0.0628  0.0972 -0.2353
  598ERGO    R2 8823  14.552   4.642  10.668  0.1591 -0.3055 -0.0735
  598ERGO    R3 8824  14.367   4.454  10.606 -0.0106 -0.1621 -0.0114
  598ERGO    R4 8825  14.484   4.531  10.348  0.1306 -0.4205 -0.0283
  598ERGO    R5 8826  14.272   4.530  10.399  0.1143 -0.1847 -0.0783
  598ERGO    C1 8827  14.270   4.290  10.103 -0.0452 -0.3528  0.0562
  598ERGO    C2 8828  14.204   4.174   9.764 -0.1366  0.0265 -0.3156
  599ERGO   ROH 8829  13.563  10.881  10.796  0.0765  0.3555 -0.0784
  599ERGO    R1 8830  13.483  10.680  10.613  0.3293  0.1574  0.0229
  599ERGO    R2 8831  13.298  10.727  10.412  0.0048 -0.2638  0.2108
  599ERGO    R3 8832  13.496  10.630  10.252  0.0631  0.1657  0.0090
  599ERGO    R4 8833  13.258  10.630  10.082 -0.1757 -0.5068  0.3009
  599ERGO    R5 8834  13.390  10.461  10.121  0.3106 -0.1701  0.2192
  599ERGO    C1 8835  13.420  10.484   9.741 -0.2261 -0.2451  0.1641
  599ERGO    C2 8836  13.454  10.567   9.548  0.1574  0.1507 -0.1818
  600ERGO   ROH 8837   8.304  14.240  11.350  0.0340  0.1760  0.0109
  600ERGO    R1 8838   8.381  14.334  11.094  0.0095 -0.0136 -0.0667
  600ERGO    R2 8839   8.542  14.186  10.924 -0.1361 -0.2064 -0.0359
  600ERGO    R3 8840   8.337  14.226  10.750 -0.1663 -0.1790  0.0046
  600ERGO    R4 8841   8.577  14.223  10.583 -0.1708  0.0300 -0.0165
  600ERGO    R5 8842   8.425  14.378  10.588 -0.2386 -0.0343  0.0962
  600ERGO    C1 8843   8.406  14.281  10.220 -0.2196  0.1934  0.0329
  600ERGO    C2 8844   8.372  14.265   9.856  0.0445  0.0836  0.2486
  601ERGO   ROH 8845  11.073  10.932  11.255 -0.1588  0.0646 -0.0534
  601ERGO    R1 8846  11.077  10.866  10.980 -0.1924  0.0058 -0.0393
  601ERGO    R2 8847  10.846  10.838  10.830 -0.2037  0.1932 -0.0542
  601ERGO    R3 8848  10.966  11.022  10.670 -0.0154  0.0484 -0.0835
  601ERGO    R4 8849  10.838  10.835  10.485 -0.1984  0.1348 -0.0544
  601ERGO    R5 8850  11.047  10.895  10.484 -0.1337 -0.0704 -0.0587
  601ERGO    C1 8851  10.947  11.005  10.133 -0.0184 -0.0351 -0.0819
  601ERGO    C2 8852  10.912  10.846   9.800  0.0568  0.2347  0.1024
  602ERGO   ROH 8853   8.582  11.183  11.321 -0.0036 -0.1392 -0.0741
  602ERGO    R1 8854   8.532  11.321  11.078 -0.0233 -0.0423 -0.0156
  602ERGO    R2 8855   8.735  11.402  10.909 -0.0287  0.1415  0.0624
  602ERGO    R3 8856   8.592  11.263  10.724  0.0743  0.1625 -0.0336
  602ERGO    R4 8857   8.761  11.443  10.567  0.0293  0.3084  0.0857
  602ERGO    R5 8858   8.545  11.422  10.552  0.0423  0.2192  0.0286
  602ERGO    C1 8859   8.643  11.335  10.194  0.1598  0.4253  0.0092
  602ERGO    C2 8860   8.582  11.315   9.801 -0.0639 -0.2215 -0.4198
  603ERGO   ROH 8861  16.687  10.518  10.511 -0.1045  0.0172 -0.0958
  603ERGO    R1 8862  16.608  10.519  10.239 -0.0165  0.0587 -0.1207
  603ERGO    R2 8863  16.570  10.751  10.096 -0.0452  0.0793 -0.0728
  603ERGO    R3 8864  16.747  10.637   9.924  0.0462  0.1808 -0.0495
  603ERGO    R4 8865  16.599  10.832   9.761  0.1112  0.2653 -0.0174
  603ERGO    R5 8866  16.625  10.619   9.718  0.1433  0.2858 -0.1200
  603ERGO    C1 8867  16.781  10.771   9.404  0.2879  0.4688  0.0367
  603ERGO    C2 8868  16.774  10.821   9.066  0.0523 -0.0243  0.2217
  604ERGO   ROH 8869  16.710   0.463  10.808 -0.0999 -0.2215  0.0857
  604ERGO    R1 8870  16.698   0.388  10.535 -0.1405 -0.0691  0.0433
  604ERGO    R2 8871  16.527   0.509  10.355 -0.0878  0.1137  0.1065
  604ERGO    R3 8872  16.757   0.548  10.214 -0.0677  0.0798  0.1317
  604ERGO    R4 8873  16.553   0.495  10.010 -0.0329  0.0684  0.1131
  604ERGO    R5 8874  16.744   0.392  10.033 -0.0478  0.0619  0.1514
  604ERGO    C1 8875  16.783   0.523   9.678  0.0183  0.0101  0.1404
  604ERGO    C2 8876  16.800   0.601   9.299  0.5248 -0.0395  0.2031
  605ERGO   ROH 8877  16.560   9.121  10.658 -0.2674  0.2432 -0.0174
  605ERGO    R1 8878  16.591   9.033  10.391 -0.2672  0.0391  0.0494
  605ERGO    R2 8879  16.391   9.055  10.202 -0.1958  0.0812 -0.0165
  605ERGO    R3 8880  16.584   9.183  10.060 -0.0497 -0.1741 -0.0564
  605ERGO    R4 8881  16.405   9.069   9.857 -0.3401  0.1859 -0.0195
  605ERGO    R5 8882  16.621   9.042   9.869 -0.3687 -0.1705 -0.1298
  605ERGO    C1 8883  16.594   9.198   9.522 -0.2868  0.0071 -0.0587
  605ERGO    C2 8884  16.600   9.171   9.181 -0.0603 -0.1296 -0.1858
  606ERGO   ROH 8885   8.328  13.048  11.231 -0.2125 -0.0163 -0.1275
  606ERGO    R1 8886   8.257  13.183  10.993 -0.0252 -0.0420 -0.2008
  606ERGO    R2 8887   8.444  13.263  10.806  0.1071 -0.2431 -0.1653
  606ERGO    R3 8888   8.287  13.122  10.636  0.0618 -0.1878 -0.1680
  606ERGO    R4 8889   8.437  13.305  10.463  0.0909 -0.2179 -0.1612
  606ERGO    R5 8890   8.220  13.281  10.470  0.0904 -0.1632 -0.1506
  606ERGO    C1 8891   8.285  13.196  10.103  0.0390 -0.1513 -0.1615
  606ERGO    C2 8892   8.284  13.151   9.688 -0.0905 -0.2035 -0.1679
  607ERGO   ROH 8893   3.684  11.263  11.169 -0.0207 -0.1310 -0.0017
  607ERGO    R1 8894   3.571  11.191  10.920 -0.1097  0.1007 -0.0309
  607ERGO    R2 8895   3.488  11.378  10.734  0.2267  0.2780 -0.0113
  607ERGO    R3 8896   3.653  11.239  10.568  0.0226  0.0282 -0.0098
  607ERGO    R4 8897   3.463  11.372  10.389  0.0384  0.0564  0.0034
  607ERGO    R5 8898   3.509  11.159  10.394 -0.1347  0.0235  0.1229
  607ERGO    C1 8899   3.603  11.238  10.033 -0.2628 -0.3073  0.0132
  607ERGO    C2 8900   3.652  11.342   9.582  0.2089 -0.1487 -0.1587
  608ERGO   ROH 8901   2.671   5.678  10.898  0.2102  0.1406  0.0434
  608ERGO    R1 8902   2.677   5.846  10.670 -0.0515  0.0139 -0.0615
  608ERGO    R2 8903   2.899   5.867  10.506 -0.0423  0.3289 -0.0178
  608ERGO    R3 8904   2.720   5.803  10.312  0.1180 -0.1348 -0.0239
  608ERGO    R4 8905   2.954   5.903  10.167 -0.1024  0.4158 -0.0184
  608ERGO    R5 8906   2.749   5.973  10.146 -0.2801 -0.0802 -0.0452
  608ERGO    C1 8907   2.818   5.864   9.787  0.0130  0.0312 -0.0246
  608ERGO    C2 8908   2.862   5.703   9.558 -0.1310  0.1130  0.0348
  609ERGO   ROH 8909   8.949  12.179  11.335  0.1491 -0.0115  0.1196
  609ERGO    R1 8910   8.915  12.312  11.087  0.1700  0.0092  0.1279
  609ERGO    R2 8911   9.092  12.503  10.996  0.2173 -0.0360  0.1252
  609ERGO    R3 8912   9.100  12.343  10.776  0.1585 -0.0286  0.1174
  609ERGO    R4 8913   9.186  12.607  10.680  0.3263 -0.0730  0.1448
  609ERGO    R5 8914   9.025  12.485  10.597  0.2677  0.0248  0.1134
  609ERGO    C1 8915   9.248  12.519  10.289  0.3346 -0.0875  0.1489
  609ERGO    C2 8916   9.176  12.713   9.890 -0.2262 -0.2438  0.2657
  610ERGO   ROH 8917  13.053  15.610  11.021  0.2764  0.1629 -0.1165
  610ERGO    R1 8918  12.971  15.731  10.778  0.2984  0.1526 -0.1299
  610ERGO    R2 8919  13.132  15.737  10.554  0.2217 -0.0768 -0.1949
  610ERGO    R3 8920  12.915  15.625  10.435  0.0716  0.0809 -0.0721
  610ERGO    R4 8921  13.070  15.740  10.214  0.0834 -0.1074 -0.1696
  610ERGO    R5 8922  12.859  15.776  10.258  0.1303  0.0873 -0.0867
  610ERGO    C1 8923  12.830  15.636   9.904 -0.1379  0.0226 -0.0397
  610ERGO    C2 8924  12.963  15.608   9.578 -0.1376  0.0416  0.0920
  611ERGO   ROH 8925   7.237   4.057  11.238 -0.1736 -0.0848  0.0322
  611ERGO    R1 8926   7.115   4.078  10.983 -0.0891  0.2422  0.0144
  611ERGO    R2 8927   7.223   4.228  10.778  0.3645 -0.0622  0.0160
  611ERGO    R3 8928   7.201   3.995  10.640 -0.2690 -0.0298  0.0326
  611ERGO    R4 8929   7.245   4.200  10.434  0.2714 -0.1507  0.0169
  611ERGO    R5 8930   7.082   4.055  10.441 -0.1265  0.2776  0.0363
  611ERGO    C1 8931   7.238   3.965  10.104 -0.3777 -0.1717  0.0330
  611ERGO    C2 8932   7.337   4.150   9.858 -0.1361 -0.2086 -0.0444
  612ERGO   ROH 8933  14.898  12.791   8.688 -0.1428 -0.0809  0.0037
  612ERGO    R1 8934  15.069  12.700   8.894 -0.0774 -0.0024 -0.0165
  612ERGO    R2 8935  15.340  12.754   8.897 -0.1070  0.1258 -0.0450
  612ERGO    R3 8936  15.285  12.851   9.145 -0.1206  0.0941 -0.0347
  612ERGO    R4 8937  15.572  12.788   9.151 -0.0608  0.3043 -0.1094
  612ERGO    R5 8938  15.420  12.718   9.292  0.0204  0.1931 -0.0656
  612ERGO    C1 8939  15.655  12.900   9.532 -0.0467  0.3786 -0.1370
  612ERGO    C2 8940  15.836  12.878   9.889  0.3411 -0.0227 -0.2575
  613ERGO   ROH 8941   8.582   4.104  11.357 -0.2152  0.0314  0.0148
  613ERGO    R1 8942   8.513   4.221  11.109 -0.3683 -0.1831 -0.0458
  613ERGO    R2 8943   8.696   4.352  10.949 -0.5833  0.2111  0.0159
  613ERGO    R3 8944   8.608   4.177  10.760 -0.0925 -0.0486  0.0111
  613ERGO    R4 8945   8.698   4.412  10.609 -0.3904  0.0470 -0.0143
  613ERGO    R5 8946   8.503   4.316  10.596 -0.2062 -0.3223 -0.1510
  613ERGO    C1 8947   8.616   4.283  10.233  0.1827 -0.2924 -0.0365
  613ERGO    C2 8948   8.717   4.290   9.851 -0.0645  0.0951  0.1844
  614ERGO   ROH 8949  11.150   0.032  11.164  0.0078  0.0155  0.1691
  614ERGO    R1 8950  11.292   0.062  10.922  0.0472 -0.0991  0.1772
  614ERGO    R2 8951  11.308  -0.139  10.733 -0.1640 -0.0903  0.1445
  614ERGO    R3 8952  11.214   0.054  10.566  0.0445  0.0402  0.1751
  614ERGO    R4 8953  11.339  -0.143  10.388 -0.1384 -0.0427  0.1462
  614ERGO    R5 8954  11.381   0.071  10.395  0.0749 -0.0871  0.1946
  614ERGO    C1 8955  11.269   0.036  10.032  0.0721  0.1076  0.1760
  614ERGO    C2 8956  11.178   0.113   9.716 -0.1510  0.4885  0.1707
  615ERGO   ROH 8957   2.744   2.220  10.696 -0.0863  0.0198  0.0197
  615ERGO    R1 8958   2.687   2.077  10.458 -0.0666  0.1034 -0.0362
  615ERGO    R2 8959   2.518   2.176  10.262  0.0021  0.2023 -0.0479
  615ERGO    R3 8960   2.732   2.131  10.101  0.0285  0.1980 -0.0106
  615ERGO    R4 8961   2.505   2.159   9.917  0.0289  0.0430 -0.0409
  615ERGO    R5 8962   2.646   1.993   9.925  0.0830  0.0904  0.0453
  615ERGO    C1 8963   2.699   2.106   9.565  0.0692 -0.0538 -0.0017
  615ERGO    C2 8964   2.648   2.058   9.261 -0.0962 -0.3732  0.1683
  616ERGO   ROH 8965   0.746  10.500  10.694  0.0199 -0.0697 -0.0952
  616ERGO    R1 8966   0.771  10.393  10.433 -0.0359  0.0046 -0.1306
  616ERGO    R2 8967   0.571  10.415  10.244 -0.0051  0.2136 -0.1367
  616ERGO    R3 8968   0.770  10.523  10.093  0.0829  0.1249 -0.0872
  616ERGO    R4 8969   0.598  10.384   9.901 -0.0210  0.3223 -0.1488
  616ERGO    R5 8970   0.813  10.358   9.925 -0.0357  0.1519 -0.1493
  616ERGO    C1 8971   0.800  10.467   9.560  0.0523  0.3025 -0.1093
  616ERGO    C2 8972   0.873  10.320   9.257  0.3402 -0.0562  0.2314
  617ERGO   ROH 8973  13.428  14.167  10.884 -0.1387 -0.0534  0.0769
  617ERGO    R1 8974  13.278  14.224  10.650 -0.0009  0.0289  0.0063
  617ERGO    R2 8975  13.364  14.403  10.458  0.2269 -0.0767  0.0020
  617ERGO    R3 8976  13.326  14.192  10.291  0.1164 -0.0808  0.0319
  617ERGO    R4 8977  13.359  14.423  10.113  0.2993 -0.1384 -0.0025
  617ERGO    R5 8978  13.194  14.281  10.112  0.2072 -0.0276 -0.0064
  617ERGO    C1 8979  13.321  14.236   9.755  0.2376 -0.1781  0.0229
  617ERGO    C2 8980  13.230  14.398   9.447 -0.1041  0.0662 -0.2810
  618ERGO   ROH 8981   2.346   5.298  10.601 -0.1718 -0.2731  0.0249
  618ERGO    R1 8982   2.296   5.125  10.383 -0.1363 -0.1500 -0.0816
  618ERGO    R2 8983   2.192   5.214  10.143 -0.0852 -0.0120 -0.0528
  618ERGO    R3 8984   2.412   5.093  10.039 -0.0702  0.0359 -0.0783
  618ERGO    R4 8985   2.240   5.146   9.808 -0.0483  0.1196 -0.0752
  618ERGO    R5 8986   2.326   4.954   9.864 -0.0472  0.1004 -0.1413
  618ERGO    C1 8987   2.475   4.992   9.515 -0.0126  0.2413 -0.1121
  618ERGO    C2 8988   2.486   5.003   9.071  0.0269 -0.3929  0.0313
  619ERGO   ROH 8989   3.128   7.991  10.918  0.1878 -0.2018  0.1228
  619ERGO    R1 8990   3.044   8.066  10.659  0.1797 -0.0021  0.1815
  619ERGO    R2 8991   3.211   8.054  10.439  0.1307  0.0273  0.1399
  619ERGO    R3 8992   3.009   7.904  10.334  0.0218  0.2036  0.0943
  619ERGO    R4 8993   3.110   8.063  10.109  0.3114  0.0045  0.0834
  619ERGO    R5 8994   2.903   8.050  10.177  0.2611  0.2561 -0.0204
  619ERGO    C1 8995   2.862   7.927   9.818  0.3143  0.1568  0.0076
  619ERGO    C2 8996   2.976   7.858   9.470 -0.2804 -0.0844  0.3464
  620ERGO   ROH 8997   6.345   5.621  11.145 -0.1186  0.2737  0.0258
  620ERGO    R1 8998   6.313   5.721  10.882  0.0583  0.1590 -0.0412
  620ERGO    R2 8999   6.528   5.777  10.718  0.1688 -0.0146  0.0372
  620ERGO    R3 9000   6.398   5.611  10.546  0.1836 -0.0444  0.0555
  620ERGO    R4 9001   6.556   5.788  10.373 -0.0275  0.1113  0.0246
  620ERGO    R5 9002   6.341   5.750  10.360 -0.0095 -0.0239  0.1299
  620ERGO    C1 9003   6.449   5.639  10.012 -0.1279  0.1565  0.0343
  620ERGO    C2 9004   6.537   5.630   9.706 -0.0098 -0.2624 -0.1009
  621ERGO   ROH 9005   4.010  15.542  11.289 -0.1955  0.2377 -0.0127
  621ERGO    R1 9006   4.053  15.440  11.029 -0.0017  0.3125 -0.0123
  621ERGO    R2 9007   3.862  15.293  10.894  0.2801 -0.0884  0.0038
  621ERGO    R3 9008   3.901  15.480  10.701 -0.1131 -0.0052 -0.0028
  621ERGO    R4 9009   3.797  15.246  10.557  0.3942 -0.2412  0.0020
  621ERGO    R5 9010   3.980  15.355  10.512  0.1670  0.1548  0.0062
  621ERGO    C1 9011   3.796  15.395  10.180  0.0917 -0.2521 -0.0051
  621ERGO    C2 9012   3.805  15.462   9.809 -0.0477  0.3817 -0.1036
  622ERGO   ROH 9013   1.815   3.875  10.539 -0.2859  0.2230 -0.0717
  622ERGO    R1 9014   1.810   3.733  10.294 -0.0862  0.0948 -0.0052
  622ERGO    R2 9015   1.602   3.755  10.113 -0.0465 -0.1646 -0.0936
  622ERGO    R3 9016   1.802   3.817   9.940 -0.0342 -0.0855 -0.0493
  622ERGO    R4 9017   1.615   3.658   9.782  0.0253 -0.0847 -0.1135
  622ERGO    R5 9018   1.828   3.621   9.806  0.0262 -0.0465 -0.0906
  622ERGO    C1 9019   1.810   3.659   9.427  0.0787  0.0360 -0.0836
  622ERGO    C2 9020   1.861   3.677   9.209  0.2418 -0.3991  0.0824
  623ERGO   ROH 9021   1.332  11.640  10.815 -0.0948  0.1907 -0.1646
  623ERGO    R1 9022   1.236  11.660  10.549 -0.0624  0.1620 -0.1781
  623ERGO    R2 9023   1.352  11.826  10.361  0.0022  0.0914 -0.2006
  623ERGO    R3 9024   1.367  11.597  10.215 -0.0457  0.0569 -0.1521
  623ERGO    R4 9025   1.386  11.812  10.017  0.0457  0.0097 -0.1937
  623ERGO    R5 9026   1.245  11.646  10.015 -0.0034  0.0515 -0.1790
  623ERGO    C1 9027   1.419  11.590   9.680  0.0261 -0.0704 -0.1442
  623ERGO    C2 9028   1.462  11.616   9.267  0.0103  0.0703 -0.2283
  624ERGO   ROH 9029  14.210  10.076  10.801  0.1083  0.2133 -0.0239
  624ERGO    R1 9030  14.281   9.979  10.544 -0.1478  0.1322 -0.0665
  624ERGO    R2 9031  14.095   9.949  10.340 -0.2825  0.4580  0.0010
  624ERGO    R3 9032  14.270  10.105  10.203 -0.0805  0.1978 -0.0446
  624ERGO    R4 9033  14.150   9.933   9.999 -0.1434  0.1449  0.0350
  624ERGO    R5 9034  14.363   9.960  10.036 -0.1338 -0.0156  0.1077
  624ERGO    C1 9035  14.346  10.070   9.672  0.1270 -0.2818  0.0119
  624ERGO    C2 9036  14.175  10.034   9.458 -0.2772 -0.0943  0.0748
  625ERGO   ROH 9037  12.091  11.399  11.227 -0.3160 -0.1745  0.0249
  625ERGO    R1 9038  11.920  11.450  11.008 -0.1835 -0.1055 -0.0641
  625ERGO    R2 9039  11.980  11.635  10.811 -0.0391 -0.0829  0.0006
  625ERGO    R3 9040  11.940  11.423  10.645  0.0155 -0.0464 -0.0586
  625ERGO    R4 9041  11.932  11.658  10.470 -0.0074 -0.0011  0.0017
  625ERGO    R5 9042  11.780  11.503  10.485  0.0183 -0.0323 -0.0546
  625ERGO    C1 9043  11.867  11.474  10.115  0.0623  0.0807 -0.0534
  625ERGO    C2 9044  11.840  11.514   9.699  0.0557  0.0878 -0.0847
  626ERGO   ROH 9045   9.762   3.882  11.428  0.1918  0.1612  0.0810
  626ERGO    R1 9046   9.653   3.745  11.205 -0.3056  0.2808  0.2364
  626ERGO    R2 9047   9.490   3.870  11.019  0.2327  0.7221  0.0264
  626ERGO    R3 9048   9.673   3.774  10.843 -0.0642 -0.2745  0.1968
  626ERGO    R4 9049   9.433   3.821  10.682  0.1895  0.6560  0.0432
  626ERGO    R5 9050   9.546   3.635  10.695 -0.6211  0.1276  0.2714
  626ERGO    C1 9051   9.571   3.702  10.320 -0.1141 -0.3181  0.2130
  626ERGO    C2 9052   9.566   3.663   9.971  0.2267 -0.2725 -0.4087
  627ERGO   ROH 9053  17.188   5.285  10.443  0.0143  0.1066 -0.0864
  627ERGO    R1 9054  17.093   5.315  10.178  0.1216  0.0820 -0.1285
  627ERGO    R2 9055  17.238   5.233   9.957  0.0742 -0.2421 -0.0468
  627ERGO    R3 9056  17.012   5.094   9.900 -0.1011  0.0247 -0.0195
  627ERGO    R4 9057  17.109   5.187   9.640  0.1280 -0.3174 -0.0581
  627ERGO    R5 9058  16.909   5.217   9.722  0.1355  0.0262 -0.1562
  627ERGO    C1 9059  16.821   5.029   9.402 -0.0051 -0.1106 -0.0390
  627ERGO    C2 9060  16.647   5.039   9.090 -0.3226  0.1319 -0.2496
  628ERGO   ROH 9061   0.747   5.568  10.424  0.1913  0.1054  0.2274
  628ERGO    R1 9062   0.782   5.431  10.178  0.2651  0.1390  0.2192
  628ERGO    R2 9063   0.676   5.523   9.940  0.1541  0.0593  0.2389
  628ERGO    R3 9064   0.933   5.503   9.855  0.1594  0.2691  0.1971
  628ERGO    R4 9065   0.771   5.453   9.616  0.1470 -0.1872  0.2881
  628ERGO    R5 9066   0.928   5.324   9.695  0.3233  0.0817  0.3929
  628ERGO    C1 9067   1.068   5.392   9.346  0.1478 -0.1337  0.2776
  628ERGO    C2 9068   1.128   5.364   8.993  0.0517 -0.0706  0.3040
  629ERGO   ROH 9069   7.769  12.540  11.075  0.0562  0.0592 -0.1500
  629ERGO    R1 9070   7.675  12.432  10.830  0.0103  0.1454 -0.1710
  629ERGO    R2 9071   7.614  12.590  10.611  0.1364  0.2091 -0.1625
  629ERGO    R3 9072   7.788  12.424  10.484  0.0418  0.1071 -0.1598
  629ERGO    R4 9073   7.638  12.554  10.269  0.0359  0.0987 -0.1588
  629ERGO    R5 9074   7.664  12.340  10.298 -0.0369  0.0980 -0.1032
  629ERGO    C1 9075   7.816  12.378   9.950 -0.1115 -0.0613 -0.1539
  629ERGO    C2 9076   7.780  12.498   9.580  0.1855 -0.0261  0.1642
  630ERGO   ROH 9077  17.228  14.428  10.586 -0.2172 -0.0784  0.0246
  630ERGO    R1 9078  17.278  14.601  10.368 -0.1300  0.0002  0.1056
  630ERGO    R2 9079  17.482  14.556  10.186 -0.1200  0.0093  0.1098
  630ERGO    R3 9080  17.281  14.575  10.005 -0.0933  0.1553  0.0950
  630ERGO    R4 9081  17.525  14.573   9.844 -0.0886 -0.0233  0.1126
  630ERGO    R5 9082  17.366  14.721   9.836  0.0218  0.0908  0.1001
  630ERGO    C1 9083  17.361  14.600   9.474 -0.0453  0.0947  0.1003
  630ERGO    C2 9084  17.307  14.488   9.193 -0.3624 -0.1579  0.0164
  631ERGO   ROH 9085   4.278  12.021  11.077  0.0021  0.0562 -0.0192
  631ERGO    R1 9086   4.203  11.949  10.814 -0.1549  0.1136  0.0078
  631ERGO    R2 9087   4.007  12.084  10.672 -0.0538  0.3188  0.0495
  631ERGO    R3 9088   4.203  12.106  10.486 -0.0762  0.0870 -0.0030
  631ERGO    R4 9089   3.959  12.068  10.331 -0.1310  0.2314  0.0648
  631ERGO    R5 9090   4.141  11.951  10.315 -0.2350  0.0778  0.0677
  631ERGO    C1 9091   4.115  12.080   9.957 -0.1970 -0.0371  0.0245
  631ERGO    C2 9092   4.127  12.145   9.682  0.0164  0.0211  0.0686
  632ERGO   ROH 9093  15.271   6.161  10.523  0.0972 -0.0399 -0.0289
  632ERGO    R1 9094  15.294   6.051  10.263  0.0376  0.0437 -0.0701
  632ERGO    R2 9095  15.104   5.882  10.156  0.0475  0.0222 -0.0539
  632ERGO    R3 9096  15.103   6.063   9.953 -0.0741  0.0824 -0.0007
  632ERGO    R4 9097  14.957   5.832   9.846 -0.0247  0.0606 -0.0259
  632ERGO    R5 9098  15.129   5.931   9.755 -0.0845  0.1483 -0.0469
  632ERGO    C1 9099  14.872   5.974   9.476 -0.1810  0.1396  0.0406
  632ERGO    C2 9100  14.725   5.975   9.217  0.1535  0.0883  0.2317
  633ERGO   ROH 9101  12.725   5.832  10.727 -0.0575  0.0059 -0.1338
  633ERGO    R1 9102  12.790   5.692  10.490  0.1022 -0.0007 -0.0884
  633ERGO    R2 9103  12.621   5.683  10.271  0.0785 -0.3177 -0.0661
  633ERGO    R3 9104  12.840   5.775  10.139 -0.0613 -0.0648 -0.1268
  633ERGO    R4 9105  12.670   5.659   9.930  0.0816 -0.3944 -0.0597
  633ERGO    R5 9106  12.879   5.612   9.969  0.1536 -0.0831 -0.0591
  633ERGO    C1 9107  12.904   5.732   9.607 -0.0479 -0.2016 -0.1131
  633ERGO    C2 9108  12.957   5.848   9.346 -0.1430 -0.2156  0.2696
  634ERGO   ROH 9109   0.190  12.972  10.906  0.0048  0.2726 -0.1033
  634ERGO    R1 9110   0.101  12.912  10.644  0.0905  0.0216 -0.0769
  634ERGO    R2 9111   0.042  13.107  10.458 -0.1243 -0.1484 -0.1907
  634ERGO    R3 9112   0.219  12.969  10.305  0.0469 -0.0320 -0.1016
  634ERGO    R4 9113   0.049  13.110  10.112  0.1103 -0.0680 -0.1876
  634ERGO    R5 9114   0.091  12.896  10.116  0.2079 -0.0510 -0.2074
  634ERGO    C1 9115   0.219  12.982   9.767  0.4077  0.0879 -0.1023
  634ERGO    C2 9116   0.073  13.032   9.507 -0.1125  0.0979  0.0858
  635ERGO   ROH 9117   4.450  16.784  10.951  0.2306 -0.0046  0.0583
  635ERGO    R1 9118   4.520  16.628  10.725  0.1190 -0.0520  0.0559
  635ERGO    R2 9119   4.352  16.599  10.507  0.0385 -0.0433  0.1152
  635ERGO    R3 9120   4.570  16.686  10.369  0.0133 -0.1116  0.0315
  635ERGO    R4 9121   4.384  16.592  10.163 -0.1451  0.0656  0.0949
  635ERGO    R5 9122   4.591  16.531  10.188 -0.1652 -0.0567 -0.0377
  635ERGO    C1 9123   4.606  16.670   9.834 -0.2754  0.0647  0.0044
  635ERGO    C2 9124   4.485  16.478   9.538  0.0436 -0.0778 -0.1594
  636ERGO   ROH 9125  13.190   9.165  10.721  0.2610 -0.2406 -0.0297
  636ERGO    R1 9126  13.047   9.097  10.487  0.2250 -0.1738 -0.0264
  636ERGO    R2 9127  12.826   9.240  10.401  0.0947 -0.2653  0.1570
  636ERGO    R3 9128  12.968   9.256  10.169 -0.0011 -0.0009  0.1120
  636ERGO    R4 9129  12.689   9.270  10.085 -0.0545 -0.2964  0.2174
  636ERGO    R5 9130  12.839   9.132  10.011  0.0880 -0.0912  0.1068
  636ERGO    C1 9131  12.742   9.303   9.684 -0.2310 -0.0663  0.2105
  636ERGO    C2 9132  12.605   9.374   9.385  0.0972 -0.0271 -0.0405
  637ERGO   ROH 9133  12.567  12.364  10.774  0.0212  0.1842  0.0333
  637ERGO    R1 9134  12.421  12.367  10.532  0.0002 -0.0152  0.0432
  637ERGO    R2 9135  12.514  12.491  10.303 -0.1159 -0.0227 -0.0015
  637ERGO    R3 9136  12.470  12.247  10.192  0.0647 -0.0948  0.0782
  637ERGO    R4 9137  12.459  12.435   9.967  0.1537 -0.1897 -0.0219
  637ERGO    R5 9138  12.307  12.289  10.021  0.1674 -0.2305 -0.0634
  637ERGO    C1 9139  12.386  12.174   9.666  0.4803 -0.3546  0.0411
  637ERGO    C2 9140  12.458  12.180   9.268  0.1349 -0.1012  0.0558
  638ERGO   ROH 9141   9.841   2.075  11.523  0.1751 -0.0440 -0.0032
  638ERGO    R1 9142   9.991   2.009  11.292  0.0888 -0.1809 -0.0211
  638ERGO    R2 9143   9.919   1.803  11.121 -0.1631 -0.0667 -0.0562
  638ERGO    R3 9144   9.933   1.998  10.933  0.0616 -0.0464 -0.0210
  638ERGO    R4 9145  10.001   1.753  10.789 -0.2166 -0.1020 -0.0643
  638ERGO    R5 9146  10.119   1.936  10.795 -0.0062 -0.2343 -0.0301
  638ERGO    C1 9147  10.062   1.907  10.419 -0.0369 -0.1035 -0.0360
  638ERGO    C2 9148  10.031   1.948  10.174  0.2010 -0.2017 -0.0863
  639ERGO   ROH 9149  13.629   7.219  10.744 -0.2381 -0.0893  0.0479
  639ERGO    R1 9150  13.610   7.097  10.489 -0.0875 -0.0860  0.0352
  639ERGO    R2 9151  13.514   7.232  10.266 -0.1429 -0.1456  0.0290
  639ERGO    R3 9152  13.751   7.153  10.159 -0.0591  0.0460  0.0673
  639ERGO    R4 9153  13.610   7.282   9.938 -0.1875 -0.1614  0.0127
  639ERGO    R5 9154  13.696   7.083   9.937  0.0096 -0.0855  0.0861
  639ERGO    C1 9155  13.888   7.238   9.646 -0.1347  0.0093  0.0392
  639ERGO    C2 9156  14.019   7.259   9.375  0.0355  0.0413 -0.3511
  640ERGO   ROH 9157   6.531  16.420  10.772 -0.1612 -0.2036 -0.0783
  640ERGO    R1 9158   6.504  16.451  10.492 -0.0568 -0.0167 -0.0696
  640ERGO    R2 9159   6.665  16.620  10.345  0.1588 -0.0953  0.0696
  640ERGO    R3 9160   6.714  16.396  10.199 -0.0334 -0.0657 -0.0437
  640ERGO    R4 9161   6.697  16.611  10.001  0.2360  0.0642  0.0714
  640ERGO    R5 9162   6.584  16.425  10.000  0.0452  0.1781 -0.0622
  640ERGO    C1 9163   6.761  16.395   9.664  0.1006  0.1849 -0.0339
  640ERGO    C2 9164   6.802  16.319   9.410 -0.1726 -0.3279  0.0330
  641ERGO   ROH 9165   4.135   8.381  10.904  0.0884 -0.0884  0.0040
  641ERGO    R1 9166   4.264   8.327  10.658  0.0759 -0.1777  0.0168
  641ERGO    R2 9167   4.256   8.078  10.537 -0.1468 -0.1545 -0.0214
  641ERGO    R3 9168   4.164   8.221  10.325  0.0244 -0.0311 -0.0146
  641ERGO    R4 9169   4.307   7.996  10.205 -0.1585 -0.1394 -0.0270
  641ERGO    R5 9170   4.339   8.207  10.162  0.0424 -0.1605  0.0169
  641ERGO    C1 9171   4.250   8.082   9.813 -0.0047 -0.0149 -0.0239
  641ERGO    C2 9172   4.235   8.069   9.541  0.0301 -0.1508  0.0153
  642ERGO   ROH 9173   3.241   4.452  10.972  0.1335  0.0277 -0.0303
  642ERGO    R1 9174   3.103   4.469  10.726  0.1668 -0.1582 -0.0629
  642ERGO    R2 9175   3.183   4.636  10.520  0.0227 -0.0875 -0.0634
  642ERGO    R3 9176   3.178   4.406  10.375  0.3166 -0.1131 -0.0392
  642ERGO    R4 9177   3.175   4.619  10.175 -0.0369 -0.1350 -0.0602
  642ERGO    R5 9178   3.034   4.455  10.191  0.2003 -0.3380 -0.0101
  642ERGO    C1 9179   3.165   4.394   9.838  0.2042 -0.1868 -0.0354
  642ERGO    C2 9180   3.294   4.466   9.494  0.0243 -0.1469  0.0272
  643ERGO   ROH 9181   5.890   7.553  11.313  0.1266 -0.1078  0.0684
  643ERGO    R1 9182   6.050   7.557  11.080  0.0710  0.0921  0.0321
  643ERGO    R2 9183   6.033   7.362  10.884  0.3260  0.0227  0.0750
  643ERGO    R3 9184   5.992   7.575  10.721 -0.0403 -0.0661  0.0413
  643ERGO    R4 9185   6.095   7.365  10.545  0.1801  0.0367  0.0474
  643ERGO    R5 9186   6.175   7.567  10.566 -0.0909  0.1548 -0.0328
  643ERGO    C1 9187   6.094   7.567  10.193 -0.2488 -0.0385 -0.0003
  643ERGO    C2 9188   6.129   7.471   9.931  0.1452  0.0508 -0.2321
  644ERGO   ROH 9189  13.839   5.112  10.700  0.0938 -0.2243  0.0625
  644ERGO    R1 9190  13.949   5.108  10.439 -0.1668  0.1113 -0.0603
  644ERGO    R2 9191  14.006   4.873  10.306  0.2969  0.2746 -0.1568
  644ERGO    R3 9192  13.850   4.981  10.112 -0.1997 -0.0824  0.0213
  644ERGO    R4 9193  13.961   4.738   9.991  0.4611  0.2844 -0.1858
  644ERGO    R5 9194  13.970   4.940   9.909 -0.2131  0.3817 -0.0979
  644ERGO    C1 9195  13.788   4.762   9.626  0.0905 -0.0451 -0.0357
  644ERGO    C2 9196  13.667   4.488   9.358  0.0128  0.1967  0.5128
  645ERGO   ROH 9197   1.526   8.381  10.892 -0.0437 -0.2360 -0.0265
  645ERGO    R1 9198   1.635   8.278  10.652 -0.0427 -0.2178 -0.0344
  645ERGO    R2 9199   1.479   8.160  10.457 -0.0545 -0.1265 -0.0844
  645ERGO    R3 9200   1.598   8.344  10.296  0.0262 -0.1264 -0.0244
  645ERGO    R4 9201   1.518   8.127  10.115  0.0452 -0.0836 -0.0772
  645ERGO    R5 9202   1.717   8.213  10.134  0.0519 -0.1221 -0.0059
  645ERGO    C1 9203   1.652   8.280   9.765  0.1790 -0.0585 -0.0167
  645ERGO    C2 9204   1.616   8.357   9.466 -0.4214 -0.1806  0.0366
  646ERGO   ROH 9205  10.058   7.226  11.208  0.1161  0.2737 -0.1574
  646ERGO    R1 9206  10.067   7.210  10.925  0.0917  0.1883 -0.1533
  646ERGO    R2 9207   9.884   7.063  10.779  0.1468  0.0518 -0.0856
  646ERGO    R3 9208   9.848   7.298  10.648  0.0160 -0.0069 -0.1573
  646ERGO    R4 9209   9.821   7.092  10.440  0.0210 -0.0898 -0.0758
  646ERGO    R5 9210   9.955   7.265  10.436 -0.0434 -0.0418 -0.1820
  646ERGO    C1 9211   9.751   7.330  10.120 -0.1750 -0.2273 -0.1375
  646ERGO    C2 9212   9.623   7.397   9.809 -0.2110  0.0479  0.1114
  647ERGO   ROH 9213   7.130   1.883  11.216  0.0540  0.1814 -0.0098
  647ERGO    R1 9214   7.269   1.954  10.980  0.0346  0.3655  0.0331
  647ERGO    R2 9215   7.277   1.789  10.757  0.3183  0.3776  0.0393
  647ERGO    R3 9216   7.184   2.011  10.631  0.0676  0.2562  0.0039
  647ERGO    R4 9217   7.291   1.842  10.416  0.3659  0.3635  0.0388
  647ERGO    R5 9218   7.342   2.050  10.455  0.0866  0.4458  0.0509
  647ERGO    C1 9219   7.211   2.081  10.098  0.1581  0.2413  0.0052
  647ERGO    C2 9220   7.140   2.033   9.712  0.0788 -0.0691  0.0622
  648ERGO   ROH 9221   9.821  10.450  11.143  0.3598 -0.0869 -0.0674
  648ERGO    R1 9222   9.888  10.580  10.901  0.1877 -0.0328 -0.0886
  648ERGO    R2 9223  10.039  10.458  10.704  0.0642  0.0161 -0.2183
  648ERGO    R3 9224   9.828  10.526  10.546 -0.0497  0.0345 -0.0595
  648ERGO    R4 9225  10.038  10.446  10.359 -0.2706 -0.1852 -0.2149
  648ERGO    R5 9226   9.927  10.633  10.357 -0.1719 -0.1287 -0.2179
  648ERGO    C1 9227   9.840  10.503  10.009 -0.5726 -0.2851 -0.0636
  648ERGO    C2 9228   9.907  10.415   9.649 -0.0679  0.1863 -0.0029
  649ERGO   ROH 9229  15.944  13.461  10.398 -0.1068 -0.0376 -0.0178
  649ERGO    R1 9230  15.929  13.338  10.144 -0.3010 -0.0003 -0.0263
  649ERGO    R2 9231  15.736  13.403   9.958 -0.1888  0.3365 -0.0352
  649ERGO    R3 9232  15.950  13.444   9.797 -0.1052 -0.0106 -0.0174
  649ERGO    R4 9233  15.730  13.378   9.614 -0.1798  0.2873 -0.0313
  649ERGO    R5 9234  15.925  13.280   9.623 -0.3253 -0.0026  0.0079
  649ERGO    C1 9235  15.928  13.400   9.261 -0.0960 -0.0671 -0.0124
  649ERGO    C2 9236  15.973  13.623   8.806 -0.0206  0.0961 -0.1422
  650ERGO   ROH 9237   5.806   9.315  11.018 -0.1746  0.1556  0.0615
  650ERGO    R1 9238   5.806   9.461  10.776  0.1066  0.0160 -0.0270
  650ERGO    R2 9239   5.931   9.369  10.547 -0.0874 -0.3823  0.0165
  650ERGO    R3 9240   5.687   9.408  10.436 -0.0266  0.0495  0.0139
  650ERGO    R4 9241   5.867   9.363  10.208 -0.1185 -0.4068  0.0228
  650ERGO    R5 9242   5.732   9.532  10.236  0.2099 -0.1232 -0.0442
  650ERGO    C1 9243   5.599   9.395   9.905 -0.0794 -0.0157  0.0241
  650ERGO    C2 9244   5.643   9.295   9.627  0.0116 -0.0858  0.1757
  651ERGO   ROH 9245  10.844   9.838  10.986  0.0727  0.2169  0.0254
  651ERGO    R1 9246  10.796   9.969  10.740 -0.0043  0.0955 -0.0246
  651ERGO    R2 9247  10.981   9.975  10.535 -0.0053  0.1348 -0.0215
  651ERGO    R3 9248  10.776   9.873  10.389  0.0608 -0.0463  0.0087
  651ERGO    R4 9249  10.978   9.951  10.191 -0.0635  0.2143 -0.0267
  651ERGO    R5 9250  10.768  10.012  10.194 -0.1313 -0.0037  0.0421
  651ERGO    C1 9251  10.783   9.842   9.852 -0.0352  0.0905 -0.0011
  651ERGO    C2 9252  10.724   9.877   9.485 -0.1506  0.0902 -0.3006
  652ERGO   ROH 9253  14.474  13.927  10.604  0.0268 -0.0753  0.1995
  652ERGO    R1 9254  14.602  13.897  10.354 -0.0009 -0.1956  0.1988
  652ERGO    R2 9255  14.536  13.696  10.176 -0.2808 -0.0605  0.1439
  652ERGO    R3 9256  14.503  13.904  10.004  0.0237  0.0353  0.1951
  652ERGO    R4 9257  14.543  13.671   9.831 -0.1248  0.0521  0.1378
  652ERGO    R5 9258  14.655  13.858   9.824  0.0725 -0.0582  0.2602
  652ERGO    C1 9259  14.516  13.851   9.469  0.2520  0.2074  0.1822
  652ERGO    C2 9260  14.522  13.961   9.190  0.1528 -0.2336  0.1061
  653ERGO   ROH 9261   8.571   5.271  11.279  0.2004  0.1660  0.0556
  653ERGO    R1 9262   8.615   5.371  11.018  0.2285  0.1568  0.0571
  653ERGO    R2 9263   8.800   5.259  10.845  0.0233 -0.0515 -0.0326
  653ERGO    R3 9264   8.586   5.243  10.678 -0.0646  0.2505  0.0436
  653ERGO    R4 9265   8.812   5.307  10.503 -0.0204 -0.1199 -0.0441
  653ERGO    R5 9266   8.623   5.415  10.516  0.1450  0.1735  0.0065
  653ERGO    C1 9267   8.618   5.319  10.147 -0.1283  0.1239  0.0208
  653ERGO    C2 9268   8.582   5.300   9.825 -0.2135 -0.1804 -0.0995
  654ERGO   ROH 9269  15.509  16.693  11.036  0.0563  0.0100  0.0051
  654ERGO    R1 9270  15.343  16.721  10.809 -0.0468 -0.0558  0.0720
  654ERGO    R2 9271  15.345  16.948  10.650 -0.1334 -0.0948  0.0197
  654ERGO    R3 9272  15.391  16.768  10.451 -0.2109 -0.1361  0.0376
  654ERGO    R4 9273  15.306  17.012  10.313  0.1281 -0.0285 -0.0006
  654ERGO    R5 9274  15.220  16.813  10.290 -0.0751  0.0598 -0.0589
  654ERGO    C1 9275  15.327  16.881   9.930  0.2077 -0.0287  0.0045
  654ERGO    C2 9276  15.288  16.834   9.651 -0.1265 -0.0765  0.1383
  655ERGO   ROH 9277   4.897   8.912  10.881 -0.0970  0.2166 -0.0876
  655ERGO    R1 9278   4.890   8.808  10.618 -0.0268  0.2049 -0.0844
  655ERGO    R2 9279   4.661   8.813  10.462  0.0069  0.1684 -0.1319
  655ERGO    R3 9280   4.825   8.937  10.284  0.0279  0.1819 -0.1043
  655ERGO    R4 9281   4.626   8.799  10.118 -0.0150  0.2800 -0.1352
  655ERGO    R5 9282   4.842   8.783  10.102 -0.0195  0.2316 -0.1521
  655ERGO    C1 9283   4.758   8.908   9.751 -0.0080  0.3576 -0.1113
  655ERGO    C2 9284   4.723   8.856   9.305  0.2101 -0.1152  0.1933
  656ERGO   ROH 9285   7.660  16.987  10.778 -0.2545  0.0598  0.0363
  656ERGO    R1 9286   7.557  16.880  10.537 -0.0904  0.0201 -0.0178
  656ERGO    R2 9287   7.454  17.040  10.335 -0.1245 -0.0229 -0.0380
  656ERGO    R3 9288   7.636  16.907  10.182  0.0274  0.1212  0.0155
  656ERGO    R4 9289   7.457  17.034   9.990 -0.1585 -0.2085 -0.0354
  656ERGO    R5 9290   7.509  16.823   9.998  0.1096 -0.1409  0.0746
  656ERGO    C1 9291   7.628  16.906   9.645 -0.0357 -0.1814  0.0162
  656ERGO    C2 9292   7.631  16.940   9.303  0.1015 -0.1591  0.1885
  657ERGO   ROH 9293  15.205  15.801  10.615 -0.0934 -0.0097 -0.1721
  657ERGO    R1 9294  15.292  15.890  10.361  0.0480 -0.1569 -0.1767
  657ERGO    R2 9295  15.436  15.730  10.188 -0.1712 -0.3836 -0.1542
  657ERGO    R3 9296  15.238  15.794  10.014 -0.0753 -0.1140 -0.1697
  657ERGO    R4 9297  15.446  15.672   9.847 -0.4237 -0.8707 -0.0875
  657ERGO    R5 9298  15.353  15.866   9.817  0.0525 -0.6630 -0.3130
  657ERGO    C1 9299  15.265  15.698   9.486 -0.4807 -0.9012 -0.0634
  657ERGO    C2 9300  15.288  15.666   9.165 -0.2231 -0.0744  0.0078
  658ERGO   ROH 9301  16.665   2.091  10.708  0.1075 -0.2071  0.0377
  658ERGO    R1 9302  16.676   1.955  10.459 -0.1237 -0.0879 -0.0410
  658ERGO    R2 9303  16.490   1.996  10.259 -0.1334  0.2460  0.0269
  658ERGO    R3 9304  16.711   2.047  10.109 -0.1087  0.0635  0.0005
  658ERGO    R4 9305  16.491   2.039   9.916 -0.1153  0.1491  0.0147
  658ERGO    R5 9306  16.675   1.923   9.907 -0.1918  0.0313  0.0381
  658ERGO    C1 9307  16.699   2.111   9.576 -0.0814 -0.0788 -0.0170
  658ERGO    C2 9308  16.749   2.114   9.319 -0.1992  0.2440 -0.3608
  659ERGO   ROH 9309  15.784  11.878  10.564  0.1101 -0.1326  0.2132
  659ERGO    R1 9310  15.844  11.960  10.300 -0.1640  0.2445  0.2601
  659ERGO    R2 9311  15.847  11.785  10.086  0.4012  0.3712  0.1464
  659ERGO    R3 9312  15.673  11.964   9.979 -0.2092 -0.1076  0.2761
  659ERGO    R4 9313  15.725  11.773   9.763  0.4723  0.2209  0.1240
  659ERGO    R5 9314  15.746  11.989   9.752 -0.2552  0.3259  0.3018
  659ERGO    C1 9315  15.491  11.934   9.474 -0.0593 -0.3161  0.2327
  659ERGO    C2 9316  15.422  11.998   9.145 -0.2331 -0.0306  0.0079
  660ERGO   ROH 9317   0.085  14.027  10.501 -0.2335 -0.1575  0.1002
  660ERGO    R1 9318   0.114  14.151  10.248 -0.1388 -0.1604  0.1093
  660ERGO    R2 9319   0.304  14.072  10.063 -0.2503 -0.3467  0.0722
  660ERGO    R3 9320   0.089  14.049   9.900 -0.3019 -0.0983  0.1017
  660ERGO    R4 9321   0.317  14.062   9.718 -0.3452  0.0301  0.0535
  660ERGO    R5 9322   0.141  14.188   9.712 -0.3086  0.0943  0.2392
  660ERGO    C1 9323   0.122  14.035   9.364 -0.4489  0.4827  0.0704
  660ERGO    C2 9324   0.274  13.994   9.099  0.2357  0.0722  0.1810
  661ERGO   ROH 9325  12.239  14.339  11.149 -0.4469  0.0365  0.1457
  661ERGO    R1 9326  12.309  14.374  10.877 -0.3676 -0.0401  0.1559
  661ERGO    R2 9327  12.179  14.243  10.671 -0.4026  0.0123  0.1457
  661ERGO    R3 9328  12.146  14.496  10.575 -0.2307  0.0205  0.1051
  661ERGO    R4 9329  12.091  14.322  10.346 -0.0671  0.0285  0.0544
  661ERGO    R5 9330  12.233  14.487  10.352 -0.0178 -0.0152  0.1853
  661ERGO    C1 9331  12.008  14.604  10.067  0.2896  0.0458 -0.0369
  661ERGO    C2 9332  11.975  14.802   9.768  0.0751  0.0549  0.2672
  662ERGO   ROH 9333  11.976  10.088  10.897  0.1258 -0.2984  0.1391
  662ERGO    R1 9334  12.048  10.016  10.634 -0.0517 -0.2931  0.0864
  662ERGO    R2 9335  11.915   9.821  10.490 -0.2547 -0.1784  0.1072
  662ERGO    R3 9336  11.891  10.019  10.305 -0.2152 -0.1198  0.1658
  662ERGO    R4 9337  11.831   9.773  10.158 -0.1222 -0.0706  0.0578
  662ERGO    R5 9338  11.979   9.924  10.104 -0.1276 -0.0323  0.1658
  662ERGO    C1 9339  11.760   9.931   9.792 -0.0080  0.0474  0.0842
  662ERGO    C2 9340  11.790   9.959   9.378 -0.3542 -0.0542 -0.0846
  663ERGO   ROH 9341   6.937   0.819  10.894  0.2074 -0.1102 -0.0125
  663ERGO    R1 9342   7.097   0.829  10.661  0.1266  0.0087 -0.0635
  663ERGO    R2 9343   7.047   0.672  10.439  0.0826  0.0827 -0.1044
  663ERGO    R3 9344   7.048   0.911  10.310 -0.0076  0.1313 -0.0173
  663ERGO    R4 9345   7.180   0.726  10.124  0.0013  0.2300 -0.1147
  663ERGO    R5 9346   7.259   0.916  10.196 -0.0319  0.2259 -0.0617
  663ERGO    C1 9347   7.258   0.981   9.820 -0.1307  0.3614 -0.0390
  663ERGO    C2 9348   7.206   1.160   9.583  0.0436  0.1163  0.5052
  664ERGO   ROH 9349   7.015  15.046  11.029 -0.0536  0.3250 -0.0116
  664ERGO    R1 9350   6.988  15.142  10.764 -0.0806  0.2254 -0.0435
  664ERGO    R2 9351   7.202  15.160  10.590 -0.1351 -0.0059 -0.1244
  664ERGO    R3 9352   7.041  15.010  10.429 -0.2972  0.0403 -0.0106
  664ERGO    R4 9353   7.209  15.163  10.244 -0.0712 -0.3086 -0.1303
  664ERGO    R5 9354   6.992  15.154  10.245 -0.0963 -0.0471 -0.1459
  664ERGO    C1 9355   7.063  15.025   9.893 -0.1862 -0.4415 -0.0267
  664ERGO    C2 9356   7.110  15.031   9.561 -0.3428 -0.3762  0.2158
  665ERGO   ROH 9357  10.841   6.596  11.034  0.0686 -0.2323 -0.1055
  665ERGO    R1 9358  10.792   6.528  10.763 -0.0182 -0.0431 -0.1389
  665ERGO    R2 9359  10.651   6.692  10.592  0.0839  0.1625 -0.0297
  665ERGO    R3 9360  10.872   6.667  10.437  0.0460  0.0807 -0.0711
  665ERGO    R4 9361  10.666   6.772  10.256  0.0549  0.1748 -0.0281
  665ERGO    R5 9362  10.788   6.594  10.225 -0.0229  0.1263 -0.0602
  665ERGO    C1 9363  10.884   6.795   9.915  0.0024  0.1053 -0.0662
  665ERGO    C2 9364  10.980   7.047   9.600 -0.0324 -0.2329  0.1239
  666ERGO   ROH 9365  11.478   5.872  10.992  0.2809  0.1595 -0.0547
  666ERGO    R1 9366  11.310   5.878  10.764  0.1515  0.2425  0.0405
  666ERGO    R2 9367  11.368   6.029  10.540  0.1248  0.1764 -0.0151
  666ERGO    R3 9368  11.339   5.791  10.412 -0.1077  0.1763  0.0340
  666ERGO    R4 9369  11.371   5.989  10.197  0.0356  0.1008 -0.0070
  666ERGO    R5 9370  11.209   5.844  10.218 -0.0890  0.2511  0.0450
  666ERGO    C1 9371  11.345   5.742   9.877 -0.2347  0.0566  0.0440
  666ERGO    C2 9372  11.411   5.795   9.540 -0.0972  0.0761 -0.2359
  667ERGO   ROH 9373  14.404  11.114  10.322  0.1190 -0.0696  0.1013
  667ERGO    R1 9374  14.343  11.001  10.070 -0.1033  0.0388  0.1032
  667ERGO    R2 9375  14.179  11.126   9.886  0.0645  0.3181  0.1325
  667ERGO    R3 9376  14.392  11.092   9.721 -0.0077 -0.0165  0.1031
  667ERGO    R4 9377  14.176  11.179   9.545  0.0778  0.1953  0.1132
  667ERGO    R5 9378  14.298  11.001   9.520 -0.1563  0.0297  0.1546
  667ERGO    C1 9379  14.374  11.178   9.191  0.0176 -0.1906  0.0743
  667ERGO    C2 9380  14.341  11.199   8.844 -0.0070 -0.0536  0.2624
  668ERGO   ROH 9381   3.615  13.085  11.034  0.0376 -0.1000  0.1128
  668ERGO    R1 9382   3.730  12.970  10.802  0.0076 -0.0647  0.0799
  668ERGO    R2 9383   3.583  12.823  10.620 -0.0065 -0.0820  0.1021
  668ERGO    R3 9384   3.685  13.001  10.442 -0.0793 -0.0499  0.0926
  668ERGO    R4 9385   3.589  12.779  10.278  0.1085 -0.1409  0.1114
  668ERGO    R5 9386   3.788  12.865  10.275  0.0509 -0.0116  0.1439
  668ERGO    C1 9387   3.688  12.920   9.911  0.1071 -0.1449  0.1079
  668ERGO    C2 9388   3.682  12.925   9.503 -0.3617  0.1133  0.0743
  669ERGO   ROH 9389   3.204  14.189  11.135  0.1348 -0.1284 -0.0616
  669ERGO    R1 9390   3.210  14.254  10.860  0.1928  0.0095 -0.0278
  669ERGO    R2 9391   3.441  14.238  10.709  0.1600 -0.2090 -0.0524
  669ERGO    R3 9392   3.288  14.081  10.549 -0.0590  0.0717 -0.1289
  669ERGO    R4 9393   3.410  14.276  10.367  0.4152 -0.1495 -0.0719
  669ERGO    R5 9394   3.197  14.232  10.387  0.3095  0.2506 -0.1827
  669ERGO    C1 9395   3.248  14.150  10.017  0.3581  0.1486 -0.1549
  669ERGO    C2 9396   3.375  14.228   9.694  0.0124  0.3319  0.3217
  670ERGO   ROH 9397  14.499  11.605  10.471 -0.0358 -0.1925  0.0746
  670ERGO    R1 9398  14.310  11.640  10.264  0.1101  0.1828 -0.0029
  670ERGO    R2 9399  14.360  11.796  10.042  0.6374 -0.1485 -0.1344
  670ERGO    R3 9400  14.293  11.570   9.907  0.0041 -0.0911  0.0530
  670ERGO    R4 9401  14.292  11.782   9.703  0.5786 -0.2335 -0.1191
  670ERGO    R5 9402  14.130  11.643   9.747  0.1852  0.2371  0.0075
  670ERGO    C1 9403  14.189  11.561   9.379 -0.0499 -0.2291  0.0658
  670ERGO    C2 9404  14.214  11.658   9.069 -0.0799 -0.4336  0.1994
  671ERGO   ROH 9405  12.493  10.028  10.874  0.0493  0.0354 -0.0038
  671ERGO    R1 9406  12.500  10.164  10.626 -0.0790  0.0697  0.0105
  671ERGO    R2 9407  12.559  10.036  10.388 -0.0218  0.1376 -0.0116
  671ERGO    R3 9408  12.323  10.144  10.308 -0.1091 -0.0173  0.0323
  671ERGO    R4 9409  12.460  10.074  10.059 -0.2251 -0.1704  0.0106
  671ERGO    R5 9410  12.378  10.269  10.111 -0.2685 -0.1573 -0.1035
  671ERGO    C1 9411  12.180  10.197   9.793 -0.4255 -0.4952  0.0646
  671ERGO    C2 9412  12.159  10.237   9.554  0.0255  0.1914 -0.0188
  672ERGO   ROH 9413  11.836  14.493  11.063 -0.2771  0.0345  0.0451
  672ERGO    R1 9414  11.762  14.356  10.827 -0.0461  0.0290 -0.0248
  672ERGO    R2 9415  11.521  14.399  10.699 -0.0670 -0.2226 -0.0678
  672ERGO    R3 9416  11.681  14.446  10.484 -0.0692  0.0543 -0.0136
  672ERGO    R4 9417  11.420  14.377  10.369  0.0127 -0.1333 -0.0996
  672ERGO    R5 9418  11.612  14.284  10.321  0.1148  0.0756 -0.1192
  672ERGO    C1 9419  11.511  14.408   9.975  0.0571  0.1786 -0.0672
  672ERGO    C2 9420  11.560  14.534   9.632  0.0524 -0.0055 -0.2609
  673ERGO   ROH 9421   7.857   2.963  11.406  0.1614 -0.0527  0.0813
  673ERGO    R1 9422   8.014   3.038  11.184  0.2347 -0.0723  0.1274
  673ERGO    R2 9423   8.126   2.854  11.011  0.0363 -0.0765  0.0093
  673ERGO    R3 9424   7.997   3.001  10.822  0.1877  0.1815  0.0993
  673ERGO    R4 9425   8.199   2.849  10.673 -0.1693 -0.2049 -0.0354
  673ERGO    R5 9426   8.169   3.065  10.668  0.2299 -0.1336 -0.0010
  673ERGO    C1 9427   8.120   2.984  10.299 -0.1469 -0.0375  0.0230
  673ERGO    C2 9428   8.251   3.080   9.997 -0.1124  0.3056  0.5938
  674ERGO   ROH 9429   6.936  15.533  11.069 -0.1650 -0.1576  0.1117
  674ERGO    R1 9430   6.964  15.644  10.811 -0.1140 -0.1370  0.1261
  674ERGO    R2 9431   7.191  15.608  10.657 -0.0990 -0.1548  0.1536
  674ERGO    R3 9432   7.012  15.519  10.472 -0.0864 -0.1111  0.1202
  674ERGO    R4 9433   7.244  15.610  10.315 -0.1130  0.0195  0.1513
  674ERGO    R5 9434   7.036  15.672  10.289 -0.1305 -0.0175  0.1904
  674ERGO    C1 9435   7.107  15.527   9.943 -0.1093  0.1619  0.1186
  674ERGO    C2 9436   7.151  15.539   9.635  0.2302  0.2835 -0.3162
  675loPI    C1 9437   7.281  13.103   6.114 -0.0961 -0.0387 -0.3150
  675loPI    C2 9438   7.222  13.452   5.928 -0.0452 -0.0256 -0.3070
  675loPI    C3 9439   7.500  13.198   5.793  0.2665  0.1542 -0.0190
  675loPI   PO4 9440   7.299  13.126   6.463 -0.1259 -0.3364  0.0035
  675loPI   GL1 9441   7.383  12.961   6.886  0.0554 -0.2621 -0.2231
  675loPI   GL2 9442   7.563  13.030   7.107 -0.0690  0.0332  0.0267
  675loPI   C1A 9443   7.102  12.709   7.150  0.0786  0.4123  0.0186
  675loPI   C2A 9444   7.173  12.603   7.529 -0.0455 -0.0320 -0.1650
  675loPI   C3A 9445   7.407  12.618   7.828 -0.3531 -0.3825 -0.0926
  675loPI   C4A 9446   7.301  12.595   8.175  0.0876 -0.0762  0.1243
  675loPI   C5A 9447   7.028  12.706   8.627  0.1232 -0.3356 -0.0143
  675loPI   C6A 9448   6.751  12.488   9.028  0.0495  0.3342 -0.0270
  675loPI   C1B 9449   7.449  13.077   7.480 -0.3615 -0.2100 -0.0990
  675loPI   C2B 9450   7.441  13.096   7.929  0.1121  0.2574  0.1190
  675loPI   C3B 9451   7.281  13.203   8.307 -0.0989  0.1966 -0.1080
  675loPI   C4B 9452   7.176  13.267   8.792 -0.2362 -0.0855 -0.1171
  676loPI    C1 9453  12.351   0.676   6.189 -0.0189  0.0441  0.1726
  676loPI    C2 9454  12.239   1.059   6.227  0.0320  0.0779 -0.0095
  676loPI    C3 9455  12.395   0.929   5.882  0.0631 -0.0952  0.0686
  676loPI   PO4 9456  12.293   0.628   6.489  0.0611  0.2816 -0.3098
  676loPI   GL1 9457  12.099   0.814   6.923 -0.0326  0.1208  0.0127
  676loPI   GL2 9458  12.384   0.851   6.965  0.0901  0.0840  0.0578
  676loPI   C1A 9459  11.848   0.594   7.191  0.0784 -0.0473 -0.0303
  676loPI   C2A 9460  11.812   0.605   7.566  0.1006 -0.0545 -0.0556
  676loPI   C3A 9461  11.984   0.543   7.948 -0.1301  0.1286 -0.0184
  676loPI   C4A 9462  11.861   0.539   8.435 -0.0925 -0.0802 -0.0637
  676loPI   C5A 9463  11.771   0.464   8.742  0.2139  0.2781  0.0191
  676loPI   C6A 9464  12.042   0.373   9.105  0.0676 -0.1089 -0.0670
  676loPI   C1B 9465  12.372   0.807   7.413  0.0150  0.1040 -0.4013
  676loPI   C2B 9466  12.411   0.832   7.873 -0.1400 -0.1041  0.2633
  676loPI   C3B 9467  12.351   0.672   8.292  0.2532  0.0273 -0.0430
  676loPI   C4B 9468  12.299   0.593   8.735 -0.0573  0.1519  0.2187
  677loPI    C1 9469   0.468   4.877   5.483 -0.0989  0.1756 -0.1250
  677loPI    C2 9470   0.163   5.086   5.330 -0.0319  0.2696 -0.1309
  677loPI    C3 9471   0.476   4.990   5.100 -0.2031 -0.1091 -0.2138
  677loPI   PO4 9472   0.422   5.071   5.763 -0.2210  0.0057  0.2496
  677loPI   GL1 9473   0.393   4.964   6.234  0.2689 -0.0777  0.2427
  677loPI   GL2 9474   0.391   4.622   6.376  0.1413  0.2044  0.0629
  677loPI   C1A 9475   0.543   5.102   6.589 -0.0657  0.0844 -0.1684
  677loPI   C2A 9476   0.728   5.125   6.920  0.0347 -0.1427  0.0260
  677loPI   C3A 9477   0.672   5.122   7.399  0.1465 -0.3263 -0.1324
  677loPI   C4A 9478   0.658   5.101   7.899  0.0392  0.0248 -0.3705
  677loPI   C5A 9479   0.483   5.214   8.287  0.5228  0.1719  0.2289
  677loPI   C6A 9480   0.013   5.248   8.421  0.1779 -0.0233 -0.1278
  677loPI   C1B 9481   0.142   4.451   6.721  0.0539 -0.2005 -0.0275
  677loPI   C2B 9482   0.030   4.521   7.014  0.2838 -0.1153  0.1493
  677loPI   C3B 9483   0.141   4.414   7.363  0.0024  0.2691  0.1038
  677loPI   C4B 9484   0.133   4.389   7.824 -0.1992 -0.0320  0.0539
  678loPI    C1 9485   4.236   6.486   6.161  0.0194  0.0189  0.0678
  678loPI    C2 9486   4.589   6.354   6.028  0.1796  0.3919  0.1113
  678loPI    C3 9487   4.321   6.501   5.770  0.0333  0.0662  0.0726
  678loPI   PO4 9488   4.267   6.514   6.432  0.1376 -0.2066 -0.2417
  678loPI   GL1 9489   4.403   6.689   6.795 -0.1419 -0.2059  0.0888
  678loPI   GL2 9490   4.085   6.726   6.869 -0.0639  0.1235  0.2611
  678loPI   C1A 9491   4.414   6.723   7.318  0.1402  0.0005  0.2632
  678loPI   C2A 9492   4.158   6.603   7.560 -0.0602  0.1359  0.0913
  678loPI   C3A 9493   4.378   6.636   7.972 -0.2270 -0.1594  0.0578
  678loPI   C4A 9494   4.419   6.736   8.513  0.3149  0.1109  0.1902
  678loPI   C5A 9495   4.320   6.927   8.797  0.1969 -0.1350 -0.0616
  678loPI   C6A 9496   4.050   7.250   8.807  0.0970  0.1021  0.1601
  678loPI   C1B 9497   4.118   7.090   7.087  0.0491 -0.1068  0.1184
  678loPI   C2B 9498   4.158   7.129   7.492  0.1440 -0.0804 -0.0568
  678loPI   C3B 9499   4.213   7.146   7.925 -0.4935  0.0966  0.0363
  678loPI   C4B 9500   4.056   7.136   8.263 -0.1267  0.3228  0.0539
  679loPI    C1 9501   9.381  15.143   6.352 -0.0869  0.2402  0.0353
  679loPI    C2 9502   9.512  15.428   6.602  0.0553  0.1733  0.0380
  679loPI    C3 9503   9.599  15.448   6.212 -0.0821  0.2248  0.0094
  679loPI   PO4 9504   9.109  15.092   6.508  0.1722  0.1750  0.1869
  679loPI   GL1 9505   9.001  14.941   6.824 -0.1081  0.0061 -0.0824
  679loPI   GL2 9506   9.116  14.768   7.016  0.1688 -0.2522  0.2456
  679loPI   C1A 9507   8.843  15.184   7.174 -0.1794 -0.0134  0.2901
  679loPI   C2A 9508   8.840  15.109   7.587 -0.2417  0.1724  0.1976
  679loPI   C3A 9509   8.730  15.032   8.024 -0.0802  0.2317 -0.1474
  679loPI   C4A 9510   8.756  14.985   8.443  0.1028  0.1726 -0.0675
  679loPI   C5A 9511   8.683  14.822   8.808 -0.0781 -0.0171  0.0239
  679loPI   C6A 9512   8.425  14.958   9.131  0.2675  0.0220  0.0555
  679loPI   C1B 9513   9.169  14.758   7.422 -0.0846  0.1933 -0.0895
  679loPI   C2B 9514   9.103  14.689   7.778 -0.1167 -0.1597  0.0482
  679loPI   C3B 9515   9.132  14.651   8.142  0.1227 -0.3665  0.0284
  679loPI   C4B 9516   9.196  14.748   8.598  0.2211 -0.2370  0.1189
  680loPI    C1 9517   2.735   6.655   5.660  0.0323 -0.1197  0.2456
  680loPI    C2 9518   3.049   6.409   5.639 -0.0154 -0.1429 -0.3979
  680loPI    C3 9519   3.095   6.799   5.566 -0.0525 -0.0564  0.0122
  680loPI   PO4 9520   2.592   6.506   5.862 -0.0080  0.1040 -0.0676
  680loPI   GL1 9521   2.385   6.413   6.345  0.0276 -0.0568  0.3065
  680loPI   GL2 9522   2.300   6.088   6.575 -0.1223  0.0416  0.0528
  680loPI   C1A 9523   2.546   6.601   6.740  0.1397  0.1343 -0.0973
  680loPI   C2A 9524   2.516   6.907   7.070  0.1191  0.1205 -0.2567
  680loPI   C3A 9525   2.428   6.836   7.497  0.2173  0.1698 -0.2044
  680loPI   C4A 9526   2.148   6.808   7.923 -0.2227  0.1015 -0.1821
  680loPI   C5A 9527   2.175   6.735   8.397 -0.0487 -0.0185 -0.2272
  680loPI   C6A 9528   2.439   6.678   8.830  0.1755  0.1686 -0.0001
  680loPI   C1B 9529   2.466   6.156   7.031  0.3459  0.1027  0.4670
  680loPI   C2B 9530   2.377   6.331   7.410  0.0756  0.0933 -0.3374
  680loPI   C3B 9531   2.172   6.274   7.799  0.2158 -0.0938 -0.0330
  680loPI   C4B 9532   2.060   6.204   8.218 -0.0065 -0.5311 -0.0025
  681loPI    C1 9533   2.111  10.475   5.955 -0.3023  0.0627  0.0737
  681loPI    C2 9534   2.441  10.432   5.734  0.0259  0.0588  0.5475
  681loPI    C3 9535   2.087  10.487   5.556  0.2698  0.0203  0.0292
  681loPI   PO4 9536   2.162  10.714   6.181 -0.1847 -0.0522  0.0807
  681loPI   GL1 9537   2.453  10.744   6.446 -0.2663 -0.0695 -0.1188
  681loPI   GL2 9538   2.284  11.010   6.531  0.2143 -0.1634 -0.1034
  681loPI   C1A 9539   2.554  10.519   6.885  0.2100  0.0988 -0.2538
  681loPI   C2A 9540   2.577  10.275   7.223  0.2362  0.1752 -0.2752
  681loPI   C3A 9541   2.448  10.196   7.657 -0.0355 -0.0191 -0.0036
  681loPI   C4A 9542   2.367  10.176   8.054 -0.0377  0.1025 -0.0311
  681loPI   C5A 9543   2.362  10.258   8.484 -0.0983  0.1668 -0.2521
  681loPI   C6A 9544   2.220  10.278   8.867 -0.0119  0.0191 -0.1777
  681loPI   C1B 9545   2.208  10.915   6.957 -0.0821  0.2155  0.0225
  681loPI   C2B 9546   2.406  10.732   7.324  0.1228  0.0991 -0.4165
  681loPI   C3B 9547   2.456  10.681   7.729 -0.1007  0.0027  0.1200
  681loPI   C4B 9548   2.357  10.809   8.206 -0.0946  0.1842 -0.0648
  682loPI    C1 9549   2.639   1.618   6.078  0.1023  0.2530  0.0318
  682loPI    C2 9550   2.952   1.431   5.915 -0.0721  0.0423 -0.0675
  682loPI    C3 9551   2.658   1.570   5.682 -0.0947  0.1634  0.0317
  682loPI   PO4 9552   2.616   1.478   6.274  0.0906 -0.2004 -0.0475
  682loPI   GL1 9553   2.846   1.618   6.725 -0.0152 -0.0691  0.0220
  682loPI   GL2 9554   2.678   1.401   6.750 -0.0393 -0.1616  0.0493
  682loPI   C1A 9555   2.830   1.614   7.228  0.0757  0.0847 -0.2789
  682loPI   C2A 9556   2.706   1.864   7.618 -0.4676 -0.1420  0.1718
  682loPI   C3A 9557   2.846   2.198   7.880  0.1652 -0.0674  0.1033
  682loPI   C4A 9558   2.608   2.369   8.351 -0.2546 -0.1685 -0.0487
  682loPI   C5A 9559   2.719   2.367   8.832 -0.1043  0.2968  0.2316
  682loPI   C6A 9560   2.884   2.728   8.946 -0.0590 -0.1475 -0.0428
  682loPI   C1B 9561   2.482   1.253   7.102  0.2185 -0.0028  0.1238
  682loPI   C2B 9562   2.346   1.639   7.345 -0.1741  0.1342  0.1187
  682loPI   C3B 9563   2.312   1.640   7.803 -0.0371  0.0166 -0.0192
  682loPI   C4B 9564   2.447   1.886   8.241  0.0390 -0.0449 -0.1719
  683loPI    C1 9565   5.120  11.510   6.262  0.0417  0.0680  0.0805
  683loPI    C2 9566   5.236  11.696   5.927  0.1036 -0.0400  0.0416
  683loPI    C3 9567   5.263  11.297   5.955 -0.0026 -0.0412  0.1349
  683loPI   PO4 9568   5.176  11.744   6.496  0.0198  0.2128 -0.0469
  683loPI   GL1 9569   5.199  11.822   6.929  0.0626 -0.0079  0.3752
  683loPI   GL2 9570   5.077  11.623   7.162 -0.1396  0.1734  0.0690
  683loPI   C1A 9571   5.379  12.117   7.215 -0.1370 -0.1872 -0.0767
  683loPI   C2A 9572   5.346  12.200   7.609  0.2240 -0.3411  0.0782
  683loPI   C3A 9573   5.208  12.218   8.141  0.3613  0.0692  0.1422
  683loPI   C4A 9574   5.176  11.781   8.455  0.0402 -0.1882 -0.1617
  683loPI   C5A 9575   5.031  11.595   8.930 -0.4227  0.0277 -0.1540
  683loPI   C6A 9576   4.633  11.524   9.045  0.1257  0.0046  0.0146
  683loPI   C1B 9577   4.976  11.550   7.591  0.0053 -0.1680  0.3367
  683loPI   C2B 9578   4.942  11.665   8.028  0.0322 -0.3098 -0.1968
  683loPI   C3B 9579   4.772  11.421   8.438 -0.1792  0.1249 -0.0829
  683loPI   C4B 9580   4.404  11.432   8.571  0.0154  0.1063  0.0027
  684loPI    C1 9581   1.638   1.750   6.284 -0.0055  0.1053  0.2115
  684loPI    C2 9582   1.702   1.636   5.906  0.0279  0.3025  0.1565
  684loPI    C3 9583   1.367   1.833   6.002 -0.0344  0.1515  0.2527
  684loPI   PO4 9584   1.746   1.681   6.503 -0.2164  0.0712  0.2926
  684loPI   GL1 9585   1.725   1.562   6.832  0.0163 -0.0130 -0.2348
  684loPI   GL2 9586   2.043   1.592   6.915 -0.0766 -0.0859  0.0081
  684loPI   C1A 9587   1.606   1.248   7.080 -0.2220 -0.1372  0.1292
  684loPI   C2A 9588   1.536   1.109   7.406 -0.2420 -0.2985 -0.3907
  684loPI   C3A 9589   1.589   0.927   7.758  0.0372 -0.2206  0.2814
  684loPI   C4A 9590   1.425   0.764   8.152 -0.1717  0.0130  0.1528
  684loPI   C5A 9591   1.386   0.318   8.443 -0.4049 -0.0070  0.0933
  684loPI   C6A 9592   1.489  -0.019   8.770  0.0336  0.2404 -0.1491
  684loPI   C1B 9593   2.000   1.327   7.349 -0.1566  0.0887 -0.0776
  684loPI   C2B 9594   2.280   1.168   7.599  0.0896  0.2108 -0.1067
  684loPI   C3B 9595   2.052   1.175   7.954 -0.0311  0.2176 -0.0272
  684loPI   C4B 9596   1.984   0.953   8.357  0.0500 -0.1213 -0.0067
  685loPI    C1 9597   2.228   9.112   5.804  0.1270  0.3526 -0.2871
  685loPI    C2 9598   1.840   9.193   5.750  0.0023 -0.0762 -0.0780
  685loPI    C3 9599   1.995   8.854   5.606  0.3126  0.1115 -0.1948
  685loPI   PO4 9600   2.237   9.152   6.135  0.2078  0.0499 -0.2848
  685loPI   GL1 9601   2.028   8.843   6.474 -0.3110  0.1693 -0.1234
  685loPI   GL2 9602   2.122   8.522   6.525 -0.1831 -0.1266  0.0998
  685loPI   C1A 9603   2.067   9.081   6.818 -0.0106 -0.2332  0.0624
  685loPI   C2A 9604   2.103   9.176   7.278 -0.2547 -0.0178  0.0768
  685loPI   C3A 9605   2.371   9.148   7.666 -0.0623 -0.1704  0.1074
  685loPI   C4A 9606   2.516   8.988   8.004  0.2264 -0.0345  0.0750
  685loPI   C5A 9607   2.608   8.849   8.389 -0.3866 -0.0382 -0.0591
  685loPI   C6A 9608   2.740   8.891   8.894  0.0029  0.2293  0.4261
  685loPI   C1B 9609   2.470   8.665   6.797 -0.1005  0.1028 -0.2917
  685loPI   C2B 9610   2.510   8.875   7.178 -0.1269 -0.0565 -0.0359
  685loPI   C3B 9611   2.752   8.942   7.518 -0.0142  0.0459 -0.0041
  685loPI   C4B 9612   3.012   9.079   7.891 -0.1339  0.2156  0.0009
  686loPI    C1 9613   7.465  14.781   6.222 -0.0332 -0.0710  0.1466
  686loPI    C2 9614   7.768  14.675   5.984 -0.0247  0.0580  0.0988
  686loPI    C3 9615   7.395  14.686   5.840  0.0049  0.3199  0.0375
  686loPI   PO4 9616   7.568  14.755   6.461 -0.4736  0.1854 -0.3035
  686loPI   GL1 9617   7.458  14.789   6.926  0.1296 -0.1237  0.1620
  686loPI   GL2 9618   7.216  14.945   6.917  0.0005 -0.0733  0.1540
  686loPI   C1A 9619   7.599  14.534   7.251 -0.1074 -0.1539  0.0693
  686loPI   C2A 9620   7.612  14.528   7.613 -0.0588  0.1347 -0.1319
  686loPI   C3A 9621   7.591  14.463   8.054 -0.1342  0.1663  0.0558
  686loPI   C4A 9622   7.448  14.501   8.466 -0.1459 -0.0148  0.3231
  686loPI   C5A 9623   7.623  14.630   8.846  0.1134 -0.2911  0.2272
  686loPI   C6A 9624   7.892  14.920   9.059  0.0369 -0.2058 -0.3806
  686loPI   C1B 9625   7.281  14.953   7.347  0.0399  0.0213 -0.3008
  686loPI   C2B 9626   7.268  14.905   7.790  0.3838  0.0906  0.0252
  686loPI   C3B 9627   7.215  14.902   8.187  0.0530 -0.0394 -0.2762
  686loPI   C4B 9628   7.288  14.958   8.584 -0.3679 -0.1159 -0.2163
  687loPI    C1 9629  14.163   7.904   5.506 -0.2498 -0.1559 -0.1416
  687loPI    C2 9630  14.157   7.529   5.369 -0.3334 -0.2114  0.0116
  687loPI    C3 9631  13.847   7.771   5.301 -0.2760 -0.1667 -0.0940
  687loPI   PO4 9632  14.223   7.854   5.803 -0.4118 -0.2954 -0.0135
  687loPI   GL1 9633  14.268   7.809   6.265  0.0064 -0.0182 -0.2662
  687loPI   GL2 9634  13.924   7.802   6.249  0.1645 -0.1130 -0.0503
  687loPI   C1A 9635  14.438   7.706   6.644 -0.0159 -0.0986  0.0711
  687loPI   C2A 9636  14.454   7.628   6.991  0.0879 -0.1533 -0.2084
  687loPI   C3A 9637  14.553   7.558   7.391 -0.0105  0.0963 -0.0336
  687loPI   C4A 9638  14.541   7.591   7.793 -0.1468 -0.0814 -0.1835
  687loPI   C5A 9639  14.698   7.594   8.217 -0.0274  0.0705  0.2598
  687loPI   C6A 9640  14.616   7.957   8.595 -0.0158 -0.2179  0.1659
  687loPI   C1B 9641  14.024   7.955   6.717 -0.2455 -0.0945 -0.0156
  687loPI   C2B 9642  14.149   8.022   7.088 -0.2758  0.0757  0.1648
  687loPI   C3B 9643  14.187   7.849   7.556 -0.0581  0.1590 -0.0210
  687loPI   C4B 9644  14.260   7.935   7.976 -0.1838  0.2804  0.1335
  688loPI    C1 9645  15.530  15.990   5.767 -0.0349  0.1551 -0.1166
  688loPI    C2 9646  15.467  15.643   5.579  0.2337  0.1117 -0.1300
  688loPI    C3 9647  15.334  15.984   5.419 -0.2551 -0.0071  0.0079
  688loPI   PO4 9648  15.504  15.961   6.009  0.1272  0.1384 -0.0311
  688loPI   GL1 9649  15.598  16.254   6.384 -0.1511 -0.2441 -0.0570
  688loPI   GL2 9650  15.265  16.318   6.586 -0.3379  0.0646  0.1675
  688loPI   C1A 9651  15.734  16.073   6.775 -0.2329 -0.1311  0.2083
  688loPI   C2A 9652  15.762  15.980   7.167 -0.0086  0.1458 -0.0376
  688loPI   C3A 9653  15.719  15.933   7.532  0.0130  0.1309  0.0472
  688loPI   C4A 9654  15.634  16.004   7.933 -0.0519 -0.1664 -0.0815
  688loPI   C5A 9655  15.616  16.158   8.372  0.2902  0.0351  0.0507
  688loPI   C6A 9656  15.453  16.404   8.730 -0.1921  0.0083 -0.0652
  688loPI   C1B 9657  15.342  16.438   6.985 -0.0464  0.2810 -0.0181
  688loPI   C2B 9658  15.277  16.290   7.397  0.2131  0.0398 -0.4642
  688loPI   C3B 9659  15.211  16.253   7.784 -0.1405 -0.1056  0.0448
  688loPI   C4B 9660  15.116  16.176   8.275 -0.1256 -0.1499 -0.1377
  689loPI    C1 9661   3.672   1.013   6.037  0.1725 -0.0941 -0.0146
  689loPI    C2 9662   3.511   0.667   5.916 -0.0766  0.0263 -0.0332
  689loPI    C3 9663   3.275   0.964   6.042  0.1436  0.1423  0.1117
  689loPI   PO4 9664   3.947   0.815   6.175  0.0710  0.4094  0.1309
  689loPI   GL1 9665   4.015   0.844   6.628 -0.2133 -0.3599  0.0323
  689loPI   GL2 9666   4.180   0.646   6.772  0.2410  0.1706 -0.2311
  689loPI   C1A 9667   3.777   0.783   6.989  0.4163  0.2040 -0.3590
  689loPI   C2A 9668   3.718   0.691   7.456  0.5241  0.2244  0.1900
  689loPI   C3A 9669   3.682   0.792   7.904 -0.1085 -0.0037  0.2536
  689loPI   C4A 9670   3.664   0.609   8.331  0.0309  0.0351  0.2092
  689loPI   C5A 9671   3.860   0.426   8.677  0.0777  0.1492 -0.0133
  689loPI   C6A 9672   4.125   0.446   8.957 -0.4651 -0.3048 -0.2060
  689loPI   C1B 9673   4.167   0.667   7.268 -0.0195  0.0599  0.0682
  689loPI   C2B 9674   4.246   0.765   7.649 -0.0628  0.0373  0.0642
  689loPI   C3B 9675   4.171   0.711   8.062 -0.1758  0.1515  0.2287
  689loPI   C4B 9676   4.274   0.599   8.475  0.0839  0.0869 -0.2551
  690loPI    C1 9677  10.331  13.644   6.592 -0.3519  0.1050 -0.0920
  690loPI    C2 9678  10.339  13.328   6.347 -0.2085 -0.0444  0.1027
  690loPI    C3 9679   9.989  13.472   6.476 -0.2777 -0.0675 -0.0572
  690loPI   PO4 9680  10.461  13.589   6.763  0.2386  0.1141 -0.1866
  690loPI   GL1 9681  10.732  13.737   7.007  0.1538 -0.1057  0.0557
  690loPI   GL2 9682  10.919  13.985   7.085  0.0227  0.0715 -0.0405
  690loPI   C1A 9683  10.768  13.481   7.309 -0.0220 -0.0651 -0.0092
  690loPI   C2A 9684  10.855  13.355   7.700 -0.1973 -0.3200 -0.0808
  690loPI   C3A 9685  10.740  13.414   8.123  0.1695  0.1323 -0.2810
  690loPI   C4A 9686  10.571  13.351   8.527  0.2502  0.1420 -0.2356
  690loPI   C5A 9687  10.309  13.308   8.864  0.0208 -0.1753 -0.0157
  690loPI   C6A 9688  10.402  13.499   9.300  0.2197  0.0424 -0.1232
  690loPI   C1B 9689  10.923  13.911   7.555 -0.1260  0.4749 -0.1935
  690loPI   C2B 9690  10.860  13.947   8.063  0.1701  0.0132  0.1848
  690loPI   C3B 9691  10.829  13.904   8.507  0.0351  0.2426 -0.3758
  690loPI   C4B 9692  10.725  13.634   8.918  0.3839 -0.0618 -0.0370
  691loPI    C1 9693  11.995   4.346   6.067  0.1136 -0.2576  0.0508
  691loPI    C2 9694  12.169   4.161   5.757 -0.0605 -0.3356 -0.0016
  691loPI    C3 9695  11.771   4.206   5.766 -0.0473 -0.2427  0.1623
  691loPI   PO4 9696  12.291   4.333   6.227  0.0653 -0.0602 -0.3662
  691loPI   GL1 9697  12.296   4.364   6.606  0.0955  0.0778 -0.0313
  691loPI   GL2 9698  12.492   4.542   6.668 -0.0867 -0.0464 -0.1192
  691loPI   C1A 9699  12.298   4.148   6.986  0.1320 -0.0791  0.4704
  691loPI   C2A 9700  12.390   4.222   7.411  0.3315  0.1001  0.2092
  691loPI   C3A 9701  12.305   4.153   7.828 -0.0444  0.1668  0.1110
  691loPI   C4A 9702  12.399   4.241   8.289  0.1734 -0.2676  0.4186
  691loPI   C5A 9703  12.565   4.303   8.692 -0.0994 -0.1952 -0.0334
  691loPI   C6A 9704  12.646   4.340   9.091 -0.0644 -0.1931 -0.0701
  691loPI   C1B 9705  12.356   4.737   7.136  0.1363 -0.1308  0.1731
  691loPI   C2B 9706  12.441   4.743   7.553 -0.2423 -0.3117  0.0407
  691loPI   C3B 9707  12.432   4.737   7.965 -0.2796  0.0441 -0.1385
  691loPI   C4B 9708  12.497   4.710   8.378  0.0107 -0.0351 -0.1372
  692loPI    C1 9709  15.138   7.728   5.714 -0.2722 -0.0049 -0.0548
  692loPI    C2 9710  15.198   7.599   5.340 -0.0131  0.1963 -0.0851
  692loPI    C3 9711  15.139   7.989   5.410 -0.1695  0.1453  0.0729
  692loPI   PO4 9712  15.367   7.606   5.852 -0.0988  0.0094  0.2330
  692loPI   GL1 9713  15.457   7.378   6.238  0.0066 -0.0027 -0.0215
  692loPI   GL2 9714  15.443   7.019   6.220  0.1019 -0.0086 -0.3894
  692loPI   C1A 9715  15.410   7.521   6.798 -0.0297 -0.1081 -0.0452
  692loPI   C2A 9716  15.401   7.467   7.208  0.0684  0.1833 -0.2420
  692loPI   C3A 9717  15.535   7.486   7.646 -0.0187  0.2286  0.0355
  692loPI   C4A 9718  15.630   7.543   8.113  0.2025  0.1170 -0.2142
  692loPI   C5A 9719  15.560   7.709   8.456  0.0523  0.2347 -0.1670
  692loPI   C6A 9720  15.179   7.745   8.725 -0.1455 -0.0131 -0.2919
  692loPI   C1B 9721  15.326   7.006   6.656 -0.3648 -0.0545 -0.1391
  692loPI   C2B 9722  15.294   6.941   7.075 -0.0929 -0.1006 -0.1459
  692loPI   C3B 9723  15.464   6.934   7.506  0.1592 -0.1763  0.1380
  692loPI   C4B 9724  15.464   7.055   7.919 -0.0762  0.2884 -0.1679
  693loPI    C1 9725   1.595   0.274   6.146  0.0514 -0.1375  0.0027
  693loPI    C2 9726   1.662   0.148   5.773  0.2872  0.0045 -0.0053
  693loPI    C3 9727   1.663   0.539   5.854 -0.0374 -0.0122  0.0945
  693loPI   PO4 9728   1.774   0.020   6.344 -0.0147  0.0583 -0.0139
  693loPI   GL1 9729   1.961  -0.037   6.738 -0.4013 -0.0959  0.1851
  693loPI   GL2 9730   2.029   0.312   6.749 -0.1774  0.0748 -0.1141
  693loPI   C1A 9731   1.922  -0.320   7.121 -0.0169 -0.2025 -0.1097
  693loPI   C2A 9732   1.959  -0.330   7.569  0.1646 -0.1103 -0.0089
  693loPI   C3A 9733   2.075  -0.293   7.883  0.0426 -0.1123  0.2233
  693loPI   C4A 9734   1.908  -0.427   8.315 -0.1094 -0.2448  0.3666
  693loPI   C5A 9735   1.710  -0.527   8.697  0.3280 -0.2119 -0.0964
  693loPI   C6A 9736   1.389  -0.428   9.044 -0.1991 -0.0774 -0.0356
  693loPI   C1B 9737   1.997   0.172   7.221  0.1786 -0.2330 -0.0671
  693loPI   C2B 9738   1.971   0.174   7.683  0.4255  0.1753 -0.1792
  693loPI   C3B 9739   1.942   0.152   8.132  0.0156 -0.2995 -0.1170
  693loPI   C4B 9740   1.964   0.132   8.530  0.2702  0.0930 -0.2888
  694loPI    C1 9741  10.016  11.845   6.119 -0.0381  0.0152  0.2237
  694loPI    C2 9742   9.738  11.620   5.938  0.0849  0.0513 -0.0137
  694loPI    C3 9743  10.100  11.664   5.772  0.1626  0.1781  0.1854
  694loPI   PO4 9744   9.977  11.989   6.390 -0.0622  0.0424  0.4668
  694loPI   GL1 9745  10.316  12.152   6.696  0.0631  0.1448 -0.0626
  694loPI   GL2 9746  10.122  12.273   6.902  0.1396 -0.1652 -0.2093
  694loPI   C1A 9747  10.687  11.970   6.910  0.0872 -0.0372 -0.6362
  694loPI   C2A 9748  10.682  11.866   7.305 -0.1223  0.0155 -0.2503
  694loPI   C3A 9749  10.679  11.868   7.752  0.0922  0.0711  0.0037
  694loPI   C4A 9750  10.703  11.885   8.155  0.1083  0.1348 -0.1330
  694loPI   C5A 9751  10.711  11.644   8.475  0.1840  0.0167  0.1251
  694loPI   C6A 9752  10.884  11.605   8.856  0.3575  0.0332  0.0580
  694loPI   C1B 9753  10.255  12.212   7.303  0.0181 -0.2170  0.1009
  694loPI   C2B 9754  10.147  12.217   7.735 -0.2107 -0.1106  0.5954
  694loPI   C3B 9755  10.251  12.110   8.140 -0.2033 -0.2453 -0.2161
  694loPI   C4B 9756  10.398  12.109   8.516 -0.0976  0.2287  0.2196
  695loPI    C1 9757   8.588  13.170   6.565 -0.2577  0.0405 -0.1894
  695loPI    C2 9758   8.663  13.471   6.818  0.2779 -0.1628 -0.0925
  695loPI    C3 9759   8.610  13.545   6.429 -0.0558  0.0998 -0.0013
  695loPI   PO4 9760   8.327  13.048   6.761 -0.1955  0.0958  0.0799
  695loPI   GL1 9761   8.031  13.020   7.074  0.0530  0.0299  0.1664
  695loPI   GL2 9762   8.208  12.712   7.141  0.2589  0.1500 -0.1571
  695loPI   C1A 9763   8.007  13.084   7.519 -0.3041 -0.1382  0.2390
  695loPI   C2A 9764   8.008  13.159   8.013  0.1719  0.0211 -0.1030
  695loPI   C3A 9765   8.126  13.133   8.328 -0.1486 -0.3688 -0.1767
  695loPI   C4A 9766   8.051  12.964   8.679 -0.0506 -0.0712  0.1505
  695loPI   C5A 9767   7.748  13.078   8.960 -0.1019 -0.0369 -0.0816
  695loPI   C6A 9768   7.382  13.256   9.279 -0.3496  0.2493 -0.1976
  695loPI   C1B 9769   8.397  12.766   7.543  0.2357 -0.0470  0.0491
  695loPI   C2B 9770   8.333  12.747   8.029 -0.0040 -0.2819  0.1440
  695loPI   C3B 9771   8.284  12.636   8.387 -0.0402 -0.0653 -0.0978
  695loPI   C4B 9772   8.294  12.413   8.690 -0.0502 -0.2587 -0.1124
  696loPI    C1 9773   0.099   3.335   5.433  0.1643 -0.1895  0.0283
  696loPI    C2 9774   0.202   3.703   5.315  0.1691 -0.2129 -0.0411
  696loPI    C3 9775  -0.184   3.600   5.334  0.1451 -0.0598  0.4162
  696loPI   PO4 9776   0.195   3.328   5.680 -0.1340 -0.1019  0.0299
  696loPI   GL1 9777   0.435   3.255   5.984 -0.2626  0.2064  0.2454
  696loPI   GL2 9778   0.175   3.463   6.155 -0.1093 -0.1021  0.0136
  696loPI   C1A 9779   0.250   3.160   6.519  0.0594 -0.0677  0.0042
  696loPI   C2A 9780   0.376   3.161   6.960  0.3793  0.1861 -0.0350
  696loPI   C3A 9781   0.456   3.144   7.399  0.2772  0.0071 -0.2933
  696loPI   C4A 9782   0.484   2.992   7.740 -0.0076 -0.2930  0.1452
  696loPI   C5A 9783   0.738   3.214   8.066  0.2660  0.0168 -0.1293
  696loPI   C6A 9784   0.690   3.374   8.466 -0.2841  0.1724 -0.0345
  696loPI   C1B 9785   0.412   3.609   6.628  0.3108  0.2510 -0.1405
  696loPI   C2B 9786   0.475   3.670   7.037  0.1688  0.2212  0.0429
  696loPI   C3B 9787   0.538   3.628   7.399  0.0706  0.2707  0.1156
  696loPI   C4B 9788   0.448   3.523   7.760 -0.0028 -0.2120 -0.0575
  697loPI    C1 9789   1.261   6.553   5.682  0.2862 -0.1819 -0.1853
  697loPI    C2 9790   1.372   6.796   5.385  0.3709  0.0090  0.0002
  697loPI    C3 9791   1.000   6.650   5.395  0.2522  0.3051  0.0012
  697loPI   PO4 9792   1.291   6.735   5.883 -0.1203  0.3196 -0.0329
  697loPI   GL1 9793   1.123   6.868   6.175  0.0677 -0.3398  0.0732
  697loPI   GL2 9794   1.419   7.010   6.394 -0.1254  0.1115 -0.1897
  697loPI   C1A 9795   1.039   6.644   6.587  0.0481  0.0032 -0.0198
  697loPI   C2A 9796   0.776   6.604   6.974  0.2680 -0.2608  0.2173
  697loPI   C3A 9797   0.732   6.625   7.392  0.0187  0.0804  0.1018
  697loPI   C4A 9798   0.865   6.687   7.746 -0.3686  0.0985  0.1158
  697loPI   C5A 9799   0.876   6.587   8.248  0.3847  0.3755  0.1098
  697loPI   C6A 9800   1.192   6.674   8.572 -0.0891 -0.3944  0.2980
  697loPI   C1B 9801   1.459   6.760   6.789 -0.0172 -0.1878 -0.1871
  697loPI   C2B 9802   1.436   6.764   7.248 -0.0039  0.1899  0.0340
  697loPI   C3B 9803   1.335   6.912   7.692  0.0432  0.0195  0.1363
  697loPI   C4B 9804   1.387   6.850   8.100 -0.0645  0.3484  0.3493
  698loPI    C1 9805   8.830  12.142   6.654 -0.1382  0.1135 -0.0115
  698loPI    C2 9806   8.727  12.235   6.279  0.0767  0.1416 -0.0651
  698loPI    C3 9807   9.111  12.170   6.371  0.0070 -0.0235  0.1168
  698loPI   PO4 9808   8.627  12.072   6.796  0.1054 -0.2550  0.0680
  698loPI   GL1 9809   8.651  11.826   7.122  0.1884 -0.0514 -0.0748
  698loPI   GL2 9810   8.269  11.803   7.306  0.2042 -0.0992  0.1036
  698loPI   C1A 9811   8.664  11.751   7.593 -0.1963  0.0462 -0.0101
  698loPI   C2A 9812   8.712  11.687   8.055  0.0465  0.3399  0.0043
  698loPI   C3A 9813   8.877  11.660   8.393 -0.0447  0.2833  0.0068
  698loPI   C4A 9814   9.054  11.691   8.808 -0.1277 -0.1332 -0.0763
  698loPI   C5A 9815   8.961  11.985   9.004  0.1253  0.1165 -0.1982
  698loPI   C6A 9816   8.773  12.326   8.800  0.0670  0.0370 -0.0050
  698loPI   C1B 9817   8.122  11.770   7.721  0.1401  0.0192 -0.0709
  698loPI   C2B 9818   8.088  11.816   8.151  0.1336 -0.0397 -0.2878
  698loPI   C3B 9819   8.084  11.749   8.595 -0.1406 -0.0037 -0.1923
  698loPI   C4B 9820   8.122  11.981   8.954  0.2853 -0.1318 -0.0574
  699loPI    C1 9821  11.104   5.459   6.061  0.0662  0.1559 -0.2347
  699loPI    C2 9822  11.268   5.346   5.714  0.0433 -0.0073 -0.1932
  699loPI    C3 9823  10.955   5.596   5.716  0.0653  0.0213 -0.2881
  699loPI   PO4 9824  11.281   5.412   6.249  0.0421 -0.0062 -0.1130
  699loPI   GL1 9825  11.136   5.353   6.672  0.1869  0.2470 -0.0012
  699loPI   GL2 9826  10.896   5.554   6.784 -0.1099 -0.0106 -0.1340
  699loPI   C1A 9827  11.048   5.111   7.053  0.0245 -0.2464  0.2999
  699loPI   C2A 9828  11.175   5.084   7.487  0.1236  0.1043 -0.5501
  699loPI   C3A 9829  11.196   5.092   7.993  0.0954 -0.2254 -0.1464
  699loPI   C4A 9830  11.180   5.098   8.397 -0.1509 -0.1979 -0.1215
  699loPI   C5A 9831  11.269   5.261   8.792  0.1855 -0.1066 -0.2752
  699loPI   C6A 9832  11.242   5.576   9.118  0.4263 -0.0323 -0.0407
  699loPI   C1B 9833  11.187   5.590   7.168 -0.0054 -0.2067  0.1168
  699loPI   C2B 9834  11.225   5.573   7.580  0.2412 -0.2109  0.1883
  699loPI   C3B 9835  11.229   5.654   7.972  0.3607  0.0005 -0.2853
  699loPI   C4B 9836  11.295   5.577   8.438 -0.1454 -0.2654  0.2561
  700loPI    C1 9837   1.800   8.422   5.839  0.0695  0.0089 -0.2038
  700loPI    C2 9838   1.544   8.178   5.652 -0.1239  0.0718 -0.0250
  700loPI    C3 9839   1.652   8.523   5.481 -0.1673  0.0507 -0.0956
  700loPI   PO4 9840   1.797   8.325   6.162  0.2729  0.2379  0.0067
  700loPI   GL1 9841   1.428   8.269   6.483 -0.1942 -0.2686 -0.1142
  700loPI   GL2 9842   1.647   8.051   6.604 -0.0621  0.0287  0.0037
  700loPI   C1A 9843   1.138   8.160   6.816  0.0563  0.0655  0.1595
  700loPI   C2A 9844   1.033   8.106   7.172 -0.2276  0.0456  0.0541
  700loPI   C3A 9845   1.122   8.281   7.538  0.0026  0.0962  0.1453
  700loPI   C4A 9846   1.269   8.416   7.915 -0.1643 -0.0251  0.2597
  700loPI   C5A 9847   1.483   8.410   8.228  0.0386 -0.2080  0.3063
  700loPI   C6A 9848   1.383   8.402   8.558 -0.1261 -0.0808 -0.1595
  700loPI   C1B 9849   1.607   8.251   6.958 -0.0413  0.1918  0.4423
  700loPI   C2B 9850   1.639   8.414   7.438  0.0476 -0.1190 -0.3365
  700loPI   C3B 9851   1.891   8.296   7.685  0.0245 -0.0189 -0.0817
  700loPI   C4B 9852   1.837   8.080   8.079  0.1160 -0.1493 -0.0613
  701loPI    C1 9853   5.730  16.503   6.255 -0.0350 -0.0157 -0.1218
  701loPI    C2 9854   5.861  16.372   5.901 -0.1809 -0.1128 -0.1404
  701loPI    C3 9855   5.500  16.541   5.931 -0.1702 -0.1076 -0.0374
  701loPI   PO4 9856   5.802  16.290   6.444 -0.1032  0.1633  0.1517
  701loPI   GL1 9857   6.027  16.279   6.741 -0.0896 -0.1296  0.0124
  701loPI   GL2 9858   6.378  16.195   6.685  0.1252 -0.0723 -0.0239
  701loPI   C1A 9859   5.821  16.261   7.186  0.1387  0.1130 -0.1502
  701loPI   C2A 9860   5.919  16.145   7.654  0.1838  0.0216 -0.0695
  701loPI   C3A 9861   5.952  16.158   8.113 -0.1265  0.1503  0.0076
  701loPI   C4A 9862   5.992  16.133   8.555  0.0173  0.0760  0.0924
  701loPI   C5A 9863   5.698  15.943   8.713  0.3541  0.0375  0.1922
  701loPI   C6A 9864   5.354  15.884   8.786 -0.0300  0.0524  0.0294
  701loPI   C1B 9865   6.389  16.196   7.177 -0.2278  0.0109 -0.0089
  701loPI   C2B 9866   6.455  16.194   7.649 -0.0670 -0.4104 -0.1503
  701loPI   C3B 9867   6.429  16.222   8.059  0.1949 -0.0347 -0.0199
  701loPI   C4B 9868   6.506  16.225   8.460 -0.1535 -0.2215 -0.2055
  702loPI    C1 9869   0.363  14.638   5.710 -0.1378 -0.0049 -0.1751
  702loPI    C2 9870   0.361  14.273   5.546 -0.1529 -0.0197 -0.1416
  702loPI    C3 9871   0.462  14.591   5.325 -0.1032 -0.0488 -0.1608
  702loPI   PO4 9872   0.419  14.556   5.962  0.1866 -0.2926 -0.3361
  702loPI   GL1 9873   0.464  14.686   6.349  0.3177 -0.2988  0.1382
  702loPI   GL2 9874   0.239  14.403   6.446  0.0305 -0.0449  0.3618
  702loPI   C1A 9875   0.584  14.459   6.750 -0.1327 -0.2708  0.0294
  702loPI   C2A 9876   0.587  14.525   7.192  0.0287  0.1747 -0.4515
  702loPI   C3A 9877   0.643  14.419   7.588  0.1177 -0.1906 -0.0826
  702loPI   C4A 9878   0.679  14.387   8.081  0.0502  0.0994  0.4076
  702loPI   C5A 9879   0.443  14.341   8.486  0.3674  0.1281  0.3230
  702loPI   C6A 9880   0.175  13.927   8.612  0.2374  0.0909  0.2498
  702loPI   C1B 9881   0.141  14.311   6.908  0.1253 -0.0180  0.0264
  702loPI   C2B 9882   0.065  14.345   7.323 -0.0622 -0.0687 -0.0737
  702loPI   C3B 9883   0.201  14.214   7.692 -0.0591 -0.3991 -0.0641
  702loPI   C4B 9884   0.160  14.177   8.092  0.0817  0.0973  0.0812
  703loPI    C1 9885   6.458  14.752   6.259  0.0133  0.0293  0.1086
  703loPI    C2 9886   6.502  14.910   5.894  0.0756 -0.1010  0.0590
  703loPI    C3 9887   6.158  14.958   6.093  0.0268 -0.0644 -0.0341
  703loPI   PO4 9888   6.515  14.584   6.378  0.0465  0.2881 -0.1459
  703loPI   GL1 9889   6.697  14.605   6.777 -0.1090  0.0756  0.1001
  703loPI   GL2 9890   6.724  14.931   6.700 -0.2139  0.3382 -0.0091
  703loPI   C1A 9891   6.675  14.403   7.194 -0.1372  0.0256 -0.0720
  703loPI   C2A 9892   6.517  14.387   7.669 -0.3174 -0.0428  0.1435
  703loPI   C3A 9893   6.514  14.519   8.071 -0.0393 -0.3008  0.0075
  703loPI   C4A 9894   6.586  14.334   8.473  0.2810 -0.0939 -0.0995
  703loPI   C5A 9895   6.668  14.163   8.823  0.0211  0.0063 -0.1811
  703loPI   C6A 9896   6.387  14.261   9.184 -0.1589 -0.0812  0.3583
  703loPI   C1B 9897   6.805  14.908   7.177 -0.0335 -0.2214  0.1469
  703loPI   C2B 9898   6.786  14.932   7.588  0.0119  0.0126 -0.0678
  703loPI   C3B 9899   6.769  14.920   7.955 -0.1247 -0.1066  0.0807
  703loPI   C4B 9900   6.790  14.946   8.404 -0.0167 -0.0388 -0.1095
  704loPI    C1 9901   9.625  11.660   6.465 -0.1095 -0.0787 -0.2597
  704loPI    C2 9902   9.345  11.573   6.192 -0.0670  0.1685 -0.3846
  704loPI    C3 9903   9.507  11.939   6.203 -0.0995  0.1752  0.0015
  704loPI   PO4 9904   9.744  11.404   6.473  0.0338  0.1614 -0.0106
  704loPI   GL1 9905   9.723  11.214   6.861 -0.0355 -0.2201  0.4191
  704loPI   GL2 9906   9.562  11.448   6.992  0.1575  0.1228 -0.2582
  704loPI   C1A 9907  10.057  11.242   7.100 -0.2139 -0.0476  0.0215
  704loPI   C2A 9908  10.121  11.225   7.536  0.0631 -0.1921 -0.0796
  704loPI   C3A 9909  10.187  11.101   7.981  0.1471  0.1645 -0.2188
  704loPI   C4A 9910  10.224  11.149   8.449  0.1775  0.0158 -0.2422
  704loPI   C5A 9911   9.950  11.002   8.895  0.0480 -0.3767 -0.0492
  704loPI   C6A 9912   9.938  10.813   9.368  0.2346  0.1211  0.0757
  704loPI   C1B 9913   9.620  11.341   7.404  0.2624  0.1597 -0.0164
  704loPI   C2B 9914   9.681  11.390   7.817  0.2512 -0.0183 -0.0718
  704loPI   C3B 9915   9.761  11.340   8.229  0.0370  0.0799 -0.1275
  704loPI   C4B 9916   9.743  11.390   8.615 -0.0438 -0.1437 -0.0221
  705loPI    C1 9917   0.714   8.741   5.701  0.0115  0.1870  0.0313
  705loPI    C2 9918   0.773   8.714   5.307 -0.0036  0.0616  0.0374
  705loPI    C3 9919   0.416   8.825   5.447  0.0510  0.2717  0.0127
  705loPI   PO4 9920   0.684   8.578   5.916  0.0711  0.1278  0.1885
  705loPI   GL1 9921   0.544   8.471   6.382 -0.0014  0.1830  0.0374
  705loPI   GL2 9922   0.591   8.750   6.365 -0.0930 -0.3196  0.2037
  705loPI   C1A 9923   0.651   8.394   6.781  0.0233 -0.2731 -0.1495
  705loPI   C2A 9924   0.640   8.392   7.247  0.0356  0.0283  0.0070
  705loPI   C3A 9925   0.669   8.543   7.746 -0.0682  0.0862  0.2440
  705loPI   C4A 9926   0.574   8.711   8.240 -0.1565 -0.0283  0.2630
  705loPI   C5A 9927   0.843   8.635   8.534  0.2044 -0.0986  0.0692
  705loPI   C6A 9928   0.872   8.191   8.705  0.1312  0.2729 -0.2772
  705loPI   C1B 9929   0.685   8.888   6.811  0.1074 -0.0465 -0.0285
  705loPI   C2B 9930   0.702   8.856   7.197 -0.1579  0.0867  0.1793
  705loPI   C3B 9931   0.741   8.941   7.511  0.1728 -0.1058 -0.0627
  705loPI   C4B 9932   0.952   8.904   7.962 -0.0602  0.0384 -0.0324
  706loPI    C1 9933  14.681  12.660   6.002  0.1863  0.0661 -0.0610
  706loPI    C2 9934  14.334  12.597   6.191  0.2358  0.0478  0.0239
  706loPI    C3 9935  14.343  12.615   5.792  0.1258  0.1201  0.0243
  706loPI   PO4 9936  14.833  12.801   6.130  0.1082  0.2943  0.1738
  706loPI   GL1 9937  14.928  12.986   6.512  0.0974  0.0991  0.1340
  706loPI   GL2 9938  14.587  12.846   6.550 -0.3969 -0.0928  0.4198
  706loPI   C1A 9939  14.937  13.031   6.955  0.1016  0.0618 -0.1875
  706loPI   C2A 9940  14.891  13.154   7.381  0.2047 -0.0767 -0.0072
  706loPI   C3A 9941  14.859  13.259   7.822  0.0069 -0.0499  0.0323
  706loPI   C4A 9942  14.964  13.200   8.285 -0.1272 -0.1442 -0.0417
  706loPI   C5A 9943  15.018  13.550   8.559 -0.2141 -0.1038  0.0748
  706loPI   C6A 9944  15.566  13.567   8.510 -0.0479  0.3118 -0.0460
  706loPI   C1B 9945  14.429  12.816   6.915  0.0526  0.1006  0.2867
  706loPI   C2B 9946  14.308  12.987   7.275  0.1743  0.3324  0.2847
  706loPI   C3B 9947  14.474  13.070   7.618  0.1021 -0.0289 -0.2104
  706loPI   C4B 9948  14.328  13.063   8.155 -0.1234  0.0275 -0.2689
  707loPI    C1 9949   0.993   7.789   5.996  0.0402 -0.0546  0.0436
  707loPI    C2 9950   0.716   7.709   5.718  0.1079 -0.0853 -0.0152
  707loPI    C3 9951   1.097   7.605   5.657  0.1571  0.0781  0.0066
  707loPI   PO4 9952   0.839   7.693   6.197 -0.1047  0.0952  0.0986
  707loPI   GL1 9953   0.576   7.627   6.572 -0.1181 -0.1157  0.2567
  707loPI   GL2 9954   0.517   7.941   6.527 -0.1176  0.1265  0.0082
  707loPI   C1A 9955   0.495   7.382   6.892  0.0050  0.1771  0.0246
  707loPI   C2A 9956   0.499   7.441   7.349 -0.1019 -0.1058 -0.0086
  707loPI   C3A 9957   0.577   7.441   7.800 -0.0423  0.0316  0.1229
  707loPI   C4A 9958   0.413   7.394   8.207  0.0275 -0.2993  0.1359
  707loPI   C5A 9959   0.038   7.135   8.346 -0.1450  0.0466  0.1981
  707loPI   C6A 9960  -0.264   6.712   8.555 -0.0875 -0.1338 -0.0346
  707loPI   C1B 9961   0.525   7.867   6.966  0.1052 -0.0365  0.0344
  707loPI   C2B 9962   0.593   7.931   7.422  0.3261  0.1264  0.0955
  707loPI   C3B 9963   0.585   8.012   7.860  0.2508 -0.3131 -0.1548
  707loPI   C4B 9964   0.750   8.214   8.197  0.1227 -0.2189  0.2726
  708loPI    C1 9965   3.777  15.736   6.195  0.2439 -0.4722  0.1712
  708loPI    C2 9966   4.084  15.987   6.246 -0.1482  0.0691 -0.0425
  708loPI    C3 9967   4.031  15.804   5.894 -0.0725 -0.0236 -0.0059
  708loPI   PO4 9968   3.595  15.879   6.343 -0.0817 -0.4739  0.1808
  708loPI   GL1 9969   3.764  16.192   6.593 -0.1025 -0.0439 -0.0629
  708loPI   GL2 9970   3.527  16.125   6.814  0.1162  0.0683  0.0686
  708loPI   C1A 9971   3.921  16.405   6.913 -0.0007 -0.2473  0.0567
  708loPI   C2A 9972   3.990  16.621   7.318  0.1016  0.0561  0.0612
  708loPI   C3A 9973   3.979  16.673   7.797  0.2013  0.2260 -0.1693
  708loPI   C4A 9974   4.106  16.632   8.187  0.1498 -0.2117  0.0686
  708loPI   C5A 9975   4.115  16.575   8.654  0.1007  0.2742  0.0579
  708loPI   C6A 9976   4.278  16.452   9.020  0.1005  0.1772 -0.1276
  708loPI   C1B 9977   3.618  16.179   7.206 -0.0129 -0.2458  0.0210
  708loPI   C2B 9978   3.645  16.331   7.636 -0.1071  0.1465 -0.1516
  708loPI   C3B 9979   3.784  16.132   7.949  0.2666 -0.2501 -0.0472
  708loPI   C4B 9980   3.927  16.215   8.389  0.0308  0.2484 -0.1227
  709loPI    C1 9981  14.357  10.038   5.800  0.1216 -0.0480  0.1483
  709loPI    C2 9982  14.222  10.413   5.834  0.2002 -0.0195  0.1480
  709loPI    C3 9983  14.528  10.332   5.590  0.0679 -0.1136  0.0116
  709loPI   PO4 9984  14.420   9.920   6.097  0.1701  0.2155 -0.2890
  709loPI   GL1 9985  14.170   9.757   6.320 -0.1361  0.3250 -0.1642
  709loPI   GL2 9986  14.237   9.485   6.322  0.2031  0.1480 -0.0400
  709loPI   C1A 9987  13.944   9.899   6.611  0.1213 -0.0307  0.2523
  709loPI   C2A 9988  13.912   9.834   7.047  0.3822 -0.2160  0.3228
  709loPI   C3A 9989  14.053   9.813   7.417  0.0571  0.0881 -0.0410
  709loPI   C4A 9990  13.900   9.767   7.779  0.0222  0.1971 -0.1412
  709loPI   C5A 9991  14.011   9.656   8.244  0.1804 -0.0857  0.1651
  709loPI   C6A 9992  13.986   9.208   8.401  0.1780  0.0607 -0.1222
  709loPI   C1B 9993  14.282   9.475   6.768  0.0888 -0.3025  0.1490
  709loPI   C2B 9994  14.291   9.476   7.141 -0.2107 -0.1411 -0.0606
  709loPI   C3B 9995  14.417   9.419   7.520  0.3152  0.3254  0.0965
  709loPI   C4B 9996  14.398   9.485   7.882 -0.0285  0.1194  0.0799
  710loPI    C1 9997  12.696  16.280   5.830  0.0116  0.2573 -0.1112
  710loPI    C2 9998  12.298  16.300   5.855  0.0071 -0.0663  0.1517
  710loPI    C3 9999  12.471  16.174   5.517 -0.1197 -0.0869  0.0939
  710loPI   PO410000  12.728  16.248   6.085  0.1226 -0.1998 -0.0019
  710loPI   GL110001  12.634  16.299   6.497  0.0691 -0.0855 -0.2357
  710loPI   GL210002  12.647  16.562   6.646  0.0504 -0.0610  0.1198
  710loPI   C1A10003  12.519  16.243   6.990 -0.0683 -0.1372  0.0117
  710loPI   C2A10004  12.521  16.151   7.418  0.1327  0.0146 -0.2043
  710loPI   C3A10005  12.558  16.132   7.886  0.4115 -0.0786 -0.0318
  710loPI   C4A10006  12.518  16.088   8.339 -0.1103 -0.2240  0.0803
  710loPI   C5A10007  12.404  16.086   8.683 -0.0650 -0.1134  0.0050
  710loPI   C6A10008  12.116  16.119   8.973 -0.1850 -0.1375  0.1521
  710loPI   C1B10009  12.706  16.788   7.014 -0.0715  0.1432 -0.0146
  710loPI   C2B10010  12.638  16.649   7.454  0.0003  0.1302 -0.2327
  710loPI   C3B10011  12.583  16.606   7.929 -0.1525  0.1873 -0.0921
  710loPI   C4B10012  12.586  16.588   8.326 -0.1922 -0.1740 -0.0107
  711loPI    C110013   7.290   4.480   6.599 -0.0377 -0.2774  0.0307
  711loPI    C210014   7.548   4.518   6.296  0.2343 -0.1276  0.2749
  711loPI    C310015   7.509   4.166   6.482  0.1114 -0.2037  0.1075
  711loPI   PO410016   7.240   4.751   6.601  0.1172  0.0431  0.1868
  711loPI   GL110017   7.359   4.932   6.890 -0.1404 -0.0469 -0.0373
  711loPI   GL210018   7.655   5.018   7.042  0.2692  0.2888  0.0943
  711loPI   C1A10019   7.242   4.602   7.301 -0.0811 -0.0040 -0.0673
  711loPI   C2A10020   7.198   4.477   7.697  0.1648 -0.2569  0.1214
  711loPI   C3A10021   7.258   4.457   8.123  0.0191 -0.1858 -0.3155
  711loPI   C4A10022   7.206   4.537   8.661  0.2129  0.0881 -0.0638
  711loPI   C5A10023   7.116   4.941   8.922 -0.3430  0.1092  0.1814
  711loPI   C6A10024   7.355   5.174   9.004  0.0796  0.0201  0.2055
  711loPI   C1B10025   7.454   5.004   7.481 -0.2835 -0.2747 -0.1240
  711loPI   C2B10026   7.438   4.929   7.849  0.1078 -0.0296 -0.1284
  711loPI   C3B10027   7.439   5.018   8.189 -0.0250 -0.0126 -0.0064
  711loPI   C4B10028   7.496   5.097   8.541  0.1677 -0.0543  0.2553
  712loPI    C110029   9.252   6.275   6.313  0.2094 -0.1479 -0.2444
  712loPI    C210030   8.960   6.432   6.090  0.0940 -0.0098 -0.0011
  712loPI    C310031   9.340   6.547   6.033  0.0432  0.1586 -0.0051
  712loPI   PO410032   9.056   6.178   6.536 -0.0670  0.0922  0.0253
  712loPI   GL110033   9.125   6.164   7.002  0.1277  0.1375  0.0881
  712loPI   GL210034   9.251   5.824   7.151 -0.0861  0.1528  0.0584
  712loPI   C1A10035   9.094   6.262   7.441  0.0861  0.0247 -0.0011
  712loPI   C2A10036   9.124   6.325   7.896  0.2292 -0.2325  0.1909
  712loPI   C3A10037   9.028   5.967   8.149  0.0636 -0.0824 -0.0396
  712loPI   C4A10038   8.988   5.859   8.558 -0.0490  0.0462 -0.0193
  712loPI   C5A10039   9.138   5.694   8.947  0.0100  0.2220 -0.1294
  712loPI   C6A10040   9.518   5.654   9.161  0.0097  0.0623 -0.0004
  712loPI   C1B10041   9.463   5.898   7.559  0.0129  0.1342  0.0061
  712loPI   C2B10042   9.414   5.936   7.855 -0.1841 -0.1661 -0.5334
  712loPI   C3B10043   9.491   5.987   8.305 -0.1653  0.0408 -0.1467
  712loPI   C4B10044   9.500   5.996   8.730 -0.2461  0.0561 -0.3079
  713loPI    C110045   2.792  11.273   5.980  0.1155  0.0732  0.0405
  713loPI    C210046   2.571  11.603   5.931 -0.1932 -0.1347  0.0025
  713loPI    C310047   2.528  11.294   5.680  0.1088 -0.1983  0.0248
  713loPI   PO410048   2.742  11.148   6.274 -0.2189 -0.1329 -0.2609
  713loPI   GL110049   2.762  11.214   6.699 -0.0509  0.0989 -0.0881
  713loPI   GL210050   2.924  10.901   6.694 -0.0561  0.0864  0.2750
  713loPI   C1A10051   2.712  11.061   7.090 -0.0474  0.1004  0.1654
  713loPI   C2A10052   2.677  11.091   7.589 -0.0207  0.0810  0.0790
  713loPI   C3A10053   2.531  11.184   7.958 -0.2010 -0.0784 -0.3289
  713loPI   C4A10054   2.267  11.442   8.295  0.2283 -0.1748 -0.3047
  713loPI   C5A10055   2.392  11.552   8.708 -0.0902  0.0616  0.3488
  713loPI   C6A10056   2.370  11.636   9.098  0.0208 -0.1411 -0.0205
  713loPI   C1B10057   3.233  11.035   7.044 -0.1522 -0.0422 -0.3043
  713loPI   C2B10058   3.166  10.993   7.458 -0.0048  0.1639  0.1988
  713loPI   C3B10059   3.081  11.038   7.833  0.3325  0.1794  0.3761
  713loPI   C4B10060   2.868  10.981   8.209 -0.5058  0.1078  0.3382
  714loPI    C110061   9.917   7.676   6.036 -0.1267  0.1969 -0.1867
  714loPI    C210062  10.058   7.484   5.714 -0.1078  0.0959 -0.1187
  714loPI    C310063   9.731   7.348   5.901  0.1138 -0.0838  0.1459
  714loPI   PO410064  10.158   7.732   6.243  0.1209  0.3298 -0.0428
  714loPI   GL110065  10.101   7.679   6.774 -0.0992 -0.0033 -0.2000
  714loPI   GL210066  10.036   7.386   6.808  0.3881  0.0246 -0.0488
  714loPI   C1A10067  10.107   7.641   7.278 -0.2595 -0.2635  0.0371
  714loPI   C2A10068  10.074   7.740   7.727  0.0921  0.0147 -0.4554
  714loPI   C3A10069  10.052   7.793   8.029  0.0484  0.0973 -0.0201
  714loPI   C4A10070  10.045   7.630   8.394  0.0881  0.0349  0.1082
  714loPI   C5A10071  10.271   7.553   8.727 -0.2025  0.0643  0.1977
  714loPI   C6A10072  10.724   7.643   8.786  0.0366 -0.4148 -0.1449
  714loPI   C1B10073  10.105   7.085   7.169  0.0912 -0.0839 -0.1030
  714loPI   C2B10074  10.031   7.227   7.622 -0.1632  0.0248  0.2030
  714loPI   C3B10075   9.992   7.183   8.100 -0.0691 -0.0915 -0.0686
  714loPI   C4B10076  10.030   7.145   8.545 -0.0216 -0.0064  0.2528
  715loPI    C110077   0.716  12.956   5.995  0.0686  0.1011 -0.1249
  715loPI    C210078   0.781  12.585   6.129  0.3018  0.1661 -0.0538
  715loPI    C310079   0.635  12.642   5.761 -0.0101 -0.0028  0.0404
  715loPI   PO410080   0.570  13.107   6.186  0.0953  0.1775 -0.3207
  715loPI   GL110081   0.492  13.211   6.634 -0.2063  0.1435 -0.0937
  715loPI   GL210082   0.200  13.342   6.575 -0.0209 -0.2317 -0.1462
  715loPI   C1A10083   0.376  13.409   7.065  0.0662  0.1327 -0.0055
  715loPI   C2A10084   0.399  13.342   7.461 -0.0674  0.0486  0.1637
  715loPI   C3A10085   0.437  13.314   7.944  0.0271 -0.2887  0.0242
  715loPI   C4A10086   0.560  13.252   8.332 -0.0605  0.4467  0.1244
  715loPI   C5A10087   0.924  13.188   8.635 -0.0705  0.1478  0.2126
  715loPI   C6A10088   0.994  12.736   8.609  0.1134  0.1161 -0.2828
  715loPI   C1B10089  -0.107  12.973   6.792 -0.2867 -0.3363 -0.0185
  715loPI   C2B10090  -0.046  13.015   7.216 -0.1759 -0.1155  0.1816
  715loPI   C3B10091  -0.010  13.166   7.695  0.1638  0.2848  0.0690
  715loPI   C4B10092  -0.067  13.145   8.094 -0.4379  0.0254  0.0266
  716loPI    C110093  12.664   3.150   5.842 -0.0213  0.1106  0.0807
  716loPI    C210094  12.758   3.453   5.598 -0.3240  0.1964  0.0669
  716loPI    C310095  12.609   3.114   5.448  0.0501  0.0219  0.0785
  716loPI   PO410096  12.792   3.281   6.077  0.0670 -0.0156  0.0327
  716loPI   GL110097  12.823   3.071   6.474  0.0849  0.0159  0.0757
  716loPI   GL210098  13.137   2.949   6.636  0.1958  0.2237 -0.0301
  716loPI   C1A10099  12.707   3.328   6.868 -0.1092  0.0443 -0.1591
  716loPI   C2A10100  12.723   3.408   7.357 -0.2560  0.0666  0.0167
  716loPI   C3A10101  12.702   3.338   7.805 -0.0722  0.0041 -0.0473
  716loPI   C4A10102  12.751   3.477   8.270  0.0192 -0.2727 -0.0566
  716loPI   C5A10103  12.843   3.365   8.763 -0.0832 -0.1180 -0.0128
  716loPI   C6A10104  12.556   3.151   9.062 -0.0125 -0.2169 -0.0215
  716loPI   C1B10105  13.173   3.103   7.004 -0.0479 -0.0455  0.1559
  716loPI   C2B10106  13.163   3.064   7.354 -0.2130 -0.0863 -0.2228
  716loPI   C3B10107  13.224   3.061   7.820 -0.0384 -0.3226 -0.3066
  716loPI   C4B10108  13.114   3.093   8.265  0.1189 -0.4003  0.2509
  717loPI    C110109   3.331   4.169   6.281 -0.1576  0.1635  0.0049
  717loPI    C210110   3.383   4.081   5.894 -0.1424 -0.1816  0.0819
  717loPI    C310111   3.235   4.437   6.000  0.0642  0.0024 -0.2296
  717loPI   PO410112   3.533   4.154   6.384 -0.1463 -0.2136 -0.0342
  717loPI   GL110113   3.735   4.011   6.819 -0.1486 -0.0031 -0.2355
  717loPI   GL210114   3.955   4.276   6.777 -0.0915  0.1625 -0.0500
  717loPI   C1A10115   3.798   3.953   7.257 -0.0716 -0.0209  0.0063
  717loPI   C2A10116   3.867   3.945   7.740  0.0107 -0.1206  0.0186
  717loPI   C3A10117   3.896   4.060   8.151  0.2297  0.0920 -0.2947
  717loPI   C4A10118   3.848   4.091   8.584  0.2052  0.0244 -0.0984
  717loPI   C5A10119   3.458   4.106   8.814  0.0883  0.0614 -0.0847
  717loPI   C6A10120   3.142   3.667   8.813  0.1102 -0.3058  0.1275
  717loPI   C1B10121   4.171   4.460   7.121  0.1961 -0.0542 -0.2150
  717loPI   C2B10122   4.270   4.613   7.497  0.2046 -0.3227  0.0951
  717loPI   C3B10123   4.232   4.430   7.781 -0.0770  0.0775  0.2646
  717loPI   C4B10124   4.189   4.465   8.217  0.0080 -0.3291 -0.1996
  718loPI    C110125  16.317   1.280   5.893  0.2451 -0.0846  0.1188
  718loPI    C210126  16.625   1.504   5.772  0.1255  0.0547  0.0696
  718loPI    C310127  16.251   1.609   5.676  0.0655 -0.1446  0.0806
  718loPI   PO410128  16.396   1.203   6.222  0.4213 -0.1042 -0.2018
  718loPI   GL110129  16.592   0.978   6.433 -0.0284 -0.1899 -0.1264
  718loPI   GL210130  16.637   0.695   6.530 -0.0261  0.1145  0.1589
  718loPI   C1A10131  16.638   1.040   6.857 -0.0694 -0.0297  0.0216
  718loPI   C2A10132  16.598   1.010   7.273 -0.2114  0.1862 -0.3664
  718loPI   C3A10133  16.618   1.070   7.674  0.3637 -0.0984  0.1770
  718loPI   C4A10134  16.577   1.060   8.181  0.1386  0.1227 -0.5360
  718loPI   C5A10135  16.631   1.245   8.557 -0.1888 -0.3750 -0.1455
  718loPI   C6A10136  16.428   1.332   8.944  0.0885 -0.0674 -0.1475
  718loPI   C1B10137  16.492   0.599   6.971 -0.1602 -0.0127 -0.2029
  718loPI   C2B10138  16.458   0.564   7.399  0.3634 -0.1342  0.1729
  718loPI   C3B10139  16.549   0.563   7.812  0.1315  0.1560  0.2565
  718loPI   C4B10140  16.481   0.502   8.206  0.0158  0.1716  0.1700
  719loPI    C110141  13.115  11.297   5.864 -0.0901  0.0212 -0.2391
  719loPI    C210142  12.860  11.580   5.741 -0.0681  0.0855 -0.1377
  719loPI    C310143  12.767  11.348   6.053 -0.1635 -0.1379 -0.3289
  719loPI   PO410144  13.366  11.420   5.958 -0.1057 -0.1505 -0.0539
  719loPI   GL110145  13.662  11.249   6.306 -0.0540 -0.0666  0.2893
  719loPI   GL210146  13.591  11.614   6.350  0.2074  0.3600  0.0597
  719loPI   C1A10147  13.656  11.182   6.690 -0.0728  0.0319  0.0157
  719loPI   C2A10148  13.612  11.214   7.122 -0.0210  0.0365  0.3982
  719loPI   C3A10149  13.601  11.265   7.482 -0.0813 -0.3357  0.0379
  719loPI   C4A10150  13.619  11.141   7.879 -0.0150 -0.1342 -0.0799
  719loPI   C5A10151  13.711  11.094   8.260  0.1683 -0.1234 -0.1641
  719loPI   C6A10152  13.710  10.952   8.689 -0.0110 -0.4315 -0.4847
  719loPI   C1B10153  13.703  11.817   6.701  0.1148  0.0728  0.1916
  719loPI   C2B10154  13.694  11.742   7.135  0.1345 -0.1891  0.3169
  719loPI   C3B10155  13.658  11.741   7.588  0.1656 -0.2093 -0.0585
  719loPI   C4B10156  13.839  11.681   8.071 -0.2823 -0.1619  0.0133
  720loPI    C110157   8.177   4.966   6.247  0.2136 -0.3926 -0.0701
  720loPI    C210158   8.533   4.979   6.066  0.1898  0.2117 -0.0959
  720loPI    C310159   8.202   5.076   5.864  0.0352 -0.1059 -0.0026
  720loPI   PO410160   8.258   4.761   6.451 -0.3700 -0.3360  0.3766
  720loPI   GL110161   8.259   4.563   6.897  0.1333  0.1200 -0.0878
  720loPI   GL210162   8.178   4.819   6.946 -0.1863 -0.0028 -0.0186
  720loPI   C1A10163   8.286   4.434   7.250 -0.1026 -0.2354 -0.0251
  720loPI   C2A10164   8.375   4.552   7.574 -0.0711 -0.0305 -0.0888
  720loPI   C3A10165   8.273   4.520   7.993  0.2067  0.1324  0.2234
  720loPI   C4A10166   8.320   4.599   8.366  0.6736  0.0767  0.3418
  720loPI   C5A10167   8.458   4.574   8.791 -0.2459 -0.2456  0.1471
  720loPI   C6A10168   8.675   4.605   9.163  0.0739  0.1106  0.4074
  720loPI   C1B10169   8.168   5.008   7.285  0.1721  0.2474 -0.3023
  720loPI   C2B10170   8.168   5.018   7.822  0.0323  0.1915  0.0385
  720loPI   C3B10171   8.059   4.993   8.212 -0.0275  0.0655 -0.1229
  720loPI   C4B10172   8.041   4.971   8.701 -0.0831  0.0188 -0.3309
  721loPI    C110173  14.001  12.246   5.735  0.0428  0.1849 -0.0151
  721loPI    C210174  13.666  12.274   5.517  0.0659  0.3059 -0.0359
  721loPI    C310175  14.023  12.335   5.345  0.0902  0.3089  0.0155
  721loPI   PO410176  13.911  12.440   5.990  0.1725 -0.1050 -0.0090
  721loPI   GL110177  13.689  12.611   6.412 -0.1232 -0.0963  0.4591
  721loPI   GL210178  13.636  12.349   6.615 -0.3031 -0.2922 -0.1031
  721loPI   C1A10179  13.742  12.726   6.883  0.0669 -0.0847 -0.1010
  721loPI   C2A10180  13.844  12.744   7.266  0.1937 -0.1235  0.0524
  721loPI   C3A10181  13.944  12.840   7.689 -0.0768 -0.1657  0.1364
  721loPI   C4A10182  13.884  12.699   8.084  0.1739  0.0343 -0.0163
  721loPI   C5A10183  13.941  12.643   8.545  0.0599 -0.1723  0.1742
  721loPI   C6A10184  13.947  12.950   8.840  0.4195 -0.2862 -0.1593
  721loPI   C1B10185  13.762  12.230   6.966  0.0544 -0.1709 -0.2614
  721loPI   C2B10186  13.747  12.199   7.390  0.2241  0.0527  0.2172
  721loPI   C3B10187  13.839  12.222   7.852 -0.1417  0.0568 -0.1719
  721loPI   C4B10188  13.939  12.221   8.255  0.1247 -0.0995  0.4429
  722loPI    C110189  10.821  13.682   6.327 -0.0467  0.2802 -0.0720
  722loPI    C210190  11.075  13.537   6.053 -0.0820 -0.1515  0.1152
  722loPI    C310191  10.680  13.509   5.995 -0.0922  0.2119 -0.0174
  722loPI   PO410192  10.936  13.547   6.581 -0.2552 -0.3002 -0.0294
  722loPI   GL110193  11.144  13.367   6.959 -0.0149 -0.0762  0.1433
  722loPI   GL210194  11.260  13.602   6.931  0.0764  0.0342  0.0156
  722loPI   C1A10195  11.206  13.168   7.384 -0.1562  0.0410  0.0068
  722loPI   C2A10196  11.211  13.022   7.812  0.0861  0.0057 -0.1265
  722loPI   C3A10197  11.234  13.058   8.191 -0.2066  0.0633 -0.1399
  722loPI   C4A10198  11.077  13.285   8.557 -0.0991  0.0417 -0.2541
  722loPI   C5A10199  11.191  13.324   8.994  0.1916 -0.0227  0.1443
  722loPI   C6A10200  11.178  13.044   9.276  0.1565 -0.0954  0.1817
  722loPI   C1B10201  11.304  13.666   7.445 -0.0220  0.0108  0.5179
  722loPI   C2B10202  11.210  13.632   7.880  0.0177  0.1319  0.3168
  722loPI   C3B10203  11.262  13.666   8.259 -0.0536  0.1240 -0.1061
  722loPI   C4B10204  11.275  13.806   8.720  0.1264  0.0587  0.0904
  723loPI    C110205   9.862   1.656   6.777  0.3249 -0.1193 -0.0944
  723loPI    C210206  10.012   2.024   6.823 -0.0868  0.0687 -0.2162
  723loPI    C310207   9.896   1.899   6.461 -0.0677 -0.1343 -0.1533
  723loPI   PO410208   9.976   1.519   6.985  0.0115  0.1104  0.1304
  723loPI   GL110209  10.008   1.536   7.372 -0.2266  0.0343 -0.0079
  723loPI   GL210210  10.134   1.822   7.303 -0.2740 -0.1261 -0.1498
  723loPI   C1A10211  10.036   1.463   7.875 -0.0411  0.0603  0.0429
  723loPI   C2A10212  10.194   1.467   8.244  0.1407  0.0351 -0.5094
  723loPI   C3A10213  10.199   1.471   8.668  0.1098  0.1002  0.2788
  723loPI   C4A10214  10.057   1.796   8.944 -0.3886  0.2870 -0.0777
  723loPI   C5A10215   9.868   1.919   9.294 -0.1382  0.0419 -0.0999
  723loPI   C6A10216   9.981   1.913   9.643 -0.0759  0.2163  0.1353
  723loPI   C1B10217  10.132   1.953   7.737 -0.0511 -0.1163 -0.3108
  723loPI   C2B10218  10.151   1.975   8.135 -0.1367  0.0461 -0.2302
  723loPI   C3B10219  10.359   1.933   8.567 -0.0603 -0.1020 -0.1980
  723loPI   C4B10220  10.573   1.801   8.939 -0.0953  0.1315 -0.0807
  724loPI    C110221   6.264   1.946   6.355  0.0160  0.0392  0.2351
  724loPI    C210222   6.595   1.871   6.143 -0.1544 -0.2653  0.0697
  724loPI    C310223   6.538   2.233   6.304  0.1691 -0.1542 -0.0577
  724loPI   PO410224   6.218   1.689   6.465 -0.4468  0.1217  0.3647
  724loPI   GL110225   6.163   1.561   6.869 -0.1683  0.1286 -0.1283
  724loPI   GL210226   6.438   1.553   7.098 -0.0038 -0.1539  0.2803
  724loPI   C1A10227   5.922   1.531   7.201  0.4217 -0.1425 -0.0099
  724loPI   C2A10228   5.902   1.616   7.596 -0.1648  0.2424  0.0158
  724loPI   C3A10229   5.801   1.834   7.828  0.4254 -0.0724 -0.1172
  724loPI   C4A10230   5.798   1.776   8.182  0.2975  0.0840 -0.3111
  724loPI   C5A10231   5.770   1.719   8.513  0.2425 -0.1973 -0.0309
  724loPI   C6A10232   5.917   1.880   8.999  0.2448 -0.1739  0.0133
  724loPI   C1B10233   6.367   1.615   7.481  0.1126  0.0328 -0.1866
  724loPI   C2B10234   6.335   1.737   7.851 -0.0087  0.5416  0.2466
  724loPI   C3B10235   6.318   1.787   8.304 -0.2287  0.2623 -0.2261
  724loPI   C4B10236   6.132   2.131   8.615 -0.2083 -0.1530 -0.1995
  725loPI    C110237  11.297  10.043   6.083  0.0413 -0.3229 -0.1155
  725loPI    C210238  11.501  10.112   5.746  0.0493 -0.2105 -0.0879
  725loPI    C310239  11.104  10.067   5.734  0.0311 -0.0532 -0.0927
  725loPI   PO410240  11.537  10.152   6.276  0.3605 -0.1178 -0.0574
  725loPI   GL110241  11.628  10.452   6.535  0.2119 -0.0644 -0.0558
  725loPI   GL210242  11.912  10.450   6.508 -0.1666  0.3457 -0.1290
  725loPI   C1A10243  11.775  10.380   6.972  0.1950 -0.2026 -0.0146
  725loPI   C2A10244  11.766  10.388   7.358  0.0060  0.1313  0.0276
  725loPI   C3A10245  11.803  10.321   7.884 -0.0651  0.1499  0.0453
  725loPI   C4A10246  11.775  10.481   8.372 -0.0166  0.3396  0.0382
  725loPI   C5A10247  11.690  10.608   8.752  0.2177  0.0837 -0.0758
  725loPI   C6A10248  11.397  10.356   9.006 -0.0762 -0.0745 -0.1741
  725loPI   C1B10249  12.223  10.576   6.748  0.1872 -0.0501  0.0052
  725loPI   C2B10250  12.199  10.603   7.188  0.0344  0.1076 -0.0038
  725loPI   C3B10251  12.217  10.574   7.585 -0.0835  0.2176 -0.1501
  725loPI   C4B10252  12.329  10.563   8.065  0.1192  0.1654  0.2320
  726loPI    C110253  11.973   4.844   5.948 -0.0554 -0.0482 -0.2006
  726loPI    C210254  11.778   4.990   5.631 -0.1057 -0.1267 -0.2063
  726loPI    C310255  12.030   4.682   5.587  0.0133 -0.0317 -0.1973
  726loPI   PO410256  12.045   5.051   6.058 -0.2368 -0.0199 -0.0775
  726loPI   GL110257  12.165   5.224   6.517 -0.0531 -0.2706 -0.0205
  726loPI   GL210258  12.412   5.298   6.661 -0.0133  0.1498  0.0839
  726loPI   C1A10259  12.012   5.035   6.933  0.0232  0.0473  0.3696
  726loPI   C2A10260  11.992   4.997   7.391 -0.0758 -0.1799 -0.1363
  726loPI   C3A10261  12.030   5.021   7.837  0.2589  0.3002 -0.0749
  726loPI   C4A10262  12.036   5.002   8.264 -0.3502  0.0528  0.0694
  726loPI   C5A10263  12.185   5.062   8.697 -0.0046  0.1788  0.1598
  726loPI   C6A10264  12.585   5.002   8.766  0.0597 -0.2233  0.1542
  726loPI   C1B10265  12.471   5.269   7.024  0.0024 -0.1361  0.2453
  726loPI   C2B10266  12.454   5.204   7.436  0.1559 -0.1108 -0.0692
  726loPI   C3B10267  12.582   5.274   7.874 -0.1227  0.0094 -0.2319
  726loPI   C4B10268  12.466   5.291   8.285 -0.1500 -0.3001  0.2491
  727loPI    C110269   1.662   6.231   5.623 -0.2231 -0.2865 -0.1381
  727loPI    C210270   1.934   5.939   5.652 -0.0939 -0.1735 -0.2010
  727loPI    C310271   1.809   6.061   5.292  0.0805  0.0565 -0.1859
  727loPI   PO410272   1.711   6.344   5.805  0.1739  0.0226  0.0995
  727loPI   GL110273   1.532   6.410   6.171  0.0765  0.0337 -0.0396
  727loPI   GL210274   1.729   6.623   6.322 -0.0860  0.0310 -0.0607
  727loPI   C1A10275   1.375   6.272   6.526  0.0931 -0.0544  0.0870
  727loPI   C2A10276   1.243   6.325   6.946  0.1643  0.0247  0.2606
  727loPI   C3A10277   1.233   6.311   7.415 -0.1131  0.0148  0.2035
  727loPI   C4A10278   1.231   6.379   7.864  0.0477  0.3842  0.3124
  727loPI   C5A10279   1.258   6.239   8.253 -0.2047 -0.1170  0.0029
  727loPI   C6A10280   1.613   5.980   8.432 -0.1096  0.0600 -0.0935
  727loPI   C1B10281   1.966   6.520   6.667 -0.0568 -0.1052  0.1119
  727loPI   C2B10282   2.115   6.623   7.111  0.0488  0.0189 -0.2616
  727loPI   C3B10283   1.862   6.560   7.550 -0.3188 -0.0889 -0.0638
  727loPI   C4B10284   1.741   6.503   7.905 -0.1809  0.0874 -0.5355
  728loPI    C110285  16.377  15.795   5.848 -0.0214 -0.2948 -0.0918
  728loPI    C210286  16.377  15.446   5.653 -0.1020 -0.1657 -0.3271
  728loPI    C310287  16.477  15.782   5.461  0.0817 -0.0727 -0.0741
  728loPI   PO410288  16.404  15.692   6.094 -0.3151 -0.0341  0.0069
  728loPI   GL110289  16.466  15.508   6.464  0.2177  0.0443  0.0477
  728loPI   GL210290  16.531  15.883   6.524 -0.2305 -0.0003  0.1160
  728loPI   C1A10291  16.473  15.347   6.898  0.1224  0.0052  0.2096
  728loPI   C2A10292  16.524  15.360   7.408  0.0433 -0.2762 -0.3189
  728loPI   C3A10293  16.555  15.260   7.822 -0.1324 -0.0150 -0.0297
  728loPI   C4A10294  16.633  15.323   8.315 -0.2075  0.1337 -0.0402
  728loPI   C5A10295  16.872  15.545   8.627  0.2977  0.2123  0.0790
  728loPI   C6A10296  17.250  15.716   8.772 -0.3131 -0.0315  0.2845
  728loPI   C1B10297  16.581  15.824   7.046 -0.0368 -0.2121  0.1504
  728loPI   C2B10298  16.674  15.895   7.522  0.0306  0.2678  0.0724
  728loPI   C3B10299  16.618  15.768   7.927  0.0891  0.2373  0.0813
  728loPI   C4B10300  16.518  15.899   8.312 -0.3562 -0.0861  0.1309
  729loPI    C110301  10.834   8.175   6.296 -0.0975 -0.0472  0.0573
  729loPI    C210302  10.463   8.078   6.409 -0.1305 -0.0989 -0.0930
  729loPI    C310303  10.598   7.968   6.048 -0.0445  0.1079 -0.1257
  729loPI   PO410304  10.979   8.146   6.487  0.1665  0.0028  0.0709
  729loPI   GL110305  11.148   8.155   6.896 -0.1921  0.0676 -0.2097
  729loPI   GL210306  11.365   8.240   6.763 -0.1494  0.1319 -0.1827
  729loPI   C1A10307  11.032   8.217   7.358  0.0075  0.1989  0.2356
  729loPI   C2A10308  11.092   8.148   7.878 -0.0621 -0.3288  0.1764
  729loPI   C3A10309  11.075   8.179   8.289 -0.0041  0.1772  0.1322
  729loPI   C4A10310  10.998   8.041   8.663 -0.1592 -0.0398  0.0435
  729loPI   C5A10311  11.121   7.856   9.092  0.2024  0.0295 -0.2467
  729loPI   C6A10312  11.520   7.796   9.253 -0.0163  0.1191 -0.0662
  729loPI   C1B10313  11.508   8.375   7.151  0.1515  0.3029  0.0588
  729loPI   C2B10314  11.468   8.329   7.620 -0.1286 -0.0373 -0.1307
  729loPI   C3B10315  11.567   8.271   7.965 -0.0843  0.0839 -0.1507
  729loPI   C4B10316  11.664   8.269   8.453 -0.3018  0.0565  0.0329
  730loPI    C110317   6.724   3.547   6.289  0.0310  0.2354 -0.0654
  730loPI    C210318   6.503   3.693   5.989 -0.0635 -0.1971 -0.2134
  730loPI    C310319   6.802   3.438   5.912  0.2437  0.0837  0.0201
  730loPI   PO410320   6.650   3.430   6.451 -0.1206  0.0412 -0.2080
  730loPI   GL110321   6.683   3.587   6.868  0.1169  0.1715  0.0892
  730loPI   GL210322   6.849   3.678   7.086  0.0062  0.1063  0.0973
  730loPI   C1A10323   6.555   3.227   7.232 -0.3469  0.1090  0.1910
  730loPI   C2A10324   6.487   3.172   7.651  0.0787  0.0483 -0.2705
  730loPI   C3A10325   6.499   3.105   8.056  0.0695 -0.1634 -0.0101
  730loPI   C4A10326   6.293   3.133   8.463  0.0607 -0.1389  0.1664
  730loPI   C5A10327   6.066   3.311   8.903 -0.2096 -0.1299  0.0913
  730loPI   C6A10328   5.805   3.640   9.152  0.0825 -0.0551 -0.0218
  730loPI   C1B10329   6.748   3.665   7.545  0.0880  0.1382  0.0404
  730loPI   C2B10330   6.803   3.478   7.845  0.4145 -0.1625 -0.3304
  730loPI   C3B10331   6.801   3.443   8.272  0.0284 -0.2119 -0.0245
  730loPI   C4B10332   6.946   3.340   8.571 -0.2011 -0.0401  0.1758
  731loPI    C110333  11.539  15.310   6.091 -0.2487  0.1330 -0.0657
  731loPI    C210334  11.441  15.215   5.715 -0.0194 -0.1492 -0.0585
  731loPI    C310335  11.805  15.361   5.796 -0.0846 -0.0443  0.0491
  731loPI   PO410336  11.280  15.404   6.150 -0.0357  0.2087 -0.0373
  731loPI   GL110337  11.213  15.522   6.583  0.3151  0.2712 -0.0024
  731loPI   GL210338  10.882  15.756   6.671 -0.3224 -0.0347  0.0263
  731loPI   C1A10339  11.260  15.636   6.930 -0.2089  0.0031  0.0528
  731loPI   C2A10340  11.184  15.527   7.289 -0.1667 -0.0593 -0.1256
  731loPI   C3A10341  11.102  15.514   7.685  0.3448 -0.0776  0.2472
  731loPI   C4A10342  11.122  15.534   8.102  0.1298 -0.1914 -0.1486
  731loPI   C5A10343  11.239  15.402   8.544 -0.0316  0.0085 -0.1240
  731loPI   C6A10344  11.276  15.388   8.967 -0.0382 -0.0617  0.0310
  731loPI   C1B10345  10.752  15.927   7.041 -0.1626 -0.1798  0.2087
  731loPI   C2B10346  10.674  15.984   7.463  0.2961  0.2656  0.0525
  731loPI   C3B10347  10.730  15.848   7.849  0.1076  0.0733 -0.0914
  731loPI   C4B10348  10.755  15.816   8.320 -0.3539  0.1375 -0.1868
  732loPI    C110349  15.728   3.085   6.076 -0.1186  0.4040 -0.0829
  732loPI    C210350  15.768   2.777   5.824 -0.0545  0.1570  0.2230
  732loPI    C310351  15.763   3.151   5.683 -0.1425  0.0182 -0.1539
  732loPI   PO410352  15.782   2.954   6.325  0.2694  0.4085 -0.1079
  732loPI   GL110353  15.540   2.782   6.680 -0.2508 -0.4801  0.0401
  732loPI   GL210354  15.258   2.671   6.679 -0.0729 -0.0329  0.0885
  732loPI   C1A10355  15.761   2.731   6.943 -0.0990  0.0105  0.1919
  732loPI   C2A10356  15.824   2.730   7.374 -0.0236 -0.0760  0.2498
  732loPI   C3A10357  15.762   2.653   7.782  0.1721 -0.5060 -0.1659
  732loPI   C4A10358  15.864   2.661   8.189 -0.1614  0.0969 -0.0375
  732loPI   C5A10359  16.014   2.475   8.497 -0.3214  0.1121  0.1914
  732loPI   C6A10360  15.939   2.128   8.672  0.0024  0.5136  0.2695
  732loPI   C1B10361  15.318   2.720   7.210 -0.0626 -0.2035  0.0009
  732loPI   C2B10362  15.256   2.769   7.535 -0.2922 -0.3576  0.0723
  732loPI   C3B10363  15.416   2.931   7.898 -0.2854 -0.1876 -0.1695
  732loPI   C4B10364  15.314   3.051   8.265  0.1842  0.1880 -0.0154
  733loPI    C110365   0.255   7.889   5.640  0.1132  0.4284 -0.1261
  733loPI    C210366  -0.011   7.809   5.352 -0.2186  0.2810  0.2132
  733loPI    C310367   0.289   7.554   5.423 -0.2835  0.1908  0.1653
  733loPI   PO410368   0.046   7.997   5.859  0.2662  0.1291 -0.1179
  733loPI   GL110369  -0.161   8.082   6.220  0.3415 -0.0513 -0.1993
  733loPI   GL210370   0.098   8.188   6.284 -0.0016  0.0009  0.0100
  733loPI   C1A10371  -0.346   8.076   6.642  0.1808  0.0859 -0.0976
  733loPI   C2A10372  -0.311   8.085   7.022  0.2935 -0.0695  0.1933
  733loPI   C3A10373  -0.299   8.051   7.483  0.0728 -0.1320 -0.2105
  733loPI   C4A10374  -0.183   8.156   7.815 -0.1621 -0.1352 -0.1057
  733loPI   C5A10375  -0.191   8.221   8.197 -0.1024 -0.0925  0.1001
  733loPI   C6A10376  -0.237   8.122   8.609 -0.3090 -0.1223  0.3705
  733loPI   C1B10377   0.108   8.303   6.701 -0.2302 -0.1669 -0.1362
  733loPI   C2B10378   0.186   8.161   7.126 -0.3333  0.2968  0.0370
  733loPI   C3B10379   0.250   8.340   7.561 -0.2368  0.0548 -0.0167
  733loPI   C4B10380   0.227   8.360   7.987 -0.1029 -0.3583 -0.0374
  734loPI    C110381  13.275  10.072   5.777  0.2437 -0.0427  0.0978
  734loPI    C210382  13.231  10.461   5.697 -0.2983 -0.0979  0.0953
  734loPI    C310383  13.201  10.191   5.403  0.5261 -0.1249  0.0127
  734loPI   PO410384  13.271  10.021   6.057 -0.1769 -0.0409  0.0519
  734loPI   GL110385  12.983  10.079   6.412 -0.0702  0.2472 -0.0563
  734loPI   GL210386  12.789  10.259   6.264 -0.4310 -0.3077  0.0415
  734loPI   C1A10387  13.035   9.936   6.710 -0.4906 -0.0987 -0.0085
  734loPI   C2A10388  13.006   9.960   7.107  0.2912 -0.3845  0.1002
  734loPI   C3A10389  13.110   9.954   7.561 -0.1058  0.0860 -0.3359
  734loPI   C4A10390  13.150   9.914   7.911  0.3127 -0.2550 -0.4449
  734loPI   C5A10391  13.098   9.956   8.333  0.1324 -0.3226  0.2041
  734loPI   C6A10392  13.004  10.012   8.719 -0.1459 -0.2255 -0.0958
  734loPI   C1B10393  12.581  10.286   6.727 -0.0821 -0.2125 -0.2490
  734loPI   C2B10394  12.624  10.301   7.172  0.3481 -0.1873 -0.1526
  734loPI   C3B10395  12.690  10.208   7.554 -0.0255 -0.4373 -0.0496
  734loPI   C4B10396  12.749  10.300   7.980  0.0888 -0.1794  0.3060
  735loPI    C110397  13.503   6.852   6.037  0.0254 -0.2247  0.1237
  735loPI    C210398  13.336   6.763   5.685  0.0669 -0.1946  0.0964
  735loPI    C310399  13.591   7.070   5.713 -0.2871  0.0936  0.2457
  735loPI   PO410400  13.624   6.642   6.076 -0.1615 -0.2327  0.1728
  735loPI   GL110401  13.484   6.409   6.408  0.0726 -0.2394  0.0216
  735loPI   GL210402  13.771   6.433   6.533 -0.3424  0.1107  0.2152
  735loPI   C1A10403  13.461   6.176   6.822  0.0341  0.1144  0.0840
  735loPI   C2A10404  13.419   6.146   7.285 -0.1761 -0.2695  0.1900
  735loPI   C3A10405  13.495   6.223   7.767 -0.0582  0.0779 -0.1595
  735loPI   C4A10406  13.564   6.087   8.149 -0.1750  0.0040 -0.1380
  735loPI   C5A10407  13.719   5.897   8.616 -0.0642  0.1090  0.3071
  735loPI   C6A10408  13.692   5.910   9.027 -0.0185  0.1936  0.2636
  735loPI   C1B10409  13.919   6.395   7.055 -0.0193  0.1098  0.1274
  735loPI   C2B10410  13.982   6.438   7.576 -0.0722 -0.0692  0.1084
  735loPI   C3B10411  14.017   6.362   7.947  0.2436 -0.0287 -0.2348
  735loPI   C4B10412  14.000   6.413   8.344  0.0216 -0.0012 -0.0872
  736loPI    C110413  14.970   2.941   6.253 -0.1421  0.2463 -0.1630
  736loPI    C210414  15.297   2.724   6.175 -0.0195  0.2245  0.3705
  736loPI    C310415  15.237   3.071   5.985  0.0976  0.0298 -0.0345
  736loPI   PO410416  14.959   2.934   6.435  0.1482  0.2235 -0.1883
  736loPI   GL110417  14.766   3.125   6.697  0.3631  0.1067  0.0658
  736loPI   GL210418  14.812   3.405   6.839  0.0255  0.1269  0.0281
  736loPI   C1A10419  14.494   3.119   7.069  0.1584  0.1393  0.3418
  736loPI   C2A10420  14.443   3.216   7.408 -0.0439  0.3351  0.0999
  736loPI   C3A10421  14.488   3.167   7.865  0.0079 -0.3217  0.2497
  736loPI   C4A10422  14.541   3.095   8.238 -0.1027  0.1790  0.0277
  736loPI   C5A10423  14.502   3.137   8.668  0.0344 -0.0520 -0.0524
  736loPI   C6A10424  14.421   3.473   8.940  0.0492  0.3082  0.0648
  736loPI   C1B10425  14.568   3.601   7.183  0.0895  0.1437  0.1155
  736loPI   C2B10426  14.482   3.633   7.688 -0.1910  0.0934 -0.0113
  736loPI   C3B10427  14.577   3.593   8.226 -0.2722  0.1403  0.0035
  736loPI   C4B10428  14.733   3.716   8.643 -0.1136  0.3191 -0.1011
  737loPI    C110429   7.091   5.721   6.174  0.1441  0.0237 -0.1492
  737loPI    C210430   7.234   5.734   6.547 -0.2907  0.0963  0.0214
  737loPI    C310431   7.427   5.923   6.252  0.0641  0.0277  0.2039
  737loPI   PO410432   6.838   5.500   6.260 -0.4553 -0.0563 -0.0133
  737loPI   GL110433   6.760   5.437   6.671  0.1239  0.0308  0.1894
  737loPI   GL210434   6.951   5.184   6.718  0.0492  0.4390 -0.2421
  737loPI   C1A10435   6.604   5.445   7.062  0.0949  0.0339  0.4605
  737loPI   C2A10436   6.735   5.436   7.450  0.3694  0.2949  0.1184
  737loPI   C3A10437   6.765   5.446   7.905 -0.0001  0.1752 -0.1302
  737loPI   C4A10438   6.690   5.393   8.456 -0.1990  0.1017 -0.0938
  737loPI   C5A10439   6.788   5.310   8.862  0.1921  0.0107  0.1590
  737loPI   C6A10440   6.578   4.990   9.109 -0.0313  0.0969  0.1647
  737loPI   C1B10441   6.935   5.072   7.127  0.1344  0.2719  0.0857
  737loPI   C2B10442   6.944   4.991   7.548 -0.1634 -0.1527 -0.1506
  737loPI   C3B10443   6.923   4.997   8.072 -0.3890 -0.2019  0.0039
  737loPI   C4B10444   6.975   4.939   8.362 -0.2000 -0.0792 -0.2156
  738loPI    C110445  15.106   8.966   5.800  0.1853  0.0174  0.0634
  738loPI    C210446  15.080   9.105   5.426 -0.0951  0.0905  0.1082
  738loPI    C310447  15.428   9.123   5.621 -0.0056  0.2705 -0.0644
  738loPI   PO410448  14.915   9.114   5.927 -0.3078  0.0835  0.1136
  738loPI   GL110449  15.006   9.288   6.283  0.0273  0.2900 -0.1310
  738loPI   GL210450  15.213   9.425   6.528 -0.0098  0.1687 -0.0394
  738loPI   C1A10451  14.743   9.234   6.661 -0.0052  0.0235 -0.0430
  738loPI   C2A10452  14.682   9.211   7.120  0.0648 -0.0283  0.1090
  738loPI   C3A10453  14.771   9.151   7.442 -0.0569  0.0080  0.2673
  738loPI   C4A10454  14.833   9.158   7.837 -0.0059 -0.0199 -0.4380
  738loPI   C5A10455  15.017   9.136   8.190  0.0768 -0.1197 -0.0306
  738loPI   C6A10456  14.905   9.433   8.560 -0.1501  0.0264  0.0970
  738loPI   C1B10457  15.088   9.408   6.976  0.0539 -0.0442 -0.0300
  738loPI   C2B10458  15.264   9.356   7.354 -0.0312 -0.0356 -0.4299
  738loPI   C3B10459  15.388   9.385   7.788  0.0340 -0.0594 -0.2723
  738loPI   C4B10460  15.316   9.541   8.153 -0.1278  0.1049 -0.0928
  739loPI    C110461   5.530   0.882   5.865  0.1031  0.0344 -0.0294
  739loPI    C210462   5.722   0.564   5.715 -0.0199  0.0157 -0.1489
  739loPI    C310463   5.322   0.572   5.721 -0.0177  0.0365  0.1374
  739loPI   PO410464   5.614   0.967   6.142  0.1150  0.1530 -0.2288
  739loPI   GL110465   5.448   1.020   6.547  0.1191 -0.0665 -0.2210
  739loPI   GL210466   5.462   1.338   6.620  0.2784 -0.1475  0.0459
  739loPI   C1A10467   5.427   0.738   6.955  0.0194 -0.0568  0.0573
  739loPI   C2A10468   5.345   0.817   7.412  0.2691  0.1012 -0.0099
  739loPI   C3A10469   5.292   0.886   7.902 -0.5090 -0.0073  0.0874
  739loPI   C4A10470   5.290   0.979   8.347  0.1428  0.1531  0.0856
  739loPI   C5A10471   5.172   0.923   8.719 -0.0473  0.2542  0.0638
  739loPI   C6A10472   5.162   1.185   9.027  0.2484  0.1962  0.1815
  739loPI   C1B10473   5.635   1.211   7.031  0.0189 -0.0878  0.0132
  739loPI   C2B10474   5.653   1.161   7.475 -0.0844 -0.2806 -0.1333
  739loPI   C3B10475   5.580   1.420   7.844  0.2338  0.2205 -0.3156
  739loPI   C4B10476   5.534   1.361   8.236 -0.0840  0.2646  0.3901
  740loPI    C110477   9.335   2.016   6.336 -0.2096 -0.0897 -0.0087
  740loPI    C210478   9.569   1.842   6.062  0.1150 -0.1051  0.2718
  740loPI    C310479   9.368   2.176   5.971  0.2952 -0.0558  0.0449
  740loPI   PO410480   9.442   1.891   6.663 -0.0398 -0.2147  0.1527
  740loPI   GL110481   9.552   1.964   6.990  0.1230 -0.2274  0.0876
  740loPI   GL210482   9.669   1.881   7.183 -0.0930  0.0156 -0.1689
  740loPI   C1A10483   9.268   2.244   7.271 -0.2972 -0.1488  0.0406
  740loPI   C2A10484   9.238   2.317   7.739  0.0713  0.1237 -0.2324
  740loPI   C3A10485   9.122   2.362   8.171  0.2082 -0.2826  0.1431
  740loPI   C4A10486   9.113   2.408   8.614  0.2516 -0.1280 -0.1861
  740loPI   C5A10487   9.354   2.356   8.927  0.0883 -0.0672  0.0202
  740loPI   C6A10488   9.382   2.182   9.344 -0.2056 -0.2623  0.3404
  740loPI   C1B10489   9.627   1.695   7.630 -0.0737 -0.0799  0.0460
  740loPI   C2B10490   9.670   1.861   8.040  0.0494 -0.1852 -0.0006
  740loPI   C3B10491   9.552   2.173   8.347  0.2240 -0.0184  0.1801
  740loPI   C4B10492   9.879   2.167   8.667 -0.1422 -0.0054  0.0866
  741loPI    C110493  11.185   9.123   5.742  0.1519  0.0071 -0.0457
  741loPI    C210494  11.574   9.039   5.709  0.1639  0.0804 -0.0898
  741loPI    C310495  11.393   9.262   5.431  0.0880  0.0377 -0.0749
  741loPI   PO410496  11.226   9.171   6.093  0.2410  0.0851 -0.0764
  741loPI   GL110497  11.158   9.106   6.520 -0.1731 -0.0926  0.2070
  741loPI   GL210498  11.409   9.145   6.577 -0.1204 -0.0630 -0.0399
  741loPI   C1A10499  10.967   9.193   6.963 -0.0072  0.1499 -0.2586
  741loPI   C2A10500  10.944   9.192   7.475  0.1255 -0.3401 -0.0383
  741loPI   C3A10501  11.046   9.145   7.868 -0.1661 -0.2229 -0.1634
  741loPI   C4A10502  11.245   9.084   8.282 -0.0717 -0.0982 -0.2044
  741loPI   C5A10503  11.688   9.179   8.559 -0.0242  0.1973 -0.0073
  741loPI   C6A10504  11.894   9.120   9.039 -0.0527  0.1122  0.2258
  741loPI   C1B10505  11.526   9.295   6.899  0.1330 -0.0412 -0.1967
  741loPI   C2B10506  11.590   9.410   7.316  0.1828  0.4241 -0.3636
  741loPI   C3B10507  11.721   9.403   7.766  0.1014  0.0203 -0.0561
  741loPI   C4B10508  11.692   9.419   8.148  0.0582 -0.1074 -0.1268
  742loPI    C110509  12.510  16.687   6.067 -0.1757 -0.3882 -0.0942
  742loPI    C210510  12.443  16.812   5.692  0.0586 -0.0427 -0.0263
  742loPI    C310511  12.801  16.869   5.861 -0.0537 -0.1691  0.2624
  742loPI   PO410512  12.366  16.752   6.203  0.1417  0.2099 -0.3457
  742loPI   GL110513  12.259  16.890   6.672 -0.0452  0.1510  0.0824
  742loPI   GL210514  12.166  16.594   6.706  0.0251 -0.3308  0.0006
  742loPI   C1A10515  12.142  17.118   7.040 -0.0544 -0.3042  0.0461
  742loPI   C2A10516  12.201  17.034   7.453 -0.2733  0.1483  0.3025
  742loPI   C3A10517  12.173  16.926   7.863 -0.1248 -0.2493  0.1844
  742loPI   C4A10518  12.211  16.945   8.331 -0.0220  0.0448  0.0677
  742loPI   C5A10519  12.526  16.924   8.689 -0.4054 -0.0389 -0.4782
  742loPI   C6A10520  12.889  17.044   8.856 -0.1336 -0.1618  0.2099
  742loPI   C1B10521  12.220  16.609   7.164 -0.0026  0.1190 -0.0347
  742loPI   C2B10522  12.133  16.554   7.544 -0.1425  0.1732  0.3496
  742loPI   C3B10523  12.094  16.400   7.884 -0.0775  0.4278  0.1432
  742loPI   C4B10524  12.096  16.450   8.391  0.0361 -0.0477  0.0656
  743loPI    C110525   5.087  10.117   6.106  0.0855  0.1039  0.0968
  743loPI    C210526   5.109   9.731   6.003  0.1139  0.1256  0.0208
  743loPI    C310527   4.887   9.983   5.786  0.0488  0.1406  0.1043
  743loPI   PO410528   5.148  10.178   6.313 -0.0845 -0.0953 -0.0275
  743loPI   GL110529   5.262  10.190   6.753 -0.0389  0.2914  0.1697
  743loPI   GL210530   4.970  10.156   6.800  0.3906  0.2331 -0.3798
  743loPI   C1A10531   5.246  10.005   7.201  0.1794 -0.0417 -0.1981
  743loPI   C2A10532   5.211   9.903   7.585 -0.0519 -0.0131  0.0803
  743loPI   C3A10533   5.130   9.954   7.983 -0.0004 -0.0561  0.1049
  743loPI   C4A10534   5.062   9.832   8.371 -0.0141  0.0054 -0.2781
  743loPI   C5A10535   4.736   9.824   8.759  0.0949 -0.0498  0.2988
  743loPI   C6A10536   4.518   9.510   8.986 -0.0513  0.0318  0.2249
  743loPI   C1B10537   4.759  10.215   7.174 -0.2217 -0.1316  0.2956
  743loPI   C2B10538   4.784  10.216   7.615  0.0679  0.2214  0.1536
  743loPI   C3B10539   5.057  10.536   7.956 -0.1292 -0.1355 -0.1101
  743loPI   C4B10540   5.033  10.956   8.156  0.0316 -0.1710  0.1265
  744loPI    C110541   7.939  15.158   6.066 -0.1268 -0.1205  0.0346
  744loPI    C210542   7.852  15.480   5.845 -0.0515 -0.0681  0.0814
  744loPI    C310543   8.233  15.391   5.929 -0.0827 -0.0537  0.2408
  744loPI   PO410544   7.758  15.185   6.281  0.0245 -0.2990 -0.0478
  744loPI   GL110545   7.564  15.246   6.677 -0.0439 -0.0666 -0.1090
  744loPI   GL210546   7.815  15.147   6.748  0.0366  0.1202 -0.2602
  744loPI   C1A10547   7.508  15.376   7.097  0.2554  0.0159  0.1206
  744loPI   C2A10548   7.515  15.406   7.514 -0.0527 -0.1368  0.2136
  744loPI   C3A10549   7.417  15.377   8.011 -0.2007  0.1531  0.2927
  744loPI   C4A10550   7.520  15.369   8.441  0.3389  0.0034 -0.0074
  744loPI   C5A10551   7.677  15.313   8.876 -0.0191  0.1182  0.1106
  744loPI   C6A10552   7.721  15.725   9.115 -0.3788  0.4435 -0.0835
  744loPI   C1B10553   7.871  15.107   7.210  0.2772 -0.2292 -0.1839
  744loPI   C2B10554   7.794  15.002   7.592 -0.1852  0.0365  0.2589
  744loPI   C3B10555   7.724  14.956   8.000  0.0670  0.0467  0.0515
  744loPI   C4B10556   7.746  14.945   8.449  0.0651 -0.0641 -0.0055
  745loPI    C110557   1.693  16.307   6.185 -0.1814  0.0775  0.1422
  745loPI    C210558   1.501  16.488   5.885  0.0659  0.0461 -0.0382
  745loPI    C310559   1.626  16.110   5.843  0.0619  0.0264  0.1216
  745loPI   PO410560   1.621  16.303   6.414  0.1312 -0.3972 -0.1201
  745loPI   GL110561   1.855  16.297   6.741 -0.0081 -0.1385 -0.1070
  745loPI   GL210562   2.177  16.201   6.807  0.0829  0.1924 -0.5281
  745loPI   C1A10563   1.824  16.393   7.155  0.3450 -0.1255 -0.0401
  745loPI   C2A10564   1.873  16.395   7.587  0.2063  0.2360  0.0006
  745loPI   C3A10565   1.736  16.453   7.994 -0.0782  0.1928  0.2180
  745loPI   C4A10566   1.777  16.305   8.446 -0.1635  0.0152  0.0434
  745loPI   C5A10567   1.806  15.952   8.724 -0.0394  0.3037 -0.1362
  745loPI   C6A10568   1.960  15.598   8.749 -0.1156  0.2758 -0.1650
  745loPI   C1B10569   2.232  16.083   7.268  0.3132 -0.1849  0.0867
  745loPI   C2B10570   2.239  16.036   7.733  0.0052  0.1306 -0.0230
  745loPI   C3B10571   2.222  15.984   8.200 -0.2214  0.1545  0.0731
  745loPI   C4B10572   2.281  16.077   8.581 -0.0449 -0.1132  0.2767
  746loPI    C110573   4.679   4.671   6.340  0.0412  0.0975  0.0550
  746loPI    C210574   4.868   4.810   6.015 -0.0275  0.0641  0.0005
  746loPI    C310575   4.496   4.666   5.984  0.1000 -0.2806  0.0264
  746loPI   PO410576   4.816   4.791   6.517 -0.0448 -0.2313  0.0815
  746loPI   GL110577   4.753   5.121   6.813  0.1455 -0.1105  0.0590
  746loPI   GL210578   4.913   4.915   7.007  0.0340  0.0691 -0.2686
  746loPI   C1A10579   4.754   5.371   7.138  0.0951  0.1663 -0.0121
  746loPI   C2A10580   4.722   5.409   7.562  0.0320 -0.1466 -0.3586
  746loPI   C3A10581   4.624   5.360   7.949  0.3242 -0.0686 -0.1845
  746loPI   C4A10582   4.685   5.394   8.468  0.0999 -0.0120 -0.0681
  746loPI   C5A10583   4.567   5.153   8.821  0.0789 -0.1054  0.1948
  746loPI   C6A10584   4.404   4.779   8.938  0.0301 -0.3736 -0.1251
  746loPI   C1B10585   4.912   4.847   7.458 -0.0054  0.1697 -0.0457
  746loPI   C2B10586   4.918   4.865   7.931  0.1939  0.0979 -0.1917
  746loPI   C3B10587   4.884   4.933   8.361 -0.1944 -0.2429  0.1864
  746loPI   C4B10588   4.906   4.738   8.849 -0.1343 -0.1165  0.3246
  747loPI    C110589  15.799   1.357   5.759  0.0117 -0.0481  0.0510
  747loPI    C210590  15.765   1.584   5.432 -0.0769 -0.0660  0.0472
  747loPI    C310591  15.978   1.246   5.419  0.0614  0.0200  0.0548
  747loPI   PO410592  15.880   1.521   5.989  0.2935  0.0297  0.1303
  747loPI   GL110593  16.075   1.489   6.513  0.1263 -0.0385 -0.3821
  747loPI   GL210594  15.978   1.210   6.467  0.2398 -0.1054  0.2926
  747loPI   C1A10595  16.203   1.366   6.963 -0.0688 -0.2739  0.1156
  747loPI   C2A10596  16.215   1.360   7.458 -0.3466 -0.0451 -0.0682
  747loPI   C3A10597  16.139   1.380   7.911 -0.0647 -0.0436 -0.2711
  747loPI   C4A10598  15.809   1.517   8.120 -0.1712  0.0526  0.2905
  747loPI   C5A10599  15.783   1.614   8.583  0.2618 -0.0385 -0.2939
  747loPI   C6A10600  16.067   1.770   8.933 -0.3064  0.0279  0.1085
  747loPI   C1B10601  16.143   0.885   6.793  0.1289  0.0935 -0.0639
  747loPI   C2B10602  16.102   0.863   7.232  0.3346  0.2485  0.1129
  747loPI   C3B10603  16.105   0.897   7.650  0.1026 -0.0936  0.0167
  747loPI   C4B10604  16.027   0.699   8.067  0.0231  0.2845  0.1803
  748loPI    C110605   1.171   5.384   5.788 -0.0743 -0.2343 -0.0368
  748loPI    C210606   1.336   5.028   5.864 -0.1328 -0.1833  0.3488
  748loPI    C310607   0.974   5.048   5.695 -0.0387 -0.3019  0.1291
  748loPI   PO410608   1.296   5.457   6.053 -0.1073  0.0950  0.2020
  748loPI   GL110609   1.451   5.363   6.402 -0.1596  0.0460 -0.0460
  748loPI   GL210610   1.241   5.325   6.585  0.5870  0.3648  0.2832
  748loPI   C1A10611   1.664   5.554   6.808 -0.3157 -0.2569 -0.0621
  748loPI   C2A10612   1.763   5.557   7.280  0.3492 -0.0289 -0.1211
  748loPI   C3A10613   1.612   5.491   7.760 -0.0669  0.3537  0.1748
  748loPI   C4A10614   1.520   5.466   8.160  0.3395 -0.1760  0.0093
  748loPI   C5A10615   1.341   5.258   8.502  0.0463  0.0870  0.1841
  748loPI   C6A10616   1.336   4.777   8.629 -0.1471  0.1357 -0.5268
  748loPI   C1B10617   1.107   5.446   7.002 -0.0054  0.2480 -0.1455
  748loPI   C2B10618   1.035   5.490   7.376  0.0657  0.1578  0.3859
  748loPI   C3B10619   1.039   5.344   7.644 -0.1322 -0.3224 -0.1149
  748loPI   C4B10620   1.081   5.236   8.086  0.1285 -0.0693 -0.4534
  749loPI    C110621  10.829   8.647   6.131  0.1606  0.0612  0.0993
  749loPI    C210622  10.537   8.432   5.962  0.0953 -0.0735  0.3775
  749loPI    C310623  10.734   8.705   5.747 -0.0247 -0.1992  0.1027
  749loPI   PO410624  10.764   8.748   6.304  0.1895  0.0641 -0.1204
  749loPI   GL110625  10.715   8.495   6.735  0.3232  0.0048  0.3817
  749loPI   GL210626  10.947   8.751   6.776 -0.1608  0.1051  0.3626
  749loPI   C1A10627  10.643   8.309   7.095 -0.1572 -0.1680  0.3403
  749loPI   C2A10628  10.563   8.361   7.540 -0.2647 -0.1690 -0.2860
  749loPI   C3A10629  10.635   8.424   7.907 -0.0976  0.2790  0.0054
  749loPI   C4A10630  10.656   8.484   8.359  0.1900  0.2391 -0.1208
  749loPI   C5A10631  10.566   8.494   8.820  0.1476 -0.0145 -0.3767
  749loPI   C6A10632  10.274   8.659   9.146 -0.1531 -0.0911  0.1360
  749loPI   C1B10633  11.047   8.658   7.186 -0.0769  0.1948 -0.1328
  749loPI   C2B10634  10.977   8.688   7.535  0.1242 -0.2321  0.1794
  749loPI   C3B10635  11.138   8.659   7.836  0.0790  0.1682 -0.2056
  749loPI   C4B10636  11.209   8.602   8.245  0.1790 -0.0111  0.2056
  750loPI    C110637  14.549   3.137   6.068  0.2505 -0.1907  0.0779
  750loPI    C210638  14.270   3.174   5.784  0.2367 -0.0797  0.1052
  750loPI    C310639  14.344   2.816   5.946  0.1284 -0.1144  0.0795
  750loPI   PO410640  14.524   3.322   6.279  0.0168 -0.1186  0.1246
  750loPI   GL110641  14.319   3.412   6.582  0.1776  0.3249 -0.2243
  750loPI   GL210642  14.196   3.744   6.543 -0.3761  0.1055 -0.1298
  750loPI   C1A10643  14.128   3.470   7.042 -0.1668  0.2681  0.2338
  750loPI   C2A10644  14.030   3.545   7.490  0.0292  0.1284 -0.1251
  750loPI   C3A10645  14.100   3.505   7.948  0.1533  0.1645 -0.0237
  750loPI   C4A10646  14.140   3.372   8.405  0.2706  0.1652  0.0550
  750loPI   C5A10647  13.907   3.358   8.766  0.1627  0.2882  0.1562
  750loPI   C6A10648  13.823   3.225   9.319  0.0443  0.1090  0.1399
  750loPI   C1B10649  14.360   3.884   6.873  0.0252 -0.1059  0.2907
  750loPI   C2B10650  14.216   3.980   7.324 -0.1746  0.1492  0.0389
  750loPI   C3B10651  14.053   4.092   7.765  0.2131  0.2394 -0.1540
  750loPI   C4B10652  14.107   3.941   8.214 -0.1984  0.0566  0.0171
  751loPI    C110653   5.942   9.475   6.240  0.0674  0.0331 -0.1217
  751loPI    C210654   5.770   9.676   5.939  0.2597  0.1000 -0.1882
  751loPI    C310655   6.157   9.574   5.917  0.3339  0.2998  0.1315
  751loPI   PO410656   5.925   9.585   6.456 -0.1308 -0.0461  0.1742
  751loPI   GL110657   6.116   9.628   6.825 -0.0532 -0.2198  0.0292
  751loPI   GL210658   6.189   9.908   6.873 -0.1395 -0.0375  0.1764
  751loPI   C1A10659   5.837   9.492   7.081  0.0284 -0.1709 -0.0525
  751loPI   C2A10660   5.910   9.502   7.511  0.4048  0.1457 -0.1851
  751loPI   C3A10661   5.960   9.504   7.914 -0.1249  0.1202 -0.0990
  751loPI   C4A10662   5.945   9.548   8.342 -0.0604 -0.0837 -0.3950
  751loPI   C5A10663   5.836   9.480   8.746  0.0532 -0.2821  0.0573
  751loPI   C6A10664   5.478   9.588   8.901 -0.0009  0.0265  0.1921
  751loPI   C1B10665   6.230   9.904   7.303 -0.0731 -0.0719 -0.2224
  751loPI   C2B10666   6.224   9.908   7.712 -0.0316  0.2159  0.0726
  751loPI   C3B10667   6.178   9.915   8.136  0.2852  0.0711 -0.0836
  751loPI   C4B10668   6.219   9.974   8.593  0.0167 -0.0182  0.1276
  752loPI    C110669  12.829  10.686   5.947  0.0547  0.0721  0.1373
  752loPI    C210670  12.911  10.815   5.577  0.2742 -0.2099  0.0844
  752loPI    C310671  12.538  10.706   5.673  0.1837  0.0141 -0.0052
  752loPI   PO410672  12.974  10.852   6.083  0.0553 -0.1320 -0.1512
  752loPI   GL110673  13.237  11.036   6.363 -0.3424  0.2935 -0.2887
  752loPI   GL210674  13.154  11.313   6.387 -0.0237 -0.2342  0.0202
  752loPI   C1A10675  13.199  10.985   6.811  0.1449 -0.0900  0.1432
  752loPI   C2A10676  13.178  10.980   7.277  0.1201 -0.1183  0.0157
  752loPI   C3A10677  13.149  10.965   7.689  0.2429  0.0271  0.0360
  752loPI   C4A10678  13.164  11.020   8.042  0.1495  0.1662 -0.4124
  752loPI   C5A10679  13.252  11.056   8.544  0.0434 -0.0782 -0.0403
  752loPI   C6A10680  13.475  11.441   8.756 -0.0712 -0.0397  0.1181
  752loPI   C1B10681  13.358  11.517   6.812  0.2149 -0.0233 -0.0897
  752loPI   C2B10682  13.196  11.478   7.288  0.1254  0.0003  0.1895
  752loPI   C3B10683  13.244  11.517   7.812  0.0352  0.0123  0.0811
  752loPI   C4B10684  13.344  11.450   8.268  0.0714 -0.0795  0.0717
  753loPI    C110685   6.431  10.340   6.094 -0.2847 -0.1662 -0.3836
  753loPI    C210686   6.760  10.121   6.029  0.0832  0.2472  0.0146
  753loPI    C310687   6.416  10.024   5.848  0.3401 -0.3813 -0.1650
  753loPI   PO410688   6.446  10.353   6.354 -0.3670 -0.1245 -0.1249
  753loPI   GL110689   6.557  10.294   6.638  0.0367 -0.1152  0.1757
  753loPI   GL210690   6.394  10.469   6.877  0.3415 -0.1160 -0.1563
  753loPI   C1A10691   6.708  10.027   6.974  0.0543 -0.2591  0.0786
  753loPI   C2A10692   6.689   9.968   7.423 -0.2430  0.2724 -0.1982
  753loPI   C3A10693   6.738   9.948   7.844 -0.0778 -0.0014  0.0092
  753loPI   C4A10694   6.773   9.919   8.311 -0.3025  0.3755 -0.0989
  753loPI   C5A10695   6.780   9.853   8.737  0.2564 -0.0501 -0.1222
  753loPI   C6A10696   6.779   9.733   9.121  0.2152 -0.5666  0.3016
  753loPI   C1B10697   6.415  10.355   7.256  0.1254 -0.1592 -0.2174
  753loPI   C2B10698   6.458  10.459   7.675 -0.0530  0.2365  0.1072
  753loPI   C3B10699   6.441  10.321   8.023  0.0333 -0.1539  0.0437
  753loPI   C4B10700   6.504  10.354   8.429 -0.0007 -0.0568  0.2637
  754loPI    C110701  13.378  16.859   6.030  0.0292  0.2850  0.2224
  754loPI    C210702  13.413  17.225   5.873  0.1375  0.1482 -0.0799
  754loPI    C310703  13.308  16.917   5.640  0.1658 -0.0354  0.1469
  754loPI   PO410704  13.556  16.787   6.209 -0.0805  0.2276 -0.3138
  754loPI   GL110705  13.428  16.872   6.571  0.0147 -0.0801 -0.2902
  754loPI   GL210706  13.148  16.917   6.736  0.0404 -0.1394  0.2384
  754loPI   C1A10707  13.622  17.120   6.993  0.1565  0.0382  0.1877
  754loPI   C2A10708  13.691  16.956   7.363 -0.0385 -0.2538  0.1159
  754loPI   C3A10709  13.515  16.981   7.786  0.0268  0.1930 -0.2030
  754loPI   C4A10710  13.542  17.050   8.228  0.4105 -0.0016  0.1600
  754loPI   C5A10711  13.541  17.179   8.653  0.0845  0.1307 -0.3189
  754loPI   C6A10712  13.743  17.530   8.670  0.0258 -0.3496  0.0719
  754loPI   C1B10713  13.159  16.973   7.193 -0.0631 -0.2914  0.2174
  754loPI   C2B10714  13.094  16.756   7.603 -0.1430  0.1529  0.1015
  754loPI   C3B10715  13.091  16.834   8.050 -0.1107  0.1437  0.1276
  754loPI   C4B10716  13.123  16.757   8.450 -0.0424 -0.1539 -0.0415
  755loPI    C110717  15.912  15.139   5.767 -0.0416 -0.0512  0.0709
  755loPI    C210718  15.619  15.088   5.500 -0.0611 -0.4054  0.1546
  755loPI    C310719  15.870  15.397   5.465 -0.4589 -0.0799  0.0979
  755loPI   PO410720  15.800  15.051   6.056  0.0689  0.0479 -0.2469
  755loPI   GL110721  15.584  15.172   6.450  0.1308 -0.0380 -0.0300
  755loPI   GL210722  15.225  15.362   6.569 -0.3101  0.3074  0.1027
  755loPI   C1A10723  15.965  15.157   6.827 -0.2983 -0.2127  0.0820
  755loPI   C2A10724  16.019  15.155   7.196 -0.0625  0.0203 -0.2233
  755loPI   C3A10725  16.074  15.148   7.603 -0.0024  0.0894 -0.3189
  755loPI   C4A10726  16.132  15.097   8.022 -0.2407 -0.0672  0.0638
  755loPI   C5A10727  16.154  15.269   8.418  0.0852 -0.3905 -0.1139
  755loPI   C6A10728  16.339  15.579   8.684  0.1323  0.1175  0.4225
  755loPI   C1B10729  15.150  15.383   7.014 -0.0356 -0.1797 -0.0794
  755loPI   C2B10730  15.194  15.328   7.363 -0.0761 -0.3432  0.1009
  755loPI   C3B10731  15.199  15.288   7.850  0.0306 -0.1326 -0.4052
  755loPI   C4B10732  15.150  15.329   8.419 -0.1425 -0.1340 -0.0084
  756loPI    C110733  14.706   8.715   5.659  0.2195 -0.0906  0.0351
  756loPI    C210734  14.364   8.895   5.761  0.1271 -0.1906 -0.0952
  756loPI    C310735  14.622   9.080   5.517  0.0704 -0.2000 -0.1626
  756loPI   PO410736  14.669   8.613   6.040  0.5226  0.1473 -0.1233
  756loPI   GL110737  14.511   8.520   6.310 -0.0069  0.0381 -0.2523
  756loPI   GL210738  14.582   8.179   6.273 -0.0323 -0.2847 -0.4140
  756loPI   C1A10739  14.615   8.735   6.787 -0.1670 -0.0974  0.1319
  756loPI   C2A10740  14.651   8.629   7.238  0.0118 -0.0931 -0.0288
  756loPI   C3A10741  14.659   8.674   7.683  0.0047  0.3742 -0.0148
  756loPI   C4A10742  14.837   8.649   8.037 -0.0969  0.1855 -0.1708
  756loPI   C5A10743  15.156   8.624   8.311  0.0255  0.2129 -0.3069
  756loPI   C6A10744  15.288   8.590   8.744 -0.1998 -0.1399 -0.1421
  756loPI   C1B10745  14.542   8.206   6.746  0.2375  0.1904 -0.1699
  756loPI   C2B10746  14.703   8.119   7.118 -0.0895 -0.0507  0.1054
  756loPI   C3B10747  14.644   8.118   7.543  0.0145 -0.0708  0.0531
  756loPI   C4B10748  14.689   8.176   7.961  0.0448 -0.0727  0.0761
  757loPI    C110749  15.015  12.207   5.706 -0.0189 -0.1802  0.1115
  757loPI    C210750  15.022  12.585   5.576 -0.1318 -0.1998  0.0468
  757loPI    C310751  15.340  12.348   5.522 -0.1306 -0.1695 -0.0799
  757loPI   PO410752  14.883  12.188   5.979  0.0037 -0.2523  0.0814
  757loPI   GL110753  14.723  12.324   6.370  0.3219  0.2107 -0.2255
  757loPI   GL210754  14.939  12.455   6.532  0.1599  0.1483  0.1172
  757loPI   C1A10755  14.376  12.413   6.655 -0.1228  0.2223  0.3795
  757loPI   C2A10756  14.219  12.395   7.118  0.2166  0.2619  0.1650
  757loPI   C3A10757  14.209  12.476   7.465  0.1062  0.2059  0.0116
  757loPI   C4A10758  14.327  12.565   7.866  0.0993 -0.1111 -0.0152
  757loPI   C5A10759  14.432  12.544   8.338 -0.0113  0.2319  0.3193
  757loPI   C6A10760  14.440  12.763   8.800  0.2757  0.0286  0.0330
  757loPI   C1B10761  14.900  12.550   6.999 -0.0612 -0.0719  0.0983
  757loPI   C2B10762  14.678  12.651   7.383 -0.1371 -0.2811 -0.2472
  757loPI   C3B10763  14.811  12.619   7.711  0.2167  0.0048 -0.1668
  757loPI   C4B10764  14.767  12.824   8.059  0.3423 -0.0305 -0.1724
  758loPI    C110765  16.763  13.611   5.991  0.2613  0.1769  0.0535
  758loPI    C210766  16.821  13.588   5.595 -0.0227  0.0816  0.0150
  758loPI    C310767  16.886  13.267   5.826  0.0944  0.1227  0.0400
  758loPI   PO410768  16.918  13.939   6.001  0.1156 -0.1996  0.1796
  758loPI   GL110769  17.083  14.028   6.365 -0.1436 -0.0873 -0.0529
  758loPI   GL210770  17.385  13.906   6.344  0.2615  0.2565  0.2249
  758loPI   C1A10771  16.865  13.982   6.741 -0.2089 -0.0203 -0.1421
  758loPI   C2A10772  16.878  14.096   7.161 -0.2621  0.1768 -0.0334
  758loPI   C3A10773  16.898  13.985   7.615  0.0534  0.3174 -0.0017
  758loPI   C4A10774  16.930  13.889   8.090 -0.0756  0.1497  0.2854
  758loPI   C5A10775  16.968  13.638   8.456 -0.0962 -0.2088  0.1302
  758loPI   C6A10776  17.354  13.423   8.542  0.0780  0.1103 -0.1581
  758loPI   C1B10777  17.361  13.807   6.803 -0.1278  0.1569  0.1036
  758loPI   C2B10778  17.305  13.864   7.246  0.2745 -0.0056 -0.0756
  758loPI   C3B10779  17.302  13.706   7.645 -0.2558  0.1590  0.0538
  758loPI   C4B10780  17.324  13.632   8.013 -0.1015  0.1043  0.0178
  759loPI    C110781   3.831  12.047   6.358 -0.0410 -0.3549 -0.1285
  759loPI    C210782   3.482  11.902   6.488 -0.1682  0.1837  0.1596
  759loPI    C310783   3.510  12.056   6.120 -0.1612 -0.0985  0.0393
  759loPI   PO410784   3.888  12.085   6.686 -0.0967 -0.3440  0.3845
  759loPI   GL110785   3.783  12.153   7.044  0.3411 -0.1717 -0.0381
  759loPI   GL210786   3.905  12.421   7.040 -0.1813 -0.2667  0.1191
  759loPI   C1A10787   3.660  12.137   7.499  0.0885  0.0413 -0.1325
  759loPI   C2A10788   3.604  12.142   8.056 -0.0789 -0.1600  0.1120
  759loPI   C3A10789   3.604  12.179   8.483 -0.0184  0.1304  0.0328
  759loPI   C4A10790   3.859  12.458   8.697  0.2823 -0.0013 -0.2434
  759loPI   C5A10791   3.798  12.864   8.988 -0.0199  0.2249  0.1089
  759loPI   C6A10792   3.571  13.269   8.958  0.1419  0.0182 -0.1003
  759loPI   C1B10793   3.986  12.482   7.504  0.0440 -0.1033 -0.0734
  759loPI   C2B10794   3.894  12.563   7.950  0.0429 -0.0513 -0.0458
  759loPI   C3B10795   3.594  12.702   8.224 -0.0285 -0.0229  0.2184
  759loPI   C4B10796   3.598  13.112   8.188  0.0998  0.1776  0.1078
  760loPI    C110797   3.217  12.582   6.168 -0.0825  0.2669 -0.0276
  760loPI    C210798   3.242  12.786   5.825 -0.0025  0.0529 -0.1508
  760loPI    C310799   3.534  12.535   5.930 -0.0326  0.1078  0.0691
  760loPI   PO410800   3.090  12.696   6.387 -0.0198 -0.1812 -0.0979
  760loPI   GL110801   2.849  12.837   6.715 -0.0237 -0.3442  0.1884
  760loPI   GL210802   3.155  13.098   6.816  0.1295  0.0129  0.0984
  760loPI   C1A10803   2.562  13.053   7.106 -0.2881 -0.1455  0.0377
  760loPI   C2A10804   2.260  13.057   7.448 -0.3311  0.1671  0.4453
  760loPI   C3A10805   2.283  13.181   7.826  0.2674  0.2416 -0.2499
  760loPI   C4A10806   2.293  13.104   8.297 -0.1203 -0.1650  0.0380
  760loPI   C5A10807   2.277  13.414   8.743  0.1397  0.0599  0.2212
  760loPI   C6A10808   1.978  13.633   8.885  0.2509  0.0226 -0.1656
  760loPI   C1B10809   3.043  12.893   7.201 -0.0632  0.1593  0.0095
  760loPI   C2B10810   2.736  12.801   7.513 -0.0925 -0.4718 -0.0314
  760loPI   C3B10811   2.627  12.792   7.986 -0.0883 -0.4417 -0.0783
  760loPI   C4B10812   2.714  12.663   8.332 -0.0519  0.1024 -0.0474
  761loPI    C110813  13.222   0.441   6.054 -0.1671  0.2043 -0.1209
  761loPI    C210814  13.397   0.763   5.893  0.0638  0.0723 -0.1376
  761loPI    C310815  13.282   0.460   5.659  0.0992  0.0228 -0.0912
  761loPI   PO410816  13.313   0.429   6.296  0.1992 -0.0751  0.2965
  761loPI   GL110817  13.316   0.147   6.608 -0.1178  0.1274 -0.2066
  761loPI   GL210818  12.931   0.114   6.652 -0.0882  0.1146 -0.2885
  761loPI   C1A10819  13.130   0.212   7.087 -0.0416 -0.1741 -0.1694
  761loPI   C2A10820  13.135   0.150   7.535  0.0964 -0.1436  0.1377
  761loPI   C3A10821  13.134   0.104   7.950  0.2022  0.1512 -0.0215
  761loPI   C4A10822  13.067  -0.012   8.357  0.1050  0.0054 -0.0964
  761loPI   C5A10823  13.077   0.315   8.736  0.3669  0.1913 -0.1013
  761loPI   C6A10824  13.362   0.229   9.019  0.1217  0.2314 -0.4276
  761loPI   C1B10825  12.632   0.069   6.882  0.0252 -0.1097 -0.0027
  761loPI   C2B10826  12.617  -0.048   7.279  0.0993 -0.0564 -0.0331
  761loPI   C3B10827  12.755  -0.143   7.630  0.1125  0.3426 -0.1230
  761loPI   C4B10828  12.617  -0.133   8.090 -0.0793 -0.0783 -0.0883
  762loPI    C110829   8.269   2.773   6.605  0.0161 -0.2187 -0.2706
  762loPI    C210830   8.236   3.103   6.381  0.0406  0.0904  0.1681
  762loPI    C310831   8.574   2.889   6.373  0.1545  0.2689  0.1337
  762loPI   PO410832   8.165   2.851   6.819  0.0379  0.3040  0.0565
  762loPI   GL110833   7.917   3.090   7.086 -0.0595  0.2439  0.0457
  762loPI   GL210834   7.791   2.825   7.125  0.3977 -0.0011 -0.2786
  762loPI   C1A10835   8.076   3.214   7.523 -0.0138  0.2273  0.0624
  762loPI   C2A10836   8.117   3.121   7.930 -0.4258 -0.1228  0.3582
  762loPI   C3A10837   8.110   3.158   8.327 -0.0342  0.1713 -0.3271
  762loPI   C4A10838   8.032   3.272   8.756  0.0601  0.0638 -0.0179
  762loPI   C5A10839   7.942   3.126   9.176 -0.0549  0.0666  0.0878
  762loPI   C6A10840   8.150   2.887   9.522 -0.2327  0.0288  0.1709
  762loPI   C1B10841   7.951   2.723   7.491 -0.1665 -0.1355 -0.0731
  762loPI   C2B10842   7.946   2.624   7.906  0.0242  0.0148  0.1527
  762loPI   C3B10843   7.876   2.666   8.354 -0.0044 -0.0707  0.2035
  762loPI   C4B10844   7.738   2.920   8.803  0.2824  0.0744  0.0190
  763loPI    C110845   4.449   5.503   6.077 -0.0584 -0.0420  0.0958
  763loPI    C210846   4.419   5.173   5.854 -0.1387 -0.1755  0.3014
  763loPI    C310847   4.265   5.518   5.722 -0.0796 -0.2255  0.0985
  763loPI   PO410848   4.322   5.556   6.291 -0.0929 -0.0560  0.0263
  763loPI   GL110849   4.560   5.618   6.660 -0.2566 -0.1791  0.0053
  763loPI   GL210850   4.887   5.675   6.739  0.0991  0.2258 -0.3161
  763loPI   C1A10851   4.420   5.769   7.143 -0.1847  0.0251  0.1152
  763loPI   C2A10852   4.403   5.791   7.631  0.1556 -0.1555 -0.1163
  763loPI   C3A10853   4.360   5.744   8.034  0.3157 -0.0277  0.0424
  763loPI   C4A10854   3.911   5.705   8.288  0.4307 -0.1352  0.1236
  763loPI   C5A10855   3.695   5.542   8.773 -0.0163  0.2020 -0.1724
  763loPI   C6A10856   3.685   5.160   8.934  0.1390  0.1188  0.1689
  763loPI   C1B10857   4.920   5.842   7.172 -0.3559 -0.0097  0.0583
  763loPI   C2B10858   4.943   5.896   7.556  0.1631 -0.0983  0.0596
  763loPI   C3B10859   4.901   5.795   7.962 -0.1346  0.0998 -0.0961
  763loPI   C4B10860   5.044   5.906   8.393  0.0698  0.2760 -0.0331
  764loPI    C110861   9.702  16.852   6.170 -0.0289 -0.2639  0.1849
  764loPI    C210862   9.335  16.962   6.055  0.1407  0.1893  0.0534
  764loPI    C310863   9.552  16.715   5.826 -0.0951 -0.1170  0.1543
  764loPI   PO410864   9.668  16.767   6.495 -0.1767  0.2003  0.3211
  764loPI   GL110865   9.459  16.923   6.900 -0.0504 -0.0047 -0.0815
  764loPI   GL210866   9.375  16.608   6.942 -0.0396  0.2143  0.1178
  764loPI   C1A10867   9.619  17.052   7.234 -0.0831 -0.0024  0.0272
  764loPI   C2A10868   9.483  16.915   7.628 -0.0941  0.1379  0.1082
  764loPI   C3A10869   9.520  16.855   8.062 -0.0038 -0.0632 -0.0431
  764loPI   C4A10870   9.548  16.866   8.529 -0.0043 -0.1351 -0.1351
  764loPI   C5A10871   9.344  16.801   9.005 -0.2760  0.1140 -0.0590
  764loPI   C6A10872   8.930  16.591   9.171  0.0507  0.3365  0.1025
  764loPI   C1B10873   9.388  16.210   7.249  0.0728  0.0179 -0.1083
  764loPI   C2B10874   9.229  16.069   7.646 -0.1124  0.0315  0.1702
  764loPI   C3B10875   9.238  15.900   8.051 -0.2669  0.0196  0.1834
  764loPI   C4B10876   9.025  16.107   8.298 -0.2041  0.1398 -0.1369
  765loPI    C110877   1.460   4.040   5.658 -0.0806  0.2958  0.1897
  765loPI    C210878   1.560   4.313   5.383  0.0715 -0.1176 -0.1793
  765loPI    C310879   1.211   4.119   5.355 -0.0241  0.0142  0.0658
  765loPI   PO410880   1.514   4.027   5.955  0.0205 -0.1746 -0.0152
  765loPI   GL110881   1.345   4.202   6.243 -0.0745  0.0652 -0.2603
  765loPI   GL210882   1.447   4.446   6.273  0.0475  0.0361  0.2920
  765loPI   C1A10883   1.015   4.339   6.578  0.2196 -0.1854  0.0511
  765loPI   C2A10884   0.972   4.436   7.023 -0.2722  0.2933 -0.1901
  765loPI   C3A10885   0.995   4.355   7.411 -0.0595 -0.1768  0.0399
  765loPI   C4A10886   0.976   4.301   7.874  0.0378  0.2962 -0.3331
  765loPI   C5A10887   1.066   4.247   8.292  0.1990 -0.1803 -0.0263
  765loPI   C6A10888   1.306   4.046   8.508  0.1317 -0.3542 -0.1388
  765loPI   C1B10889   1.554   4.402   6.680 -0.0274  0.4084 -0.0589
  765loPI   C2B10890   1.484   4.496   7.128  0.0471  0.0373  0.1376
  765loPI   C3B10891   1.539   4.517   7.569  0.2465 -0.0675 -0.3211
  765loPI   C4B10892   1.431   4.469   7.975 -0.2103 -0.0694  0.0329
  766loPI    C110893   4.703   0.971   6.220  0.0265 -0.0187  0.1898
  766loPI    C210894   4.979   1.241   6.321  0.0802  0.0868 -0.2209
  766loPI    C310895   5.091   0.884   6.180  0.0070  0.0010 -0.0638
  766loPI   PO410896   4.417   1.108   6.290  0.0916  0.0998  0.2724
  766loPI   GL110897   4.388   1.312   6.623  0.0556 -0.0557  0.0414
  766loPI   GL210898   4.625   1.395   6.754 -0.3093  0.0479  0.1017
  766loPI   C1A10899   4.189   1.092   6.969  0.0060  0.2940  0.1856
  766loPI   C2A10900   4.037   1.152   7.398 -0.1704 -0.1605 -0.2093
  766loPI   C3A10901   4.013   1.226   7.830 -0.3788 -0.0278 -0.1602
  766loPI   C4A10902   3.911   1.201   8.186  0.1744  0.0280  0.0272
  766loPI   C5A10903   3.577   1.125   8.416 -0.0663 -0.2179  0.2408
  766loPI   C6A10904   3.179   0.977   8.643  0.2409  0.0729 -0.0834
  766loPI   C1B10905   4.548   1.356   7.121 -0.0133 -0.2083 -0.0427
  766loPI   C2B10906   4.483   1.202   7.612 -0.0972  0.0408  0.1932
  766loPI   C3B10907   4.430   1.153   8.039 -0.0275 -0.0548  0.0598
  766loPI   C4B10908   4.358   1.056   8.449  0.1255 -0.0926 -0.1033
  767loPI    C110909   3.116  10.255   6.246  0.1983  0.1211  0.0858
  767loPI    C210910   2.927  10.607   6.253 -0.0076  0.0151 -0.0278
  767loPI    C310911   2.963  10.407   5.909  0.0466 -0.1079  0.0489
  767loPI   PO410912   3.409  10.353   6.444 -0.0027  0.0118  0.2022
  767loPI   GL110913   3.439  10.082   6.761  0.1405 -0.0134 -0.3297
  767loPI   GL210914   3.612   9.806   6.780  0.0536  0.0073  0.0887
  767loPI   C1A10915   3.423  10.057   7.255 -0.0867 -0.0159 -0.0788
  767loPI   C2A10916   3.399  10.111   7.630 -0.3778 -0.1010 -0.0314
  767loPI   C3A10917   3.222  10.090   8.085  0.0644 -0.0751 -0.0016
  767loPI   C4A10918   3.234  10.180   8.335  0.4538 -0.0431 -0.2075
  767loPI   C5A10919   2.934  10.245   8.685  0.0952  0.2352 -0.0003
  767loPI   C6A10920   2.696   9.989   8.818 -0.1075 -0.1212  0.2473
  767loPI   C1B10921   3.840   9.792   7.192 -0.0027  0.0477  0.4023
  767loPI   C2B10922   3.743   9.701   7.560  0.1397  0.1893 -0.2213
  767loPI   C3B10923   3.686   9.811   7.899  0.1693  0.1927  0.0050
  767loPI   C4B10924   3.647   9.845   8.309  0.0429 -0.0113 -0.1443
  768loPI    C110925   1.719   7.058   6.015 -0.2879  0.1219 -0.1957
  768loPI    C210926   1.720   6.814   5.699  0.1422 -0.0148 -0.0951
  768loPI    C310927   1.538   7.169   5.676 -0.3367 -0.2647 -0.3002
  768loPI   PO410928   1.940   7.055   6.198  0.2032  0.0157  0.1718
  768loPI   GL110929   1.841   7.088   6.615 -0.0752 -0.1130  0.1382
  768loPI   GL210930   1.992   7.084   6.904 -0.0947 -0.0869 -0.1333
  768loPI   C1A10931   1.522   7.306   6.958 -0.1913  0.2320  0.1080
  768loPI   C2A10932   1.398   7.375   7.362 -0.1477 -0.0771 -0.0507
  768loPI   C3A10933   1.423   7.446   7.755  0.0944  0.2400 -0.2566
  768loPI   C4A10934   1.417   7.453   8.181  0.3559 -0.0003  0.2157
  768loPI   C5A10935   1.034   7.295   8.459 -0.1716 -0.1632  0.1478
  768loPI   C6A10936   0.734   7.000   8.502  0.2839 -0.1539  0.0478
  768loPI   C1B10937   1.841   7.056   7.337 -0.3081  0.0309 -0.3862
  768loPI   C2B10938   1.822   7.143   7.665 -0.2833  0.1372 -0.0028
  768loPI   C3B10939   1.769   7.162   8.063 -0.0210  0.0741 -0.2258
  768loPI   C4B10940   1.759   7.195   8.527 -0.1313  0.1115  0.0457
  769loPI    C110941   1.140   6.110   5.580 -0.0098  0.0633  0.0237
  769loPI    C210942   0.907   6.196   5.266 -0.0018  0.1014  0.0282
  769loPI    C310943   1.305   6.223   5.234  0.0066 -0.0551 -0.0076
  769loPI   PO410944   1.008   5.884   5.737 -0.0433  0.0429 -0.1755
  769loPI   GL110945   1.003   5.812   6.201  0.0950 -0.1404 -0.0761
  769loPI   GL210946   0.741   5.687   6.236  0.0031 -0.1807 -0.2153
  769loPI   C1A10947   1.268   5.800   6.699 -0.0951 -0.2622  0.2219
  769loPI   C2A10948   1.342   5.805   7.206 -0.1499 -0.3283  0.0044
  769loPI   C3A10949   1.177   5.908   7.685 -0.1092 -0.2429  0.0038
  769loPI   C4A10950   1.099   5.753   8.196 -0.0583 -0.1515 -0.1707
  769loPI   C5A10951   0.871   5.590   8.484 -0.2299  0.0235 -0.0543
  769loPI   C6A10952   0.672   5.462   8.728  0.4150  0.0452  0.2003
  769loPI   C1B10953   0.709   5.571   6.658 -0.3703 -0.0627  0.1384
  769loPI   C2B10954   0.615   5.533   7.161 -0.1877  0.0126 -0.0324
  769loPI   C3B10955   0.596   5.644   7.582 -0.0472  0.3157  0.1675
  769loPI   C4B10956   0.671   5.613   7.953  0.1404 -0.1806  0.0851
  770loPI    C110957  13.717  10.337   5.582  0.1435 -0.1479  0.1031
  770loPI    C210958  13.801  10.717   5.490 -0.0799 -0.1606 -0.1643
  770loPI    C310959  14.037  10.422   5.358 -0.0478 -0.1329 -0.1690
  770loPI   PO410960  13.657  10.414   5.978  0.1783 -0.0534  0.3009
  770loPI   GL110961  13.688  10.262   6.353  0.0700  0.0816 -0.1981
  770loPI   GL210962  13.489  10.131   6.517 -0.2003  0.0330  0.2166
  770loPI   C1A10963  13.982  10.348   6.753  0.2294 -0.0849  0.0438
  770loPI   C2A10964  14.060  10.366   7.178 -0.1439 -0.2681  0.0158
  770loPI   C3A10965  14.078  10.301   7.606  0.1134 -0.5052 -0.1807
  770loPI   C4A10966  14.031  10.451   7.979 -0.0775 -0.2216  0.2018
  770loPI   C5A10967  13.915  10.579   8.350 -0.0051 -0.2749  0.2177
  770loPI   C6A10968  14.138  10.573   8.660  0.2938  0.1036  0.0299
  770loPI   C1B10969  13.541  10.103   6.952 -0.0752 -0.0400 -0.0356
  770loPI   C2B10970  13.564  10.092   7.344  0.1543 -0.2438  0.2214
  770loPI   C3B10971  13.611  10.166   7.804 -0.5684  0.0377 -0.4294
  770loPI   C4B10972  13.746  10.073   8.182 -0.0059 -0.1405 -0.1818
  771loPI    C110973  13.574   3.592   6.067  0.0294 -0.1494  0.2272
  771loPI    C210974  13.766   3.334   5.830 -0.2040  0.0308 -0.1678
  771loPI    C310975  13.784   3.726   5.755 -0.2962  0.0895  0.1054
  771loPI   PO410976  13.667   3.501   6.400  0.2830  0.2891  0.0257
  771loPI   GL110977  13.708   3.651   6.775 -0.5375 -0.0482 -0.0883
  771loPI   GL210978  13.817   3.871   6.918  0.1178 -0.2890 -0.1731
  771loPI   C1A10979  13.623   3.419   7.120 -0.1234  0.1116 -0.0008
  771loPI   C2A10980  13.577   3.333   7.445 -0.4062 -0.2539  0.0371
  771loPI   C3A10981  13.657   3.323   7.875 -0.0259 -0.2706 -0.0561
  771loPI   C4A10982  13.616   3.177   8.318 -0.0450 -0.0481  0.1848
  771loPI   C5A10983  13.472   3.123   8.631 -0.1480  0.0381  0.1487
  771loPI   C6A10984  13.465   3.292   8.963 -0.3257  0.5021  0.2408
  771loPI   C1B10985  13.727   3.901   7.390 -0.2206 -0.0853  0.0739
  771loPI   C2B10986  13.597   3.819   7.814 -0.2741 -0.1472 -0.3060
  771loPI   C3B10987  13.605   3.863   8.260 -0.1097  0.0364  0.0358
  771loPI   C4B10988  13.669   3.846   8.617  0.0459 -0.1470  0.3133
  772loPI    C110989  13.435   5.817   5.877  0.0592 -0.0325  0.0969
  772loPI    C210990  13.631   5.543   5.661 -0.0899  0.0698 -0.1729
  772loPI    C310991  13.233   5.568   5.638 -0.1164  0.0265  0.1828
  772loPI   PO410992  13.482   5.822   6.120 -0.3732 -0.1933  0.0529
  772loPI   GL110993  13.452   5.587   6.478 -0.0614 -0.0334 -0.1431
  772loPI   GL210994  13.230   5.723   6.610 -0.0800  0.2411 -0.1136
  772loPI   C1A10995  13.822   5.411   6.805  0.2643  0.1681 -0.2252
  772loPI   C2A10996  13.726   5.312   7.173  0.2343 -0.0542  0.1372
  772loPI   C3A10997  13.844   5.323   7.657  0.1413  0.0775  0.0578
  772loPI   C4A10998  13.866   5.381   8.062  0.0729 -0.0098  0.0363
  772loPI   C5A10999  13.935   5.377   8.453  0.3942  0.0969 -0.0577
  772loPI   C6A11000  13.832   5.385   8.843 -0.0500  0.0303 -0.2324
  772loPI   C1B11001  13.379   5.664   7.008 -0.3200 -0.1638 -0.2252
  772loPI   C2B11002  13.382   5.639   7.558  0.1494  0.1495 -0.0855
  772loPI   C3B11003  13.476   5.626   7.918  0.2995 -0.0436  0.0285
  772loPI   C4B11004  13.461   5.558   8.363  0.0505  0.1543 -0.3136
  773loPI    C111005   7.775  16.863   6.369  0.0347 -0.1866 -0.2815
  773loPI    C211006   7.397  16.912   6.245  0.0274  0.1845 -0.1251
  773loPI    C311007   7.698  17.077   6.040  0.0691  0.2435 -0.0173
  773loPI   PO411008   7.665  16.649   6.640 -0.1281  0.0492  0.1497
  773loPI   GL111009   7.836  16.534   7.037  0.2328  0.2215  0.1102
  773loPI   GL211010   7.956  16.254   7.001  0.1037  0.1044  0.0342
  773loPI   C1A11011   7.842  16.714   7.509  0.3736 -0.0125 -0.0147
  773loPI   C2A11012   7.747  16.786   7.966 -0.1986 -0.1693  0.1954
  773loPI   C3A11013   7.580  16.801   8.401 -0.2402 -0.0433  0.0561
  773loPI   C4A11014   7.577  16.967   8.835 -0.0778 -0.0719 -0.2005
  773loPI   C5A11015   7.303  17.224   9.080 -0.2784 -0.0893  0.0241
  773loPI   C6A11016   7.216  17.192   9.579 -0.2011  0.2808 -0.0466
  773loPI   C1B11017   7.913  16.218   7.479 -0.1490  0.0279  0.1350
  773loPI   C2B11018   7.941  16.272   7.967 -0.0614  0.0013  0.0020
  773loPI   C3B11019   8.203  16.104   8.276 -0.0519 -0.0782 -0.1897
  773loPI   C4B11020   8.529  16.016   8.491 -0.0013 -0.0668 -0.2858
  774loPI    C111021  16.626   2.826   5.948 -0.0217 -0.0238 -0.1204
  774loPI    C211022  16.290   3.002   5.821  0.0304  0.1717  0.0070
  774loPI    C311023  16.517   2.794   5.565 -0.2775 -0.1129 -0.0423
  774loPI   PO411024  16.735   2.979   6.137 -0.3145 -0.0632  0.0418
  774loPI   GL111025  17.059   3.250   6.389  0.0813 -0.1473 -0.0580
  774loPI   GL211026  16.739   3.172   6.554  0.1740  0.0629  0.0794
  774loPI   C1A11027  17.165   3.446   6.801 -0.2720  0.0952  0.0641
  774loPI   C2A11028  17.276   3.473   7.286 -0.1765 -0.1718 -0.0795
  774loPI   C3A11029  17.291   3.281   7.713 -0.0915 -0.1335 -0.1766
  774loPI   C4A11030  17.424   3.295   8.094 -0.1471  0.1858 -0.0685
  774loPI   C5A11031  17.389   3.374   8.533  0.2514 -0.2043  0.1379
  774loPI   C6A11032  17.249   3.668   8.858  0.0926  0.2462  0.1925
  774loPI   C1B11033  16.800   3.220   7.072  0.2091 -0.0780 -0.0795
  774loPI   C2B11034  16.817   3.168   7.492 -0.1929  0.1100 -0.0487
  774loPI   C3B11035  16.785   3.067   7.869  0.0035 -0.1450  0.1081
  774loPI   C4B11036  16.984   3.150   8.257  0.0576 -0.2175  0.0349
  775loPI    C111037  10.696   6.181   6.485 -0.0463  0.0267 -0.0771
  775loPI    C211038  10.329   6.067   6.375 -0.1187 -0.1261  0.3044
  775loPI    C311039  10.432   6.454   6.360 -0.0067 -0.1676 -0.6126
  775loPI   PO411040  10.790   6.071   6.715 -0.2263  0.3982 -0.0499
  775loPI   GL111041  10.815   5.984   7.069  0.3095 -0.1028 -0.2287
  775loPI   GL211042  10.849   6.308   7.182 -0.0416 -0.1909 -0.2306
  775loPI   C1A11043  10.836   5.801   7.478 -0.1102 -0.1685 -0.0302
  775loPI   C2A11044  10.775   5.955   7.888 -0.1614  0.1548  0.3091
  775loPI   C3A11045  10.888   5.882   8.279  0.0330  0.2719 -0.0327
  775loPI   C4A11046  10.869   5.933   8.733  0.0906 -0.1149 -0.1336
  775loPI   C5A11047  10.878   6.002   9.191  0.1321  0.0147 -0.1435
  775loPI   C6A11048  10.910   5.896   9.657  0.2359 -0.4061  0.1049
  775loPI   C1B11049  10.867   6.474   7.530 -0.3279 -0.1413 -0.1699
  775loPI   C2B11050  10.841   6.431   7.917 -0.2230  0.0277 -0.0653
  775loPI   C3B11051  10.856   6.578   8.348 -0.1253 -0.0234  0.0768
  775loPI   C4B11052  10.935   6.532   8.755  0.0459 -0.0388  0.2818
  776loPI    C111053  11.042  12.813   6.458 -0.0645  0.0181  0.0549
  776loPI    C211054  11.286  13.128   6.426  0.1660 -0.1639 -0.0100
  776loPI    C311055  10.913  13.148   6.283  0.0326  0.2245  0.3704
  776loPI   PO411056  10.992  12.717   6.676 -0.0411  0.1094 -0.1194
  776loPI   GL111057  11.042  12.830   7.078 -0.0790 -0.1860  0.1854
  776loPI   GL211058  10.766  12.983   7.166  0.0717 -0.0071  0.2058
  776loPI   C1A11059  11.102  12.669   7.454 -0.1179  0.1017 -0.0456
  776loPI   C2A11060  11.164  12.474   7.921  0.0713  0.2126 -0.3567
  776loPI   C3A11061  11.226  12.594   8.328 -0.0880  0.0657 -0.3351
  776loPI   C4A11062  11.257  12.828   8.709  0.0646 -0.2531 -0.1471
  776loPI   C5A11063  11.112  12.656   9.050 -0.1054 -0.2929  0.0103
  776loPI   C6A11064  10.654  12.584   9.244 -0.0674  0.0744 -0.0934
  776loPI   C1B11065  10.707  12.863   7.650  0.0004 -0.1720  0.0219
  776loPI   C2B11066  10.758  12.868   8.081 -0.0605  0.1361  0.3511
  776loPI   C3B11067  10.828  12.817   8.481  0.3117  0.0035  0.2141
  776loPI   C4B11068  10.766  13.037   8.865  0.0202  0.0161 -0.0697
  777loPI    C111069  15.238   1.941   6.042 -0.0695  0.2026  0.0701
  777loPI    C211070  15.284   2.030   5.655 -0.2380  0.0693  0.0183
  777loPI    C311071  15.424   1.684   5.799 -0.1656  0.1237  0.0796
  777loPI   PO411072  15.281   2.183   6.326 -0.2386  0.0411  0.0080
  777loPI   GL111073  15.523   2.049   6.697 -0.3185 -0.1270  0.0881
  777loPI   GL211074  15.257   1.798   6.778  0.0373 -0.0867  0.2176
  777loPI   C1A11075  15.555   2.278   7.062  0.0903 -0.0284 -0.0767
  777loPI   C2A11076  15.504   2.296   7.473  0.1468 -0.2709  0.3305
  777loPI   C3A11077  15.343   2.416   7.911 -0.1172 -0.0908  0.1363
  777loPI   C4A11078  15.273   2.484   8.310 -0.1080  0.5634 -0.1181
  777loPI   C5A11079  15.480   2.471   8.601  0.0815 -0.3946 -0.1765
  777loPI   C6A11080  15.694   2.475   8.968 -0.0765 -0.2187  0.2239
  777loPI   C1B11081  15.250   1.881   7.254  0.2889 -0.0231 -0.0991
  777loPI   C2B11082  15.206   1.935   7.745 -0.0032 -0.0798  0.2183
  777loPI   C3B11083  15.267   1.987   8.129 -0.0159  0.1209 -0.1449
  777loPI   C4B11084  15.391   1.936   8.551 -0.0205 -0.1402  0.0932
  778loPI    C111085   6.700   4.252   6.127 -0.0655 -0.1315 -0.1065
  778loPI    C211086   7.058   4.197   6.296 -0.0453  0.1746 -0.0433
  778loPI    C311087   6.921   3.933   6.028  0.2389  0.0695 -0.0890
  778loPI   PO411088   6.673   4.476   6.373  0.4275  0.0571  0.1333
  778loPI   GL111089   6.810   4.666   6.854  0.2607  0.2205  0.1518
  778loPI   GL211090   6.568   4.415   6.847  0.0456 -0.2789  0.1526
  778loPI   C1A11091   6.715   4.555   7.332 -0.2692  0.0091 -0.2351
  778loPI   C2A11092   6.678   4.548   7.734 -0.1373 -0.0394 -0.3104
  778loPI   C3A11093   6.757   4.475   8.278  0.2687  0.4561  0.0090
  778loPI   C4A11094   6.714   4.553   8.651  0.1220  0.2824  0.1328
  778loPI   C5A11095   6.561   4.351   9.046  0.2423 -0.3110 -0.0451
  778loPI   C6A11096   6.807   4.167   9.288 -0.1692  0.2643  0.0966
  778loPI   C1B11097   6.540   4.078   7.133 -0.0085  0.0858 -0.0777
  778loPI   C2B11098   6.475   4.097   7.561 -0.1615  0.0534  0.0329
  778loPI   C3B11099   6.490   4.009   8.026  0.2052  0.1481 -0.0874
  778loPI   C4B11100   6.549   4.039   8.458 -0.1558 -0.1633  0.2613
  779loPI    C111101  15.644  12.300   6.015 -0.1787  0.2078 -0.0276
  779loPI    C211102  15.429  11.982   5.904  0.0244  0.0837 -0.0700
  779loPI    C311103  15.758  12.083   5.699  0.1355  0.1361  0.1304
  779loPI   PO411104  15.693  12.264   6.281  0.2415 -0.0323 -0.2195
  779loPI   GL111105  15.506  12.450   6.586  0.0628  0.0020 -0.0082
  779loPI   GL211106  15.398  12.718   6.590  0.0299  0.0165 -0.0185
  779loPI   C1A11107  15.294  12.276   6.878  0.0531  0.0737  0.1472
  779loPI   C2A11108  15.255  12.120   7.254  0.0202 -0.1975 -0.0925
  779loPI   C3A11109  15.156  12.175   7.735  0.0920 -0.2907 -0.0995
  779loPI   C4A11110  15.228  12.287   8.068  0.3542 -0.0482 -0.1264
  779loPI   C5A11111  14.903  12.369   8.430 -0.4319 -0.1791 -0.1551
  779loPI   C6A11112  14.675  12.315   8.806 -0.1743 -0.2019 -0.1450
  779loPI   C1B11113  15.437  12.788   6.993 -0.1111  0.1392  0.3106
  779loPI   C2B11114  15.242  12.686   7.349  0.0046  0.2626  0.1016
  779loPI   C3B11115  15.304  12.782   7.926  0.3424  0.0474 -0.2308
  779loPI   C4B11116  15.340  12.638   8.442 -0.3618  0.1129  0.3334
  780loPI    C111117   7.509   7.941   6.141 -0.1711 -0.0523 -0.0081
  780loPI    C211118   7.179   8.130   6.015 -0.3061 -0.1837  0.1433
  780loPI    C311119   7.322   7.818   5.809 -0.2680 -0.1179  0.0699
  780loPI   PO411120   7.393   7.916   6.445  0.2184 -0.1281  0.0786
  780loPI   GL111121   7.125   8.089   6.704 -0.0916 -0.1456 -0.3209
  780loPI   GL211122   7.143   8.423   6.693 -0.0028 -0.1122  0.1258
  780loPI   C1A11123   7.199   8.129   7.183  0.2008  0.1441 -0.0601
  780loPI   C2A11124   7.455   8.168   7.483  0.1670  0.2588 -0.1175
  780loPI   C3A11125   7.402   8.245   7.869  0.2314 -0.1761  0.1104
  780loPI   C4A11126   7.315   8.301   8.300  0.0385  0.0900  0.1754
  780loPI   C5A11127   7.339   8.425   8.760 -0.0971 -0.0661 -0.1151
  780loPI   C6A11128   7.498   8.668   9.096  0.0164 -0.0933 -0.0296
  780loPI   C1B11129   7.122   8.597   7.036 -0.1104  0.2609 -0.0785
  780loPI   C2B11130   7.196   8.607   7.513  0.5377  0.1859 -0.3301
  780loPI   C3B11131   7.075   8.627   7.962  0.0509  0.1949  0.0684
  780loPI   C4B11132   7.025   8.723   8.346 -0.2839 -0.2732 -0.0977
  781loPI    C111133   3.885  15.238   6.399  0.0532  0.0851 -0.0483
  781loPI    C211134   3.881  15.247   5.999  0.2881  0.0293 -0.0536
  781loPI    C311135   4.104  14.976   6.191 -0.3825 -0.4277  0.1167
  781loPI   PO411136   3.648  15.228   6.453  0.0628  0.2605 -0.1420
  781loPI   GL111137   3.474  15.112   6.879 -0.0458 -0.0036 -0.0666
  781loPI   GL211138   3.624  14.726   7.057 -0.2216  0.0180  0.0573
  781loPI   C1A11139   3.334  15.211   7.268  0.1506 -0.3254 -0.1718
  781loPI   C2A11140   3.404  15.256   7.670 -0.1323  0.0938 -0.0858
  781loPI   C3A11141   3.443  15.198   8.082  0.0139 -0.0891 -0.0721
  781loPI   C4A11142   3.461  15.275   8.597  0.3524 -0.2142  0.0880
  781loPI   C5A11143   3.423  15.646   8.823 -0.0745  0.0736 -0.0904
  781loPI   C6A11144   3.327  16.065   9.051 -0.3110  0.3049  0.1713
  781loPI   C1B11145   3.587  14.659   7.506  0.1235 -0.2824  0.0436
  781loPI   C2B11146   3.558  14.592   7.972 -0.0019 -0.1821 -0.0587
  781loPI   C3B11147   3.659  14.354   8.417 -0.2944  0.1741  0.0937
  781loPI   C4B11148   3.739  14.472   8.945 -0.3411 -0.3117  0.2106
  782loPI    C111149   5.338   5.037   5.893 -0.1130 -0.0794 -0.0146
  782loPI    C211150   5.737   5.056   5.875 -0.1102 -0.1398 -0.0231
  782loPI    C311151   5.551   4.707   5.816 -0.1624 -0.1192  0.0182
  782loPI   PO411152   5.300   5.135   6.206 -0.0435  0.2375  0.1155
  782loPI   GL111153   5.248   5.086   6.672  0.1656  0.2368  0.4775
  782loPI   GL211154   5.366   4.839   6.733 -0.1271 -0.1810  0.0489
  782loPI   C1A11155   5.211   5.387   6.966 -0.2543  0.3677  0.2201
  782loPI   C2A11156   5.171   5.448   7.393  0.0656 -0.3115  0.1866
  782loPI   C3A11157   5.148   5.358   7.844  0.2313 -0.2059 -0.0192
  782loPI   C4A11158   5.144   5.417   8.283  0.0792  0.0684 -0.1364
  782loPI   C5A11159   5.247   5.555   8.729 -0.1083 -0.3585  0.0140
  782loPI   C6A11160   5.375   5.700   9.150 -0.2536 -0.2768  0.0586
  782loPI   C1B11161   5.367   4.935   7.168  0.0713  0.0095 -0.0910
  782loPI   C2B11162   5.448   4.967   7.617  0.4355 -0.0051 -0.1375
  782loPI   C3B11163   5.419   4.955   8.084  0.1677 -0.0361  0.3367
  782loPI   C4B11164   5.398   4.983   8.631 -0.0479  0.2004 -0.1330
  783loPI    C111165  12.032   0.274   6.028  0.0886 -0.0302 -0.0518
  783loPI    C211166  12.025   0.593   5.787 -0.0167 -0.0176 -0.0324
  783loPI    C311167  12.361   0.380   5.827  0.0188  0.0175 -0.1411
  783loPI   PO411168  11.928   0.366   6.282 -0.0502 -0.0625  0.2721
  783loPI   GL111169  11.882   0.303   6.716 -0.0460 -0.3057  0.0410
  783loPI   GL211170  11.709   0.198   6.920 -0.0631  0.2966 -0.0165
  783loPI   C1A11171  12.285   0.374   7.042  0.4242  0.1942  0.0115
  783loPI   C2A11172  12.258   0.309   7.450  0.0276  0.1250 -0.1117
  783loPI   C3A11173  12.333   0.158   7.820  0.1635  0.2652 -0.1103
  783loPI   C4A11174  12.208   0.205   8.331 -0.1428  0.2719 -0.2177
  783loPI   C5A11175  12.104   0.064   8.690 -0.3470  0.2065 -0.3172
  783loPI   C6A11176  11.891  -0.191   8.963 -0.0737  0.0673 -0.0683
  783loPI   C1B11177  11.802   0.104   7.300  0.0744  0.2013 -0.0721
  783loPI   C2B11178  11.858   0.053   7.752 -0.2109  0.1134  0.0988
  783loPI   C3B11179  11.791  -0.041   8.124 -0.0873  0.1534 -0.0192
  783loPI   C4B11180  11.637  -0.008   8.552 -0.0875  0.0360 -0.3330
  784loPI    C111181  10.979   3.497   6.334 -0.0830  0.0438  0.1369
  784loPI    C211182  11.199   3.384   6.020  0.0721  0.0734  0.2339
  784loPI    C311183  11.058   3.757   6.040 -0.1173  0.0107  0.0983
  784loPI   PO411184  11.051   3.334   6.530 -0.0090  0.0426 -0.0179
  784loPI   GL111185  11.246   3.456   6.843  0.0077 -0.0266  0.1463
  784loPI   GL211186  11.260   3.773   7.013  0.1247  0.0468  0.1181
  784loPI   C1A11187  11.267   3.359   7.252 -0.0578 -0.2465 -0.1348
  784loPI   C2A11188  11.388   3.233   7.708 -0.1511 -0.0200 -0.2460
  784loPI   C3A11189  11.373   3.198   8.162 -0.0441  0.1061  0.2530
  784loPI   C4A11190  11.354   3.173   8.669  0.0415  0.1108  0.2308
  784loPI   C5A11191  11.499   3.085   9.040 -0.0049 -0.0147  0.0013
  784loPI   C6A11192  11.794   3.003   9.362 -0.1130 -0.2299  0.1855
  784loPI   C1B11193  11.314   3.812   7.471 -0.1837 -0.3858  0.0775
  784loPI   C2B11194  11.380   3.819   7.931  0.1206  0.1276 -0.0766
  784loPI   C3B11195  11.398   3.648   8.443  0.4024 -0.2443  0.0643
  784loPI   C4B11196  11.553   3.579   8.848  0.1967  0.1742 -0.0576
  785loPI    C111197   8.157  11.367   6.437  0.0917  0.2790  0.0104
  785loPI    C211198   8.464  11.338   6.183  0.0732  0.0349  0.0136
  785loPI    C311199   8.142  11.553   6.083  0.0914 -0.0099 -0.1441
  785loPI   PO411200   8.224  11.233   6.582  0.3199  0.0708 -0.4913
  785loPI   GL111201   8.275  11.321   7.076 -0.1337 -0.0800  0.1452
  785loPI   GL211202   8.572  11.344   7.194 -0.3787  0.0437 -0.1192
  785loPI   C1A11203   8.223  10.915   7.387 -0.1678 -0.0185  0.0220
  785loPI   C2A11204   8.262  10.847   7.852 -0.0159  0.0461  0.1359
  785loPI   C3A11205   8.332  10.980   8.267  0.1125 -0.2849  0.3868
  785loPI   C4A11206   8.615  10.918   8.602 -0.2325 -0.0093 -0.0942
  785loPI   C5A11207   8.794  10.551   8.762  0.0302  0.0941  0.0627
  785loPI   C6A11208   8.650  10.154   8.946 -0.0563  0.1072  0.0340
  785loPI   C1B11209   8.443  11.305   7.569  0.1290 -0.0395  0.3066
  785loPI   C2B11210   8.362  11.398   7.941 -0.2723  0.2485  0.2619
  785loPI   C3B11211   8.443  11.431   8.443 -0.3279 -0.3639  0.3480
  785loPI   C4B11212   8.239  11.225   8.836 -0.2462  0.3045 -0.2343
  786loPI    C111213  17.245   9.707   5.583 -0.2293 -0.0708  0.0565
  786loPI    C211214  17.276   9.993   5.306  0.0431  0.0332  0.1907
  786loPI    C311215  17.133   9.633   5.206 -0.1726  0.1707 -0.0093
  786loPI   PO411216  17.089   9.774   5.802 -0.3149 -0.3142 -0.1083
  786loPI   GL111217  17.046   9.616   6.148 -0.0304  0.2740  0.1606
  786loPI   GL211218  16.927   9.873   6.254 -0.1384  0.2462  0.0017
  786loPI   C1A11219  17.106   9.560   6.604  0.1014 -0.2379 -0.1254
  786loPI   C2A11220  17.139   9.590   7.108  0.3709 -0.0885 -0.0141
  786loPI   C3A11221  17.205   9.594   7.624  0.0756  0.1756  0.0194
  786loPI   C4A11222  17.340   9.647   8.058  0.1823  0.0771  0.1738
  786loPI   C5A11223  17.229   9.568   8.508 -0.0269 -0.2603  0.4411
  786loPI   C6A11224  17.330   9.302   8.773  0.0958  0.0791 -0.0581
  786loPI   C1B11225  16.960  10.046   6.662 -0.0141 -0.0429 -0.4981
  786loPI   C2B11226  16.810   9.975   7.094 -0.0087  0.1610  0.0910
  786loPI   C3B11227  16.789   9.837   7.480  0.0520  0.1540  0.1951
  786loPI   C4B11228  16.900   9.899   7.878 -0.2579  0.2991  0.0643
  787loPI    C111229   7.261   1.618   6.314 -0.2226 -0.0264  0.0793
  787loPI    C211230   7.088   1.813   6.011 -0.5100 -0.0587  0.2193
  787loPI    C311231   7.297   1.479   5.941 -0.1308  0.2182 -0.0047
  787loPI   PO411232   7.158   1.588   6.492 -0.2470  0.0508  0.0647
  787loPI   GL111233   7.316   1.664   6.830 -0.1763  0.0210 -0.2625
  787loPI   GL211234   6.935   1.751   6.977 -0.2067 -0.0317  0.3267
  787loPI   C1A11235   7.305   1.401   7.074  0.2111  0.2560 -0.3186
  787loPI   C2A11236   7.254   1.470   7.563 -0.1192 -0.2605  0.2730
  787loPI   C3A11237   7.223   1.384   7.962 -0.0980 -0.0698 -0.2778
  787loPI   C4A11238   7.331   1.306   8.440 -0.0662  0.0055 -0.0070
  787loPI   C5A11239   7.707   1.533   8.704  0.1140 -0.1111  0.2925
  787loPI   C6A11240   8.021   1.576   9.048  0.4412  0.2139  0.1149
  787loPI   C1B11241   6.876   1.764   7.434  0.3092 -0.0891  0.2941
  787loPI   C2B11242   6.821   1.701   7.936 -0.0067 -0.0882 -0.1203
  787loPI   C3B11243   6.855   1.852   8.381 -0.1307  0.1553  0.0988
  787loPI   C4B11244   6.962   1.589   8.739  0.2000 -0.1291  0.0206
  788loPI    C111245  10.208  16.622   6.284 -0.0563  0.1890  0.0663
  788loPI    C211246  10.604  16.631   6.341  0.0300 -0.4119 -0.3410
  788loPI    C311247  10.432  16.886   6.084  0.1290 -0.0751 -0.0808
  788loPI   PO411248  10.174  16.531   6.542  0.0909 -0.1231 -0.5327
  788loPI   GL111249   9.951  16.671   6.911 -0.0371 -0.0407  0.0028
  788loPI   GL211250  10.092  16.823   7.095  0.0547  0.0174  0.0542
  788loPI   C1A11251   9.798  16.444   7.233 -0.1314  0.0649  0.2590
  788loPI   C2A11252   9.624  16.394   7.664 -0.1533 -0.2823 -0.0005
  788loPI   C3A11253   9.574  16.369   8.122 -0.0739 -0.1393 -0.0681
  788loPI   C4A11254   9.523  16.193   8.536 -0.2601 -0.0614  0.1449
  788loPI   C5A11255   9.672  16.425   8.848  0.0445  0.0041 -0.3541
  788loPI   C6A11256   9.817  16.615   9.218 -0.0658 -0.1332  0.0759
  788loPI   C1B11257   9.940  16.794   7.543  0.1098 -0.1783  0.1039
  788loPI   C2B11258   9.989  16.648   7.910  0.0508  0.0732  0.1795
  788loPI   C3B11259   9.954  16.626   8.269 -0.0657  0.0026 -0.2181
  788loPI   C4B11260   9.970  16.357   8.488  0.1325  0.0319 -0.3413
  789loPI    C111261  14.699   4.312   5.985 -0.0156  0.0417  0.0428
  789loPI    C211262  14.889   3.970   5.902  0.1208  0.1689 -0.1779
  789loPI    C311263  14.941   4.290   5.667 -0.1172  0.3001 -0.0551
  789loPI   PO411264  14.673   4.324   6.194  0.0695  0.2015 -0.1137
  789loPI   GL111265  14.988   4.454   6.499 -0.0199  0.1861  0.0991
  789loPI   GL211266  15.083   4.115   6.342  0.0364 -0.1962 -0.2993
  789loPI   C1A11267  15.052   4.362   6.873  0.1548  0.0183 -0.0667
  789loPI   C2A11268  15.060   4.391   7.292  0.1294 -0.0069  0.0774
  789loPI   C3A11269  15.115   4.414   7.797  0.0322  0.1193 -0.0830
  789loPI   C4A11270  15.058   4.344   8.212  0.1659 -0.1458 -0.1801
  789loPI   C5A11271  14.957   4.189   8.675  0.1274  0.1231 -0.0106
  789loPI   C6A11272  15.063   3.907   8.938  0.1863  0.2988 -0.0682
  789loPI   C1B11273  15.322   4.052   6.683  0.1143  0.2098 -0.1380
  789loPI   C2B11274  15.461   4.133   7.156 -0.3337 -0.1525  0.3696
  789loPI   C3B11275  15.469   4.140   7.591  0.0048 -0.1248 -0.3662
  789loPI   C4B11276  15.481   4.062   8.024 -0.1080  0.0756 -0.2605
  790loPI    C111277   9.693   6.922   6.171 -0.0541  0.1032  0.0120
  790loPI    C211278  10.042   6.735   6.225 -0.1124 -0.0542 -0.1467
  790loPI    C311279   9.821   6.656   5.901 -0.3110  0.0204 -0.0311
  790loPI   PO411280   9.665   6.984   6.422 -0.0980 -0.1756 -0.3204
  790loPI   GL111281   9.540   7.145   6.696 -0.0474  0.3044 -0.0727
  790loPI   GL211282   9.556   6.942   6.970  0.1791 -0.1679  0.0095
  790loPI   C1A11283   9.640   7.392   7.188 -0.1144 -0.1984  0.0946
  790loPI   C2A11284   9.642   7.524   7.650  0.0960 -0.2740 -0.2807
  790loPI   C3A11285   9.523   7.516   8.063  0.4351  0.3081 -0.3154
  790loPI   C4A11286   9.600   7.478   8.441 -0.1803  0.2836  0.1099
  790loPI   C5A11287   9.335   7.391   8.793  0.0019  0.3642 -0.0015
  790loPI   C6A11288   9.460   7.291   9.237 -0.3519  0.0602  0.2769
  790loPI   C1B11289   9.613   6.880   7.319  0.0169 -0.0166 -0.2158
  790loPI   C2B11290   9.543   7.054   7.770  0.2801 -0.4140  0.0810
  790loPI   C3B11291   9.568   6.952   8.166 -0.3039  0.0835  0.2160
  790loPI   C4B11292   9.534   6.955   8.526  0.2952  0.1469  0.0635
  791loPI    C111293  12.120  13.537   5.827 -0.2144 -0.0740 -0.0756
  791loPI    C211294  12.482  13.434   5.962 -0.1910  0.0437 -0.0482
  791loPI    C311295  12.285  13.190   5.715 -0.0414  0.0341 -0.1593
  791loPI   PO411296  12.014  13.521   6.040  0.0572  0.1064 -0.1471
  791loPI   GL111297  12.016  13.646   6.466 -0.0837  0.2734 -0.1451
  791loPI   GL211298  12.213  13.850   6.559 -0.0086  0.1832  0.2045
  791loPI   C1A11299  12.143  13.464   6.852 -0.0208  0.1684 -0.1139
  791loPI   C2A11300  12.202  13.500   7.317 -0.1397 -0.0386  0.0497
  791loPI   C3A11301  12.180  13.510   7.787 -0.0981  0.1024 -0.1417
  791loPI   C4A11302  12.343  13.544   8.234 -0.1572  0.2232  0.0460
  791loPI   C5A11303  12.111  13.442   8.542  0.2988  0.1936 -0.1580
  791loPI   C6A11304  11.939  13.077   8.775 -0.0917 -0.0207 -0.1620
  791loPI   C1B11305  12.227  13.931   6.956  0.1259 -0.1860 -0.0557
  791loPI   C2B11306  12.293  13.983   7.399  0.0846 -0.3258 -0.2652
  791loPI   C3B11307  12.294  14.039   7.871 -0.1760  0.1304 -0.0491
  791loPI   C4B11308  12.308  14.000   8.277 -0.0019 -0.2113 -0.0787
  792loPI    C111309  14.921   6.671   5.708 -0.0574 -0.0057 -0.0326
  792loPI    C211310  15.082   6.732   5.347 -0.1462  0.0423 -0.0643
  792loPI    C311311  14.743   6.918   5.449 -0.0709  0.1027  0.0789
  792loPI   PO411312  15.009   6.746   5.963  0.0189  0.0906  0.0462
  792loPI   GL111313  14.785   6.660   6.407 -0.1611  0.0853 -0.1344
  792loPI   GL211314  14.837   6.277   6.457  0.1486 -0.0366  0.1312
  792loPI   C1A11315  14.782   6.735   6.797 -0.1226 -0.1481 -0.0720
  792loPI   C2A11316  14.853   6.677   7.140 -0.0417 -0.0854  0.3726
  792loPI   C3A11317  14.963   6.773   7.547 -0.2603  0.3997  0.1418
  792loPI   C4A11318  14.902   6.881   7.973 -0.1451  0.0016  0.1755
  792loPI   C5A11319  14.645   7.122   8.353  0.3443 -0.1967 -0.2997
  792loPI   C6A11320  14.703   7.391   8.681 -0.1408  0.3759  0.0161
  792loPI   C1B11321  14.794   6.198   7.013  0.1861 -0.0632 -0.0627
  792loPI   C2B11322  14.791   6.256   7.458 -0.0819  0.0808  0.0117
  792loPI   C3B11323  14.886   6.290   7.953  0.0364 -0.1307  0.1120
  792loPI   C4B11324  14.899   6.194   8.376 -0.0725  0.4884  0.0255
  793loPI    C111325   2.098  14.070   6.307  0.0468 -0.1437 -0.0173
  793loPI    C211326   2.135  14.294   5.978 -0.0332 -0.1106 -0.0039
  793loPI    C311327   1.874  14.398   6.263  0.1235 -0.0710  0.1267
  793loPI   PO411328   2.339  14.031   6.370  0.2784 -0.0545 -0.1860
  793loPI   GL111329   2.710  14.173   6.609 -0.3352 -0.1987 -0.4828
  793loPI   GL211330   2.497  13.972   6.784  0.2502  0.1865 -0.1947
  793loPI   C1A11331   2.614  14.358   7.053  0.2339 -0.0133  0.2640
  793loPI   C2A11332   2.542  14.226   7.451  0.2123  0.2404 -0.1931
  793loPI   C3A11333   2.450  14.181   7.856 -0.2585  0.2436  0.0259
  793loPI   C4A11334   2.682  14.200   8.185  0.1535  0.0220 -0.1005
  793loPI   C5A11335   2.911  14.231   8.697  0.1352  0.1467  0.0998
  793loPI   C6A11336   3.230  14.214   8.913  0.0643  0.1710 -0.0813
  793loPI   C1B11337   2.830  13.925   7.131 -0.0470  0.3339  0.2972
  793loPI   C2B11338   2.784  13.751   7.538 -0.1671  0.1589  0.1667
  793loPI   C3B11339   2.746  13.776   7.945  0.2349 -0.1444 -0.3665
  793loPI   C4B11340   2.993  13.890   8.341 -0.2676  0.2717  0.2518
  794loPI    C111341  11.762   9.748   5.970  0.0894  0.1566 -0.1472
  794loPI    C211342  11.959   9.900   5.657  0.0347 -0.0531 -0.2861
  794loPI    C311343  11.784   9.542   5.628 -0.2217  0.0543 -0.1092
  794loPI   PO411344  11.910   9.803   6.142  0.0383 -0.4690  0.0484
  794loPI   GL111345  11.896   9.874   6.573  0.1734 -0.0878 -0.1149
  794loPI   GL211346  11.585   9.915   6.680 -0.0391 -0.0735 -0.0411
  794loPI   C1A11347  12.150  10.079   6.988 -0.0741  0.3683 -0.0572
  794loPI   C2A11348  12.218  10.040   7.407  0.1711 -0.3649 -0.2498
  794loPI   C3A11349  12.278  10.095   7.778  0.0446 -0.0106  0.2630
  794loPI   C4A11350  12.359  10.116   8.237  0.0204  0.0391  0.0487
  794loPI   C5A11351  12.316  10.247   8.643 -0.2137  0.1518  0.0015
  794loPI   C6A11352  12.166  10.303   9.046 -0.0349 -0.0048  0.1520
  794loPI   C1B11353  11.608   9.864   7.138 -0.3322 -0.0762  0.1508
  794loPI   C2B11354  11.752   9.900   7.587 -0.1481 -0.0049 -0.1201
  794loPI   C3B11355  11.898   9.844   8.018 -0.2159  0.1024  0.0602
  794loPI   C4B11356  12.028   9.780   8.468  0.0090  0.1474 -0.2284
  795loPI    C111357   6.149  15.833   5.890 -0.0076  0.1772 -0.0884
  795loPI    C211358   5.947  15.981   5.578 -0.0247  0.3296 -0.0060
  795loPI    C311359   6.296  16.144   5.686  0.2053 -0.0081 -0.2217
  795loPI   PO411360   6.006  15.875   6.131 -0.1372 -0.2243 -0.2760
  795loPI   GL111361   6.218  15.754   6.555  0.1242  0.1938  0.2557
  795loPI   GL211362   6.507  15.660   6.694  0.2781  0.4405  0.0233
  795loPI   C1A11363   6.086  15.834   7.008  0.2024  0.1061 -0.2409
  795loPI   C2A11364   6.236  15.719   7.466  0.4414  0.4009 -0.0928
  795loPI   C3A11365   6.137  15.790   7.893 -0.3376  0.1044 -0.3259
  795loPI   C4A11366   6.221  15.670   8.498 -0.0807  0.2083  0.0125
  795loPI   C5A11367   5.934  15.494   8.766 -0.0320 -0.0685 -0.1790
  795loPI   C6A11368   5.526  15.434   8.851 -0.1384  0.3361 -0.1197
  795loPI   C1B11369   6.633  15.747   7.073 -0.3177  0.1431  0.1207
  795loPI   C2B11370   6.711  15.779   7.482  0.0182 -0.0407  0.1065
  795loPI   C3B11371   6.657  15.755   7.880 -0.1304 -0.2014 -0.2399
  795loPI   C4B11372   6.670  15.765   8.294  0.0175  0.0705  0.0145
  796loPI    C111373  11.696   8.645   5.995  0.0021 -0.1021 -0.1447
  796loPI    C211374  11.305   8.664   5.912 -0.0514 -0.0154  0.1180
  796loPI    C311375  11.557   8.491   5.653 -0.3357 -0.5378  0.1771
  796loPI   PO411376  11.684   8.656   6.252  0.0987 -0.0662 -0.3887
  796loPI   GL111377  11.866   8.872   6.606 -0.1063  0.2254 -0.2046
  796loPI   GL211378  11.911   8.600   6.775  0.0245 -0.2345  0.0037
  796loPI   C1A11379  12.067   9.036   6.997  0.1774  0.1621  0.0349
  796loPI   C2A11380  12.098   9.061   7.457  0.0588 -0.1190  0.0262
  796loPI   C3A11381  12.110   8.991   7.940 -0.3186 -0.0380  0.0228
  796loPI   C4A11382  12.203   8.917   8.409  0.1235 -0.1126  0.0685
  796loPI   C5A11383  12.279   8.795   8.823  0.1899  0.0117  0.1856
  796loPI   C6A11384  12.376   8.931   9.266 -0.0769 -0.1712  0.0371
  796loPI   C1B11385  11.924   8.589   7.255 -0.0618 -0.0759 -0.2708
  796loPI   C2B11386  11.971   8.589   7.724  0.0362  0.1660  0.1179
  796loPI   C3B11387  12.072   8.382   8.132  0.0792 -0.2075 -0.1052
  796loPI   C4B11388  12.203   8.346   8.568 -0.0733  0.4430  0.1629
  797loPI    C111389   6.581  15.473   5.838  0.0529  0.4354 -0.0286
  797loPI    C211390   6.886  15.728   5.883  0.2430  0.2536 -0.2596
  797loPI    C311391   6.957  15.345   5.792 -0.0411  0.1225  0.0504
  797loPI   PO411392   6.404  15.427   6.094 -0.0708  0.2502 -0.1789
  797loPI   GL111393   6.345  15.242   6.496  0.0325 -0.0273 -0.1334
  797loPI   GL211394   6.153  15.049   6.609 -0.3027 -0.0192 -0.1919
  797loPI   C1A11395   6.392  15.295   6.954  0.0775  0.2258  0.3336
  797loPI   C2A11396   6.535  15.322   7.345 -0.4016 -0.0019 -0.1038
  797loPI   C3A11397   6.512  15.331   7.684  0.2013 -0.1951 -0.5503
  797loPI   C4A11398   6.466  15.353   8.162  0.0087  0.1759  0.0099
  797loPI   C5A11399   6.520  15.278   8.643  0.0099  0.1021  0.0160
  797loPI   C6A11400   6.439  15.526   9.019 -0.0411 -0.1767  0.1277
  797loPI   C1B11401   6.245  14.855   7.031  0.2211  0.0927 -0.0051
  797loPI   C2B11402   6.268  14.872   7.494  0.1841  0.0442 -0.0914
  797loPI   C3B11403   6.178  14.869   7.906  0.0541  0.1262  0.1407
  797loPI   C4B11404   6.285  14.837   8.354 -0.0105 -0.0757  0.0656
  798loPI    C111405  16.223   7.236   5.785  0.1416  0.2685  0.1625
  798loPI    C211406  16.521   7.323   5.533  0.0902  0.0376  0.0191
  798loPI    C311407  16.149   7.272   5.394  0.0942 -0.2698  0.1146
  798loPI   PO411408  16.348   7.031   5.898 -0.0467 -0.1384 -0.2619
  798loPI   GL111409  16.562   6.914   6.258 -0.0307  0.0071  0.0975
  798loPI   GL211410  16.812   7.088   6.502  0.2482  0.2231  0.1989
  798loPI   C1A11411  16.677   6.585   6.512 -0.1014 -0.1373  0.1146
  798loPI   C2A11412  16.653   6.619   6.932  0.1619  0.1161  0.1916
  798loPI   C3A11413  16.652   6.567   7.368  0.0923 -0.0585 -0.1324
  798loPI   C4A11414  16.771   6.562   7.771 -0.1347 -0.1331 -0.0213
  798loPI   C5A11415  16.750   6.339   8.157 -0.0146 -0.1580 -0.0657
  798loPI   C6A11416  16.743   6.094   8.495  0.2861 -0.2062 -0.3041
  798loPI   C1B11417  16.641   7.105   6.813 -0.1408 -0.0858 -0.3657
  798loPI   C2B11418  16.722   7.022   7.330  0.2681  0.0039 -0.0660
  798loPI   C3B11419  16.792   7.063   7.776 -0.2908 -0.0544  0.2729
  798loPI   C4B11420  16.750   6.889   8.190 -0.1375  0.1709  0.0327
  799loPI    C111421   7.837   2.149   6.137  0.0074  0.1103  0.0932
  799loPI    C211422   7.457   2.143   6.010 -0.0098  0.2046  0.1391
  799loPI    C311423   7.656   1.800   6.065 -0.0569  0.1581  0.0215
  799loPI   PO411424   7.924   2.291   6.363 -0.1261 -0.3487 -0.2992
  799loPI   GL111425   7.906   2.451   6.764  0.0725  0.2395 -0.2415
  799loPI   GL211426   8.151   2.417   6.998 -0.2463  0.1327 -0.2386
  799loPI   C1A11427   7.699   2.381   7.175  0.1148  0.0484  0.0999
  799loPI   C2A11428   7.687   2.292   7.652 -0.0117 -0.1114 -0.2697
  799loPI   C3A11429   7.624   2.243   8.072 -0.3644 -0.1167  0.1919
  799loPI   C4A11430   7.631   2.220   8.467 -0.0576  0.1495  0.1666
  799loPI   C5A11431   7.727   2.452   8.843  0.3465  0.5448  0.1925
  799loPI   C6A11432   8.075   2.675   9.042  0.3616  0.2993 -0.1346
  799loPI   C1B11433   8.323   2.404   7.332  0.1510 -0.1582  0.0597
  799loPI   C2B11434   8.399   2.519   7.773 -0.0779  0.0684  0.1858
  799loPI   C3B11435   8.356   2.788   8.158 -0.1091  0.2717 -0.0025
  799loPI   C4B11436   8.361   2.833   8.619 -0.0063 -0.1208  0.0847
  800loPI    C111437  12.430  12.732   5.858  0.0926  0.0557 -0.0008
  800loPI    C211438  12.059  12.720   6.006  0.0864  0.1000 -0.0128
  800loPI    C311439  12.116  12.748   5.612  0.1005  0.3030  0.0023
  800loPI   PO411440  12.558  12.859   6.017 -0.0740 -0.0307 -0.1304
  800loPI   GL111441  12.685  12.723   6.317 -0.3921 -0.1483 -0.0017
  800loPI   GL211442  12.403  12.597   6.404  0.2568  0.2997  0.2568
  800loPI   C1A11443  12.907  12.838   6.732 -0.0659 -0.0950  0.3929
  800loPI   C2A11444  13.018  12.884   7.182  0.3368  0.0103 -0.0844
  800loPI   C3A11445  13.045  12.932   7.550  0.1469  0.0852  0.1645
  800loPI   C4A11446  13.074  12.783   7.988  0.0848  0.0284  0.0343
  800loPI   C5A11447  13.072  12.707   8.498  0.4255 -0.0273 -0.0638
  800loPI   C6A11448  12.948  12.359   8.875 -0.3367 -0.1320 -0.2128
  800loPI   C1B11449  12.431  12.708   6.771  0.5621  0.3334 -0.1051
  800loPI   C2B11450  12.506  12.788   7.191 -0.1426  0.1546 -0.1471
  800loPI   C3B11451  12.510  12.700   7.656 -0.2678  0.0025 -0.2293
  800loPI   C4B11452  12.634  12.745   8.108  0.0061  0.2186  0.1050
  801loPI    C111453   1.115   0.865   5.653 -0.1171 -0.1331 -0.4237
  801loPI    C211454   1.453   1.079   5.634 -0.0918 -0.1503 -0.1930
  801loPI    C311455   1.186   1.099   5.337 -0.1524  0.3082 -0.1142
  801loPI   PO411456   1.019   0.977   5.915  0.0143  0.4340  0.0037
  801loPI   GL111457   0.899   1.137   6.338 -0.1765  0.0784 -0.2482
  801loPI   GL211458   1.130   0.920   6.522  0.0279 -0.1421  0.1288
  801loPI   C1A11459   0.708   1.156   6.734 -0.1126  0.0431  0.0770
  801loPI   C2A11460   0.657   1.057   7.129 -0.2832  0.4405 -0.0742
  801loPI   C3A11461   0.741   1.133   7.568  0.0650 -0.2192 -0.1343
  801loPI   C4A11462   0.696   0.983   7.930  0.1224 -0.1275 -0.1768
  801loPI   C5A11463   0.624   0.975   8.435 -0.0196 -0.1358  0.0874
  801loPI   C6A11464   0.665   0.673   8.835  0.0424  0.0406  0.0400
  801loPI   C1B11465   1.091   0.827   6.914  0.1569  0.1569 -0.1954
  801loPI   C2B11466   1.194   0.761   7.369  0.0697 -0.3176 -0.1680
  801loPI   C3B11467   1.102   0.707   7.772  0.2385 -0.1348 -0.0033
  801loPI   C4B11468   0.946   0.644   8.215 -0.1346  0.0559 -0.0693
  802loPI    C111469  15.154  14.451   5.871  0.0909 -0.0467  0.1138
  802loPI    C211470  15.235  14.752   5.620  0.0885 -0.0330  0.1294
  802loPI    C311471  15.158  14.386   5.477 -0.1622  0.0311  0.0967
  802loPI   PO411472  15.324  14.415   6.056  0.0652  0.0924  0.0479
  802loPI   GL111473  15.383  14.515   6.458  0.1951 -0.2452 -0.1873
  802loPI   GL211474  15.136  14.374   6.512  0.3081  0.1504  0.2435
  802loPI   C1A11475  15.454  14.446   6.891 -0.3336 -0.2945  0.3111
  802loPI   C2A11476  15.429  14.379   7.361  0.0806  0.2398  0.1128
  802loPI   C3A11477  15.547  14.402   7.819 -0.0916  0.0498  0.1327
  802loPI   C4A11478  15.679  14.394   8.184  0.1126  0.0767  0.0446
  802loPI   C5A11479  15.206  14.453   8.479  0.0418 -0.2339 -0.2179
  802loPI   C6A11480  14.887  14.842   8.554  0.1365 -0.0843  0.0831
  802loPI   C1B11481  14.953  14.533   6.910 -0.1449 -0.1768 -0.0294
  802loPI   C2B11482  15.086  14.775   7.245 -0.1444 -0.0188  0.0879
  802loPI   C3B11483  15.143  14.686   7.701 -0.2125 -0.0550  0.0881
  802loPI   C4B11484  15.181  14.874   8.141 -0.4093  0.3198  0.3177
  803loPI    C111485  16.473  11.944   5.879  0.1052 -0.0057  0.1070
  803loPI    C211486  16.855  11.994   5.770  0.0355  0.0076 -0.1379
  803loPI    C311487  16.566  11.994   5.493 -0.1280 -0.1523  0.0294
  803loPI   PO411488  16.532  11.675   6.101  0.0066 -0.2454 -0.5200
  803loPI   GL111489  16.423  11.470   6.439  0.1586 -0.0401 -0.1135
  803loPI   GL211490  16.165  11.526   6.473 -0.1570 -0.1047 -0.0550
  803loPI   C1A11491  16.568  11.299   6.728 -0.2027 -0.0694 -0.0996
  803loPI   C2A11492  16.563  11.296   7.117  0.2323 -0.1099  0.0692
  803loPI   C3A11493  16.452  11.381   7.529  0.1104 -0.1274  0.0137
  803loPI   C4A11494  16.529  11.452   7.929  0.0067 -0.0841  0.0800
  803loPI   C5A11495  16.476  11.445   8.388 -0.0558  0.3493 -0.1493
  803loPI   C6A11496  16.204  11.381   8.659 -0.0327  0.1167  0.0169
  803loPI   C1B11497  16.183  11.572   6.920  0.1602  0.0210 -0.0962
  803loPI   C2B11498  16.044  11.635   7.356  0.0440 -0.3144 -0.0968
  803loPI   C3B11499  16.127  11.675   7.797  0.0876 -0.3355 -0.0273
  803loPI   C4B11500  16.009  11.736   8.235  0.1337  0.0088  0.2163
  804loPI    C111501   6.428   5.524   5.988  0.0808  0.1324 -0.1177
  804loPI    C211502   6.045   5.525   5.873  0.0188  0.0582  0.0830
  804loPI    C311503   6.278   5.842   5.798 -0.1431  0.1970  0.1607
  804loPI   PO411504   6.356   5.454   6.356  0.2871  0.1468 -0.0089
  804loPI   GL111505   6.160   5.546   6.794 -0.0535  0.2571 -0.1224
  804loPI   GL211506   6.376   5.799   6.852  0.2712 -0.1540  0.0259
  804loPI   C1A11507   6.143   5.410   7.200 -0.1301  0.1301 -0.0888
  804loPI   C2A11508   6.261   5.422   7.615 -0.1887 -0.0278  0.1783
  804loPI   C3A11509   6.127   5.443   7.933 -0.2692  0.2587  0.0840
  804loPI   C4A11510   6.151   5.360   8.348 -0.3080  0.2460 -0.0433
  804loPI   C5A11511   6.218   5.203   8.752  0.0107  0.2570 -0.0542
  804loPI   C6A11512   6.083   5.069   9.174  0.1158 -0.0412  0.2859
  804loPI   C1B11513   6.467   5.881   7.275  0.1605 -0.2008 -0.0838
  804loPI   C2B11514   6.440   5.919   7.707  0.2142 -0.0614 -0.0556
  804loPI   C3B11515   6.382   5.817   8.103 -0.0269  0.0666 -0.0208
  804loPI   C4B11516   6.394   5.924   8.564  0.2283 -0.3460 -0.0433
  805loPI    C111517   6.376   9.261   6.416 -0.0914  0.0554  0.0833
  805loPI    C211518   6.575   8.921   6.345  0.1974  0.2472 -0.0469
  805loPI    C311519   6.432   9.136   6.040 -0.0798  0.1904  0.0397
  805loPI   PO411520   6.277   9.210   6.575  0.2310  0.3562 -0.1784
  805loPI   GL111521   6.238   8.902   6.866 -0.1047 -0.3377  0.3584
  805loPI   GL211522   6.469   8.693   6.912  0.1434 -0.1579  0.0228
  805loPI   C1A11523   6.226   9.134   7.264  0.2846  0.0935  0.1943
  805loPI   C2A11524   6.196   9.121   7.690  0.0300  0.1696 -0.1308
  805loPI   C3A11525   6.220   9.057   8.097  0.0412 -0.2385 -0.1106
  805loPI   C4A11526   6.060   9.133   8.481 -0.1416 -0.3145  0.1555
  805loPI   C5A11527   6.238   9.003   8.865 -0.0679 -0.0186  0.2167
  805loPI   C6A11528   6.400   8.854   9.252  0.2395  0.3625 -0.1012
  805loPI   C1B11529   6.288   8.672   7.330 -0.0109  0.0030 -0.0429
  805loPI   C2B11530   6.366   8.630   7.808  0.3287 -0.1213  0.3004
  805loPI   C3B11531   6.592   8.657   8.145 -0.1766 -0.0627 -0.2333
  805loPI   C4B11532   6.535   8.646   8.601  0.0308  0.1286 -0.0168
  806loPI    C111533   8.712   6.838   6.374  0.0770 -0.1520 -0.0163
  806loPI    C211534   8.594   6.820   5.993  0.2376 -0.3053 -0.0603
  806loPI    C311535   8.959   6.955   6.082 -0.0070  0.2898  0.0834
  806loPI   PO411536   8.685   6.630   6.490  0.0006  0.0152 -0.0748
  806loPI   GL111537   8.812   6.550   6.857  0.0386  0.1899 -0.0106
  806loPI   GL211538   9.124   6.729   6.982  0.0400  0.1129 -0.3326
  806loPI   C1A11539   8.658   6.341   7.211  0.0669 -0.0928  0.1231
  806loPI   C2A11540   8.674   6.541   7.608 -0.2339  0.1409  0.1782
  806loPI   C3A11541   8.668   6.484   8.010  0.2500  0.1167  0.0192
  806loPI   C4A11542   8.556   6.396   8.411 -0.1029 -0.1639  0.1133
  806loPI   C5A11543   8.668   6.453   8.781  0.0006  0.0588 -0.1416
  806loPI   C6A11544   8.535   6.187   8.953 -0.1073  0.0896  0.1227
  806loPI   C1B11545   9.144   6.727   7.416  0.1815 -0.0047  0.1873
  806loPI   C2B11546   9.099   6.832   7.877 -0.1141  0.0492 -0.0035
  806loPI   C3B11547   9.087   6.666   8.323 -0.1222 -0.0791  0.2435
  806loPI   C4B11548   9.040   6.333   8.480 -0.0300  0.2143 -0.4524
  807loPI    C111549   4.768   5.877   6.275 -0.1195 -0.2087  0.0740
  807loPI    C211550   5.084   5.739   6.072  0.0384 -0.0313  0.1948
  807loPI    C311551   4.746   5.832   5.878  0.2350  0.2742 -0.0095
  807loPI   PO411552   4.871   6.090   6.359  0.1731 -0.1359  0.0425
  807loPI   GL111553   5.268   6.021   6.593  0.0872 -0.0347  0.4645
  807loPI   GL211554   5.288   6.405   6.668  0.1546 -0.0388  0.0409
  807loPI   C1A11555   5.355   5.872   6.929 -0.0618  0.2436  0.3127
  807loPI   C2A11556   5.419   5.856   7.389 -0.0752 -0.3969 -0.0805
  807loPI   C3A11557   5.408   5.779   7.848 -0.0653  0.1603  0.2449
  807loPI   C4A11558   5.483   5.958   8.265 -0.3110 -0.0482 -0.2685
  807loPI   C5A11559   5.507   6.002   8.685  0.1964  0.2342 -0.0362
  807loPI   C6A11560   5.592   6.517   8.624 -0.0258  0.0104  0.0957
  807loPI   C1B11561   5.173   6.302   7.110 -0.3030  0.0894 -0.2867
  807loPI   C2B11562   5.232   6.317   7.505 -0.1656 -0.0451  0.0118
  807loPI   C3B11563   5.237   6.248   7.931 -0.2277 -0.0867  0.1138
  807loPI   C4B11564   5.161   6.355   8.321 -0.0779  0.0324  0.0464
  808loPI    C111565  15.922  16.899   6.028 -0.0521  0.1368 -0.0628
  808loPI    C211566  15.592  16.843   5.808 -0.0559 -0.1915  0.0201
  808loPI    C311567  15.952  16.768   5.651 -0.0112  0.2370 -0.0944
  808loPI   PO411568  15.862  16.806   6.256 -0.1561  0.0611 -0.4989
  808loPI   GL111569  16.133  16.685   6.522 -0.2320  0.0629 -0.2174
  808loPI   GL211570  16.286  16.371   6.586  0.2872 -0.1907 -0.2586
  808loPI   C1A11571  16.354  16.678   6.955 -0.0242  0.3249 -0.0305
  808loPI   C2A11572  16.344  16.772   7.252 -0.1012 -0.0377 -0.3472
  808loPI   C3A11573  16.282  16.675   7.695  0.0223 -0.2561 -0.0862
  808loPI   C4A11574  16.241  16.739   8.152  0.0202  0.0544 -0.0050
  808loPI   C5A11575  16.082  16.993   8.528 -0.3602  0.0088  0.1910
  808loPI   C6A11576  15.928  16.870   8.906  0.2246  0.2444 -0.0541
  808loPI   C1B11577  16.248  16.187   6.963 -0.0161  0.1656 -0.0689
  808loPI   C2B11578  16.233  16.170   7.428 -0.1027  0.0357  0.3951
  808loPI   C3B11579  16.223  16.097   7.889  0.1246 -0.0314 -0.1932
  808loPI   C4B11580  16.129  16.258   8.285  0.1840  0.0011  0.1614
  809loPI    C111581   8.513   0.845   6.614 -0.0253 -0.0535 -0.1026
  809loPI    C211582   8.580   0.924   6.227 -0.1146 -0.0840 -0.1246
  809loPI    C311583   8.673   1.195   6.506  0.3382 -0.2233 -0.1314
  809loPI   PO411584   8.234   0.675   6.540  0.2327 -0.0061 -0.1424
  809loPI   GL111585   8.011   0.597   6.894  0.2056  0.0819 -0.1133
  809loPI   GL211586   7.813   0.338   6.926  0.0472 -0.0047  0.0342
  809loPI   C1A11587   8.112   0.777   7.199  0.3084 -0.1095  0.2440
  809loPI   C2A11588   8.023   0.813   7.650 -0.1237  0.2841 -0.0676
  809loPI   C3A11589   7.991   0.850   8.064 -0.2053  0.0172 -0.0983
  809loPI   C4A11590   7.976   1.025   8.490  0.1367  0.0276 -0.1657
  809loPI   C5A11591   8.208   0.897   8.885 -0.1614  0.0821 -0.0934
  809loPI   C6A11592   8.333   0.646   9.108  0.1993  0.1249 -0.0213
  809loPI   C1B11593   7.650   0.523   7.287  0.0451  0.3505  0.0126
  809loPI   C2B11594   7.581   0.631   7.793 -0.2098 -0.1633 -0.1333
  809loPI   C3B11595   7.381   0.878   8.100  0.1197  0.2303  0.0136
  809loPI   C4B11596   7.414   0.862   8.605 -0.1718  0.1388 -0.0707
  810loPI    C111597  11.662  12.187   6.010 -0.1641 -0.0727 -0.0671
  810loPI    C211598  11.921  12.290   5.723 -0.2682  0.2410 -0.0521
  810loPI    C311599  11.747  11.930   5.715 -0.1473  0.1855 -0.2919
  810loPI   PO411600  11.913  12.343   6.249  0.0001  0.1524  0.0950
  810loPI   GL111601  11.908  12.467   6.733 -0.1041  0.2003 -0.1116
  810loPI   GL211602  11.948  12.776   6.558  0.2343  0.0826 -0.1092
  810loPI   C1A11603  11.953  12.537   7.203 -0.1105  0.3148  0.2106
  810loPI   C2A11604  12.038  12.529   7.659  0.3916  0.0414 -0.0534
  810loPI   C3A11605  12.038  12.523   8.102 -0.0114 -0.1495  0.0165
  810loPI   C4A11606  12.023  12.448   8.593 -0.1793 -0.1120 -0.1504
  810loPI   C5A11607  11.882  12.285   8.955 -0.0671 -0.0413 -0.0059
  810loPI   C6A11608  11.580  11.870   8.982 -0.0211 -0.2366 -0.0918
  810loPI   C1B11609  12.015  12.969   6.945 -0.1780  0.1562  0.0667
  810loPI   C2B11610  12.041  12.970   7.432 -0.3856  0.0341  0.1903
  810loPI   C3B11611  12.073  13.019   7.898  0.0278 -0.2807  0.0702
  810loPI   C4B11612  12.138  12.994   8.333 -0.0377  0.0568  0.0226
  811loPI    C111613  16.438   7.814   5.871 -0.0573  0.2743 -0.1313
  811loPI    C211614  16.837   7.803   5.897 -0.0812 -0.2480  0.1435
  811loPI    C311615  16.660   7.806   5.538  0.1662  0.0870  0.0192
  811loPI   PO411616  16.323   7.653   6.048  0.2103  0.1608 -0.4080
  811loPI   GL111617  16.182   7.310   6.329 -0.3471  0.2990 -0.0354
  811loPI   GL211618  16.435   7.485   6.523  0.1296 -0.0006 -0.0478
  811loPI   C1A11619  15.827   7.186   6.522  0.0965 -0.0109 -0.2495
  811loPI   C2A11620  15.771   7.186   6.984  0.1557 -0.1763  0.1833
  811loPI   C3A11621  15.936   7.245   7.425 -0.1272 -0.0850 -0.0295
  811loPI   C4A11622  15.975   7.193   7.878  0.2397 -0.0358  0.0035
  811loPI   C5A11623  16.199   7.170   8.277  0.4948 -0.0854  0.3080
  811loPI   C6A11624  16.549   7.245   8.542 -0.0312  0.1355 -0.1348
  811loPI   C1B11625  16.217   7.327   6.806  0.1527 -0.2028 -0.0266
  811loPI   C2B11626  16.402   7.452   7.228  0.2078  0.0041 -0.1911
  811loPI   C3B11627  16.430   7.371   7.695  0.1797  0.0267 -0.2225
  811loPI   C4B11628  16.625   7.383   8.073 -0.1958 -0.0201 -0.1928
  812loPI    C111629   5.749   4.660   6.346  0.1309  0.4272  0.3224
  812loPI    C211630   6.123   4.584   6.226 -0.0236  0.1095  0.0245
  812loPI    C311631   5.934   4.326   6.466 -0.1842  0.0758 -0.1365
  812loPI   PO411632   5.740   4.939   6.378  0.0499 -0.0944 -0.1995
  812loPI   GL111633   5.757   5.140   6.778 -0.1885  0.0428 -0.1667
  812loPI   GL211634   5.663   5.465   6.849 -0.3580  0.2721  0.0844
  812loPI   C1A11635   5.903   4.971   7.196 -0.0175 -0.1527  0.0344
  812loPI   C2A11636   5.957   5.017   7.575  0.0344 -0.1158 -0.0738
  812loPI   C3A11637   5.942   4.883   8.027 -0.0834 -0.0598 -0.2172
  812loPI   C4A11638   5.915   4.920   8.451 -0.2344  0.0072 -0.1630
  812loPI   C5A11639   5.762   4.696   8.807 -0.2345 -0.1472  0.0045
  812loPI   C6A11640   5.980   4.273   8.881 -0.0260 -0.1696  0.1255
  812loPI   C1B11641   5.663   5.410   7.281 -0.2039  0.0448  0.2237
  812loPI   C2B11642   5.674   5.408   7.692 -0.0728  0.1963 -0.2896
  812loPI   C3B11643   5.620   5.398   8.101  0.0633  0.1346  0.2151
  812loPI   C4B11644   5.669   5.503   8.514  0.2352  0.2761  0.0217
  813loPI    C111645  16.634   9.773   5.773  0.0429 -0.3298 -0.1946
  813loPI    C211646  16.331   9.918   5.555 -0.1368 -0.4330 -0.0174
  813loPI    C311647  16.645   9.749   5.374 -0.0313 -0.0366 -0.2168
  813loPI   PO411648  16.543   9.560   6.029 -0.1080 -0.0757  0.1652
  813loPI   GL111649  16.656   9.412   6.456  0.2443 -0.3533  0.1108
  813loPI   GL211650  16.633   9.011   6.542 -0.1873 -0.4473  0.2988
  813loPI   C1A11651  16.698   9.427   6.891  0.2786  0.1563  0.1841
  813loPI   C2A11652  16.748   9.390   7.341 -0.1505  0.1129  0.0751
  813loPI   C3A11653  16.760   9.435   7.727  0.0852 -0.3901 -0.1194
  813loPI   C4A11654  16.620   9.527   8.121 -0.0642  0.0360  0.0969
  813loPI   C5A11655  16.789   9.730   8.447  0.1692  0.2060 -0.0164
  813loPI   C6A11656  16.571  10.117   8.639 -0.1502  0.2027  0.2145
  813loPI   C1B11657  16.680   8.928   6.908  0.2173  0.1246  0.0676
  813loPI   C2B11658  16.621   8.877   7.385  0.0152  0.1565  0.1075
  813loPI   C3B11659  16.619   8.893   7.769 -0.1391  0.0547  0.1100
  813loPI   C4B11660  16.494   8.866   8.197 -0.0714 -0.2299  0.3638
  814loPI    C111661  15.994   8.071   5.686 -0.0156 -0.0542 -0.0211
  814loPI    C211662  16.136   7.789   5.440  0.0359 -0.0725  0.0294
  814loPI    C311663  16.298   8.155   5.439 -0.1208 -0.0019 -0.1338
  814loPI   PO411664  15.939   7.993   5.940 -0.0439  0.0423 -0.0633
  814loPI   GL111665  15.654   7.845   6.162 -0.2339 -0.0860 -0.1692
  814loPI   GL211666  15.968   7.762   6.409  0.1572 -0.0148 -0.0866
  814loPI   C1A11667  15.549   7.988   6.557  0.3631  0.0214  0.0884
  814loPI   C2A11668  15.532   7.993   7.011 -0.0741 -0.2161 -0.3737
  814loPI   C3A11669  15.587   7.958   7.476 -0.1721 -0.0585  0.1880
  814loPI   C4A11670  15.644   8.017   7.907  0.0588  0.1214 -0.0428
  814loPI   C5A11671  15.628   8.505   8.109  0.2062  0.1383 -0.0535
  814loPI   C6A11672  15.476   8.946   8.346 -0.0316  0.1645  0.5029
  814loPI   C1B11673  15.998   7.792   6.856 -0.2544 -0.3546  0.3712
  814loPI   C2B11674  15.980   7.716   7.222  0.1344  0.0505 -0.0174
  814loPI   C3B11675  15.997   7.691   7.646  0.1834 -0.1359 -0.1053
  814loPI   C4B11676  16.226   7.647   8.027 -0.0190  0.2260 -0.1612
  815loPI    C111677   3.515  14.263   6.046  0.1156  0.1738 -0.1969
  815loPI    C211678   3.179  14.130   5.875  0.1015 -0.0867  0.0281
  815loPI    C311679   3.516  14.156   5.661  0.0224 -0.1627 -0.1068
  815loPI   PO411680   3.554  14.253   6.346 -0.1266  0.2550 -0.0263
  815loPI   GL111681   3.691  14.233   6.825 -0.2365 -0.1164  0.2293
  815loPI   GL211682   3.657  13.896   6.671  0.2066 -0.0919  0.0902
  815loPI   C1A11683   3.862  14.306   7.253 -0.2318  0.0855  0.2235
  815loPI   C2A11684   3.979  14.368   7.685 -0.1471  0.0552 -0.1890
  815loPI   C3A11685   4.063  14.376   8.066  0.0574  0.1111 -0.0346
  815loPI   C4A11686   4.149  14.404   8.509  0.3788 -0.0023  0.1940
  815loPI   C5A11687   4.211  14.620   8.810  0.0179 -0.2967 -0.1630
  815loPI   C6A11688   4.573  14.831   8.832 -0.0854  0.1104  0.0738
  815loPI   C1B11689   3.740  13.805   7.142 -0.0110 -0.2029  0.1061
  815loPI   C2B11690   3.633  13.984   7.563  0.1723  0.0617 -0.2487
  815loPI   C3B11691   3.568  14.042   7.937  0.1370 -0.1534  0.0367
  815loPI   C4B11692   3.483  13.925   8.248 -0.2576  0.1574 -0.1263
  816loPI    C111693   9.215   5.659   6.490  0.0350 -0.2923  0.2251
  816loPI    C211694   8.818   5.696   6.520  0.0491  0.0854  0.0086
  816loPI    C311695   8.981   5.558   6.182  0.1006 -0.1670  0.1336
  816loPI   PO411696   9.350   5.514   6.713  0.0378 -0.1539  0.2437
  816loPI   GL111697   9.505   5.406   7.068 -0.0649 -0.3627  0.0546
  816loPI   GL211698   9.360   5.131   7.072  0.0760  0.0729 -0.4307
  816loPI   C1A11699   9.503   5.370   7.580 -0.3677  0.3345  0.1533
  816loPI   C2A11700   9.409   5.437   8.001 -0.0992 -0.0884  0.1190
  816loPI   C3A11701   9.395   5.431   8.436  0.0753  0.0506  0.1219
  816loPI   C4A11702   9.481   5.228   8.888 -0.0627 -0.3546 -0.1823
  816loPI   C5A11703   9.087   5.156   9.211 -0.0838  0.2245  0.3287
  816loPI   C6A11704   8.715   5.090   9.271 -0.0782 -0.2736 -0.0022
  816loPI   C1B11705   9.596   4.927   7.358  0.1091  0.2625  0.0340
  816loPI   C2B11706   9.673   4.980   7.795  0.1166 -0.2721 -0.1518
  816loPI   C3B11707   9.751   5.176   8.151  0.0812 -0.1459 -0.1885
  816loPI   C4B11708   9.816   5.053   8.522 -0.1079  0.0394 -0.3177
  817loPI    C111709   4.987  14.048   6.158 -0.3037  0.1517 -0.1222
  817loPI    C211710   4.914  14.365   5.925 -0.0045  0.4006  0.1136
  817loPI    C311711   5.284  14.215   5.949 -0.1704 -0.0647 -0.1086
  817loPI   PO411712   4.878  14.096   6.432 -0.2388  0.2625 -0.1744
  817loPI   GL111713   4.925  14.387   6.860 -0.0241  0.2798 -0.1281
  817loPI   GL211714   5.077  14.035   6.923 -0.0785  0.0661 -0.4593
  817loPI   C1A11715   4.936  14.396   7.273 -0.2415 -0.5092  0.1161
  817loPI   C2A11716   4.992  14.457   7.772  0.1355  0.0827 -0.2249
  817loPI   C3A11717   4.954  14.407   8.196  0.0498  0.0513 -0.0836
  817loPI   C4A11718   5.128  14.462   8.614  0.1137  0.3825 -0.1579
  817loPI   C5A11719   5.326  14.602   9.017 -0.0301 -0.1289 -0.4490
  817loPI   C6A11720   5.380  14.612   9.433  0.3934  0.0654  0.1214
  817loPI   C1B11721   5.238  13.943   7.340 -0.2902 -0.2655 -0.0317
  817loPI   C2B11722   5.174  13.840   7.750  0.2994 -0.0896  0.0845
  817loPI   C3B11723   5.188  14.001   8.074 -0.1061 -0.2678 -0.1245
  817loPI   C4B11724   5.043  13.865   8.348  0.0032  0.1200  0.0305
  818loPI    C111725   3.769  10.602   6.192 -0.0134  0.0790 -0.2547
  818loPI    C211726   3.599  10.294   6.002 -0.0131 -0.0446 -0.0571
  818loPI    C311727   3.395  10.634   6.055 -0.1454 -0.1386  0.0439
  818loPI   PO411728   3.834  10.635   6.459 -0.1202 -0.0238  0.0609
  818loPI   GL111729   3.904  10.617   6.817 -0.1546  0.1544  0.0361
  818loPI   GL211730   3.606  10.562   6.894 -0.2476  0.0870 -0.0600
  818loPI   C1A11731   3.876  10.283   7.240  0.3726  0.2919 -0.0754
  818loPI   C2A11732   3.865  10.205   7.705  0.1647 -0.2801 -0.2610
  818loPI   C3A11733   3.739  10.325   8.147 -0.0386 -0.0917 -0.6004
  818loPI   C4A11734   3.665  10.295   8.503  0.1919 -0.0246  0.1516
  818loPI   C5A11735   3.447  10.376   8.897  0.1666  0.0187  0.0786
  818loPI   C6A11736   3.074  10.664   8.942  0.2657  0.0404 -0.0913
  818loPI   C1B11737   3.523  10.576   7.354 -0.2907 -0.0823  0.0426
  818loPI   C2B11738   3.591  10.611   7.755  0.0083 -0.0507 -0.0784
  818loPI   C3B11739   3.264  10.640   8.067  0.0342 -0.0777 -0.0400
  818loPI   C4B11740   3.243  10.846   8.496  0.0710 -0.1365 -0.1433
  819loPI    C111741   7.906   6.772   6.112  0.1279  0.1282  0.0616
  819loPI    C211742   8.136   7.028   5.909 -0.0446  0.2022 -0.0424
  819loPI    C311743   8.064   6.664   5.761 -0.3054  0.3146 -0.1985
  819loPI   PO411744   7.693   6.881   6.171  0.0351 -0.1056  0.2830
  819loPI   GL111745   7.632   6.963   6.571 -0.2609 -0.1056 -0.1777
  819loPI   GL211746   7.335   7.126   6.707 -0.0114 -0.1496 -0.0601
  819loPI   C1A11747   7.769   7.154   7.050 -0.3483 -0.1308  0.0858
  819loPI   C2A11748   7.656   7.175   7.526 -0.0833  0.0169  0.1320
  819loPI   C3A11749   7.762   7.153   7.917  0.0730  0.1710  0.1091
  819loPI   C4A11750   7.615   7.370   8.203 -0.0113 -0.0364  0.1362
  819loPI   C5A11751   7.621   7.315   8.675 -0.0777 -0.0330 -0.1220
  819loPI   C6A11752   7.238   7.471   8.887  0.1284 -0.0814  0.2101
  819loPI   C1B11753   7.262   7.152   7.134  0.0018 -0.2080  0.0308
  819loPI   C2B11754   7.146   7.219   7.546 -0.2385 -0.5638  0.0662
  819loPI   C3B11755   7.185   7.308   7.976  0.1344 -0.0719  0.0490
  819loPI   C4B11756   7.147   7.383   8.427 -0.3174 -0.2429  0.0729
  820loPI    C111757   8.063   1.804   6.384 -0.0234  0.0386 -0.1575
  820loPI    C211758   8.326   2.041   6.196  0.0286 -0.0342 -0.1770
  820loPI    C311759   8.181   1.717   6.012  0.3230 -0.2847  0.0209
  820loPI   PO411760   8.036   1.905   6.643  0.0651 -0.0007  0.0925
  820loPI   GL111761   7.770   1.947   6.970  0.1090 -0.1758  0.0386
  820loPI   GL211762   7.775   1.704   7.102  0.3242  0.0453 -0.0595
  820loPI   C1A11763   8.036   2.032   7.393  0.0473 -0.0827 -0.1341
  820loPI   C2A11764   8.160   2.083   7.893  0.0823 -0.2511 -0.3431
  820loPI   C3A11765   8.152   2.305   8.221  0.1158 -0.0628 -0.1136
  820loPI   C4A11766   8.166   2.379   8.617 -0.1980 -0.0064  0.0929
  820loPI   C5A11767   8.326   2.256   9.007  0.0535  0.1179 -0.1117
  820loPI   C6A11768   8.430   2.470   9.374  0.2216 -0.1707 -0.1559
  820loPI   C1B11769   7.645   1.810   7.486  0.0650  0.1535  0.0360
  820loPI   C2B11770   7.636   1.817   7.903 -0.2010  0.0903 -0.0911
  820loPI   C3B11771   7.397   1.802   8.292  0.1797 -0.0805  0.0457
  820loPI   C4B11772   7.323   1.920   8.744  0.3304  0.0682  0.0051
  821loPI    C111773   7.705   0.653   6.456 -0.0196 -0.0990  0.1053
  821loPI    C211774   7.893   0.836   6.154 -0.1253 -0.0497  0.0689
  821loPI    C311775   7.882   0.437   6.169  0.0875 -0.0543  0.1372
  821loPI   PO411776   7.522   0.685   6.480 -0.0614 -0.2566 -0.1327
  821loPI   GL111777   7.342   0.639   6.894 -0.0665 -0.0713 -0.0866
  821loPI   GL211778   7.344   0.315   6.842 -0.1000  0.1396 -0.0722
  821loPI   C1A11779   7.221   0.921   7.212 -0.1594  0.0835  0.1063
  821loPI   C2A11780   7.063   0.958   7.599  0.0557 -0.1165  0.1200
  821loPI   C3A11781   6.901   0.893   7.925 -0.0478 -0.1463  0.1723
  821loPI   C4A11782   6.923   0.946   8.312  0.0615  0.2037  0.0839
  821loPI   C5A11783   6.937   1.024   8.600 -0.1533 -0.0543 -0.1035
  821loPI   C6A11784   7.007   1.104   9.112  0.2427  0.5142  0.0536
  821loPI   C1B11785   7.138   0.395   7.286 -0.1328 -0.2662 -0.0197
  821loPI   C2B11786   6.999   0.407   7.690  0.0367  0.2687 -0.1083
  821loPI   C3B11787   7.242   0.370   8.071  0.2945  0.2546 -0.0833
  821loPI   C4B11788   7.584   0.474   8.296 -0.0721  0.2789  0.0433
  822loPI    C111789   4.629   2.817   6.351  0.0570  0.1216 -0.0585
  822loPI    C211790   4.470   2.940   6.005 -0.0368  0.2522  0.0300
  822loPI    C311791   4.592   2.561   6.046 -0.1773  0.1931 -0.0919
  822loPI   PO411792   4.793   3.045   6.368  0.0367 -0.0711  0.2826
  822loPI   GL111793   5.065   3.086   6.676  0.1748  0.0229  0.3767
  822loPI   GL211794   5.335   2.955   6.643 -0.3011  0.2095  0.0004
  822loPI   C1A11795   5.053   3.053   7.204 -0.1242  0.0283  0.0707
  822loPI   C2A11796   4.974   3.039   7.638 -0.2564 -0.0368  0.0141
  822loPI   C3A11797   4.919   3.099   8.089  0.1973 -0.3545 -0.1487
  822loPI   C4A11798   4.873   3.260   8.495 -0.4245  0.2677  0.0990
  822loPI   C5A11799   4.995   3.092   8.894 -0.1435  0.1872  0.2030
  822loPI   C6A11800   5.096   2.691   9.048 -0.2358  0.1772 -0.3166
  822loPI   C1B11801   5.552   2.987   6.995 -0.0423 -0.1312  0.0799
  822loPI   C2B11802   5.513   3.220   7.334 -0.0316  0.1754  0.0017
  822loPI   C3B11803   5.468   3.116   7.822 -0.1838  0.0994 -0.1679
  822loPI   C4B11804   5.329   3.144   8.308  0.0294  0.3293 -0.0989
  823loPI    C111805   8.032   7.386   6.290  0.3165 -0.2161 -0.2043
  823loPI    C211806   8.248   7.710   6.201 -0.0154  0.0406 -0.0930
  823loPI    C311807   8.021   7.537   5.920 -0.0569  0.0747 -0.0807
  823loPI   PO411808   7.919   7.505   6.515  0.3041 -0.0923  0.0547
  823loPI   GL111809   7.712   7.590   6.755 -0.1535  0.3650  0.0727
  823loPI   GL211810   7.428   7.590   6.899  0.1710  0.1835  0.1040
  823loPI   C1A11811   7.961   7.599   7.149 -0.0515 -0.1998 -0.1224
  823loPI   C2A11812   8.057   7.702   7.562  0.0494  0.3220  0.0565
  823loPI   C3A11813   7.990   7.636   8.030  0.2353  0.4066  0.0028
  823loPI   C4A11814   7.939   7.668   8.501 -0.0233 -0.2600 -0.2712
  823loPI   C5A11815   7.776   7.684   8.928  0.1401  0.0063  0.0452
  823loPI   C6A11816   7.874   8.039   9.214 -0.2605  0.2580  0.0223
  823loPI   C1B11817   7.504   7.667   7.272 -0.2045 -0.0516  0.0215
  823loPI   C2B11818   7.499   7.698   7.672 -0.1329  0.3292  0.1767
  823loPI   C3B11819   7.507   7.801   8.050 -0.0829 -0.0289  0.2028
  823loPI   C4B11820   7.505   7.864   8.480 -0.1584  0.0890 -0.2193
  824loPI    C111821   3.933   3.025   6.325  0.0132 -0.1749  0.0675
  824loPI    C211822   3.907   3.402   6.194  0.0328 -0.1387  0.1671
  824loPI    C311823   3.672   3.119   6.037  0.1912 -0.1344 -0.0831
  824loPI   PO411824   4.108   2.878   6.361 -0.0867 -0.0722 -0.0623
  824loPI   GL111825   4.321   2.874   6.742  0.0677  0.3240 -0.1997
  824loPI   GL211826   4.272   2.581   6.927 -0.0889  0.1166 -0.2100
  824loPI   C1A11827   4.513   2.952   7.101 -0.2080 -0.1448 -0.1341
  824loPI   C2A11828   4.510   3.066   7.522 -0.1534 -0.1018 -0.1286
  824loPI   C3A11829   4.380   3.086   7.941  0.1623  0.0515 -0.0686
  824loPI   C4A11830   4.361   3.137   8.337 -0.0925 -0.2310  0.1287
  824loPI   C5A11831   4.466   3.003   8.672  0.0168  0.3398  0.1121
  824loPI   C6A11832   4.555   2.592   8.852  0.1180  0.0333  0.2105
  824loPI   C1B11833   4.258   2.653   7.435 -0.2893  0.3404 -0.0119
  824loPI   C2B11834   4.187   2.613   7.837 -0.1297  0.1457  0.1552
  824loPI   C3B11835   4.241   2.609   8.264  0.0380  0.2026  0.2039
  824loPI   C4B11836   4.068   2.800   8.562 -0.1387 -0.1377  0.0910
  825loPI    C111837  13.188  15.960   5.705 -0.1290  0.0503  0.1717
  825loPI    C211838  13.459  16.056   5.427 -0.0517  0.0599  0.2499
  825loPI    C311839  13.092  16.214   5.412 -0.1059 -0.0813  0.0488
  825loPI   PO411840  13.354  15.745   5.919  0.1568 -0.1272 -0.1482
  825loPI   GL111841  13.357  15.775   6.439  0.4376  0.0293  0.0708
  825loPI   GL211842  13.520  16.015   6.728  0.3145 -0.1384 -0.1754
  825loPI   C1A11843  13.276  15.622   6.875 -0.2920  0.1497 -0.1080
  825loPI   C2A11844  13.288  15.497   7.221 -0.1507 -0.1138  0.0354
  825loPI   C3A11845  13.385  15.493   7.724  0.3182 -0.0382  0.0617
  825loPI   C4A11846  13.337  15.499   8.231 -0.1760 -0.2202 -0.0266
  825loPI   C5A11847  13.169  15.367   8.607 -0.0492  0.1998 -0.0496
  825loPI   C6A11848  12.964  15.534   9.077  0.0001  0.0392  0.2302
  825loPI   C1B11849  13.451  15.980   7.176 -0.0238 -0.0332 -0.2464
  825loPI   C2B11850  13.502  15.991   7.599 -0.1138 -0.1742 -0.3660
  825loPI   C3B11851  13.354  16.011   8.093  0.0078 -0.0344  0.1601
  825loPI   C4B11852  13.472  15.885   8.485  0.2160  0.2359 -0.1172
  826loPI    C111853   9.876  15.076   6.486  0.1324 -0.2083  0.1702
  826loPI    C211854   9.890  14.899   6.128 -0.1900  0.0517  0.0236
  826loPI    C311855   9.932  14.681   6.461  0.0280 -0.2043 -0.1670
  826loPI   PO411856   9.973  15.227   6.528  0.0645  0.2538  0.2364
  826loPI   GL111857  10.230  15.257   6.808  0.1838  0.1384  0.2964
  826loPI   GL211858  10.343  15.558   6.901 -0.2415  0.2508  0.1800
  826loPI   C1A11859  10.168  15.207   7.281  0.1577 -0.0670  0.1219
  826loPI   C2A11860  10.098  15.176   7.708  0.2023 -0.2828 -0.3845
  826loPI   C3A11861  10.067  15.100   8.178 -0.1604 -0.2925  0.1129
  826loPI   C4A11862  10.187  15.136   8.599 -0.1258  0.1189 -0.1939
  826loPI   C5A11863  10.317  15.469   8.868  0.2756  0.2506 -0.1062
  826loPI   C6A11864  10.242  15.806   9.046 -0.1083 -0.0010 -0.0336
  826loPI   C1B11865  10.241  15.694   7.222  0.0824  0.0746  0.0381
  826loPI   C2B11866  10.176  15.700   7.624  0.0005  0.0604  0.2873
  826loPI   C3B11867  10.177  15.672   7.997 -0.4700 -0.1802 -0.1208
  826loPI   C4B11868  10.172  15.557   8.356  0.0742  0.1664  0.0798
  827loPI    C111869   8.477  15.034   6.168  0.0057 -0.1039  0.0063
  827loPI    C211870   8.624  14.707   5.991  0.1606  0.0195 -0.0952
  827loPI    C311871   8.263  14.846   5.887  0.2144  0.0426 -0.2555
  827loPI   PO411872   8.551  15.029   6.347  0.3076 -0.1074 -0.3359
  827loPI   GL111873   8.494  14.829   6.748 -0.0294 -0.0173 -0.1212
  827loPI   GL211874   8.268  15.007   6.888 -0.0006 -0.0197  0.1736
  827loPI   C1A11875   8.642  14.755   7.173  0.1177 -0.0173 -0.2104
  827loPI   C2A11876   8.663  14.649   7.533  0.3517 -0.2016  0.1203
  827loPI   C3A11877   8.659  14.578   7.912 -0.0997 -0.2484 -0.1185
  827loPI   C4A11878   8.647  14.539   8.265 -0.0469 -0.0404  0.0743
  827loPI   C5A11879   8.558  14.297   8.686 -0.5301 -0.0870  0.0667
  827loPI   C6A11880   8.454  13.895   8.955  0.1839 -0.2409  0.1639
  827loPI   C1B11881   8.348  15.110   7.313  0.1639  0.1623  0.1328
  827loPI   C2B11882   8.245  15.195   7.692  0.0386  0.2027  0.0205
  827loPI   C3B11883   8.256  15.040   8.071  0.3463  0.0402 -0.1396
  827loPI   C4B11884   8.233  14.797   8.459 -0.2951  0.2231 -0.1701
  828loPI    C111885  16.932   3.539   5.912 -0.0505  0.1206 -0.1125
  828loPI    C211886  16.594   3.501   6.124  0.1270 -0.4252  0.0898
  828loPI    C311887  16.601   3.398   5.737 -0.0602  0.0702 -0.0537
  828loPI   PO411888  17.015   3.780   6.120  0.1297  0.1257  0.0776
  828loPI   GL111889  16.855   3.760   6.472 -0.0824  0.2740  0.0327
  828loPI   GL211890  16.776   4.084   6.447  0.0285  0.3283 -0.1728
  828loPI   C1A11891  16.841   3.754   6.960  0.0359 -0.2708  0.0856
  828loPI   C2A11892  16.830   3.746   7.372 -0.2286 -0.1680 -0.1339
  828loPI   C3A11893  16.914   3.609   7.784  0.0109  0.2660  0.1470
  828loPI   C4A11894  16.727   3.685   8.193  0.0833 -0.1799  0.0636
  828loPI   C5A11895  17.027   3.985   8.510 -0.1125  0.0720  0.2891
  828loPI   C6A11896  17.254   4.284   8.813  0.0438  0.0507 -0.1051
  828loPI   C1B11897  16.864   4.256   6.799  0.0136 -0.0591 -0.1504
  828loPI   C2B11898  16.897   4.213   7.208 -0.3077  0.3410  0.0817
  828loPI   C3B11899  16.919   4.151   7.662 -0.0685 -0.1690 -0.1533
  828loPI   C4B11900  16.820   4.155   8.119  0.2136 -0.0252  0.2228
  829loPI    C111901  14.681   0.524   6.205  0.1991  0.1663  0.0285
  829loPI    C211902  14.532   0.278   5.926  0.1802  0.0815  0.1125
  829loPI    C311903  14.479   0.674   5.893  0.1012  0.0654  0.0426
  829loPI   PO411904  14.601   0.421   6.423 -0.0261 -0.1863 -0.4396
  829loPI   GL111905  14.615   0.062   6.773  0.0161 -0.0616 -0.1189
  829loPI   GL211906  14.413  -0.178   6.844  0.0672 -0.0759  0.2193
  829loPI   C1A11907  14.542   0.273   7.175 -0.2041 -0.0961  0.2265
  829loPI   C2A11908  14.569   0.142   7.665 -0.2548 -0.3872  0.2375
  829loPI   C3A11909  14.394   0.156   8.044 -0.2466  0.3771 -0.2891
  829loPI   C4A11910  14.519   0.149   8.401 -0.0283 -0.3569 -0.3242
  829loPI   C5A11911  14.826   0.321   8.668 -0.0061 -0.1374 -0.1134
  829loPI   C6A11912  14.982   0.557   9.023  0.0251  0.0666 -0.4432
  829loPI   C1B11913  14.534  -0.181   7.249  0.0753  0.1519  0.1783
  829loPI   C2B11914  14.488  -0.352   7.712  0.1957 -0.1374  0.0656
  829loPI   C3B11915  14.375  -0.419   8.117  0.1013  0.1425  0.0138
  829loPI   C4B11916  14.389  -0.352   8.506  0.0240  0.0704  0.1904
  830loPI    C111917   5.894   6.796   6.048  0.3394  0.0049 -0.1346
  830loPI    C211918   5.614   6.577   5.865  0.0098 -0.0308  0.3911
  830loPI    C311919   5.863   6.805   5.650 -0.1320 -0.3366 -0.1131
  830loPI   PO411920   5.747   6.933   6.280 -0.0999 -0.1662  0.0892
  830loPI   GL111921   5.814   6.964   6.634  0.0897  0.0507  0.0171
  830loPI   GL211922   5.675   6.704   6.699 -0.0955  0.0280  0.0935
  830loPI   C1A11923   5.688   7.168   7.042  0.0800 -0.0258 -0.4216
  830loPI   C2A11924   5.704   7.142   7.495 -0.0641 -0.1006 -0.1231
  830loPI   C3A11925   5.645   7.164   7.941 -0.1177 -0.1295 -0.2244
  830loPI   C4A11926   5.797   7.295   8.330  0.0023 -0.0370  0.1996
  830loPI   C5A11927   5.961   7.098   8.659  0.2318  0.0053  0.0625
  830loPI   C6A11928   5.739   7.025   9.094  0.0940  0.3065  0.4095
  830loPI   C1B11929   5.695   6.412   6.922 -0.0908  0.1890  0.1301
  830loPI   C2B11930   5.648   6.242   7.234 -0.2757  0.1018  0.0451
  830loPI   C3B11931   5.666   6.235   7.659  0.1327 -0.2150  0.0263
  830loPI   C4B11932   5.728   6.360   8.094  0.0144  0.1301 -0.1682
  831loPI    C111933  11.375   1.914   6.583 -0.0970  0.1489  0.0583
  831loPI    C211934  11.513   2.053   6.235 -0.1584 -0.1058 -0.0706
  831loPI    C311935  11.120   2.058   6.311 -0.1138  0.3315  0.1688
  831loPI   PO411936  11.685   1.958   6.671  0.0176 -0.1416 -0.0227
  831loPI   GL111937  11.793   1.803   7.113 -0.0056  0.0119  0.0626
  831loPI   GL211938  12.037   1.670   7.039  0.4312 -0.0931  0.3180
  831loPI   C1A11939  11.601   1.935   7.575 -0.3093 -0.0206 -0.3424
  831loPI   C2A11940  11.592   1.879   8.067  0.4720  0.1726  0.0101
  831loPI   C3A11941  11.683   1.824   8.327  0.0266 -0.2879 -0.3237
  831loPI   C4A11942  11.668   1.689   8.775 -0.1179 -0.0078  0.0846
  831loPI   C5A11943  11.815   1.336   9.050 -0.1300 -0.2066  0.1107
  831loPI   C6A11944  11.824   0.831   9.028 -0.0283 -0.0853  0.3501
  831loPI   C1B11945  11.997   1.540   7.482  0.0617 -0.2120  0.0562
  831loPI   C2B11946  12.004   1.547   7.971 -0.3001 -0.0999  0.1993
  831loPI   C3B11947  12.028   1.465   8.412  0.2239  0.4189  0.2786
  831loPI   C4B11948  12.312   1.512   8.787 -0.0683 -0.0866  0.3167
  832loPI    C111949  15.957   5.283   5.754 -0.0028  0.0023 -0.0366
  832loPI    C211950  16.228   5.028   5.608  0.1422 -0.0717  0.3519
  832loPI    C311951  15.949   4.899   5.864 -0.1676  0.0364  0.0749
  832loPI   PO411952  16.051   5.433   5.887 -0.2042  0.0333 -0.2843
  832loPI   GL111953  16.216   5.312   6.270  0.1680  0.2864  0.0683
  832loPI   GL211954  15.862   5.195   6.336  0.3133 -0.2998  0.1168
  832loPI   C1A11955  16.114   5.253   6.766 -0.0153  0.1034  0.2261
  832loPI   C2A11956  16.030   5.388   7.189  0.0800  0.1419 -0.2288
  832loPI   C3A11957  16.052   5.328   7.617 -0.3618  0.2541  0.1460
  832loPI   C4A11958  16.059   5.398   8.090  0.1818 -0.0317 -0.0611
  832loPI   C5A11959  16.186   5.224   8.520  0.0731  0.1151  0.2657
  832loPI   C6A11960  16.207   5.173   9.010 -0.0674  0.0253  0.0322
  832loPI   C1B11961  15.613   5.124   6.651 -0.2817 -0.0285 -0.0404
  832loPI   C2B11962  15.568   5.142   7.065  0.2045  0.1208 -0.1787
  832loPI   C3B11963  15.592   5.157   7.485  0.1938  0.1446 -0.2775
  832loPI   C4B11964  15.657   5.166   7.935  0.0540 -0.4126 -0.0158
  833loPI    C111965   7.162   7.028   6.133  0.0991 -0.3862  0.0034
  833loPI    C211966   6.773   7.038   6.041  0.1137  0.0406 -0.0334
  833loPI    C311967   7.048   7.084   5.754  0.1884 -0.0751  0.0189
  833loPI   PO411968   7.190   6.823   6.316 -0.1752 -0.2190 -0.1346
  833loPI   GL111969   7.203   6.624   6.641  0.0720 -0.1875  0.2377
  833loPI   GL211970   6.978   6.653   6.795 -0.1761 -0.2029  0.2579
  833loPI   C1A11971   7.483   6.691   6.942  0.1947 -0.3040 -0.1419
  833loPI   C2A11972   7.518   6.758   7.407  0.2358 -0.3447  0.1887
  833loPI   C3A11973   7.374   6.814   7.852 -0.0194  0.3741 -0.1219
  833loPI   C4A11974   7.384   6.959   8.290  0.0502  0.1961  0.3079
  833loPI   C5A11975   7.323   6.931   8.768 -0.2353 -0.1424  0.0518
  833loPI   C6A11976   7.556   6.676   8.989 -0.6365 -0.1895  0.2772
  833loPI   C1B11977   6.898   6.884   7.246  0.1670  0.0215  0.1446
  833loPI   C2B11978   6.913   6.700   7.670  0.1576 -0.2225 -0.0738
  833loPI   C3B11979   6.901   6.755   8.041 -0.3651 -0.0323  0.0133
  833loPI   C4B11980   6.878   6.899   8.477  0.1443  0.0824 -0.1280
  834loPI    C111981   3.494   5.806   5.939  0.0337  0.1112  0.1015
  834loPI    C211982   3.426   6.195   6.005 -0.2029  0.0756  0.0786
  834loPI    C311983   3.512   6.067   5.636  0.0181  0.1242  0.1117
  834loPI   PO411984   3.297   5.722   6.115 -0.1099  0.0779 -0.0444
  834loPI   GL111985   3.099   5.974   6.560  0.0584  0.0580  0.0715
  834loPI   GL211986   2.867   6.202   6.715  0.2353  0.0870  0.1572
  834loPI   C1A11987   3.333   5.930   6.920 -0.0268 -0.2571 -0.1149
  834loPI   C2A11988   3.209   6.140   7.270  0.1044  0.2501  0.0870
  834loPI   C3A11989   3.293   6.136   7.634 -0.2354  0.2301  0.0061
  834loPI   C4A11990   3.029   6.171   7.985  0.1468 -0.2569  0.1634
  834loPI   C5A11991   3.067   6.159   8.326  0.0102  0.2678  0.1520
  834loPI   C6A11992   2.958   6.383   8.755 -0.0493 -0.0194 -0.0697
  834loPI   C1B11993   2.887   6.463   7.074  0.0808 -0.3024  0.1432
  834loPI   C2B11994   2.857   6.455   7.507 -0.2026 -0.1963  0.4219
  834loPI   C3B11995   2.594   6.500   7.852 -0.0450 -0.0334  0.1348
  834loPI   C4B11996   2.633   6.490   8.336 -0.1169  0.2793  0.0137
  835loPI    C111997   9.363   1.078   6.563  0.0692  0.1326 -0.2213
  835loPI    C211998   9.132   1.153   6.245 -0.0479 -0.0388 -0.1785
  835loPI    C311999   9.405   0.861   6.229 -0.0682 -0.0615 -0.1148
  835loPI   PO412000   9.142   1.088   6.725  0.1904  0.0595 -0.2754
  835loPI   GL112001   8.884   1.121   6.991 -0.0451  0.1295 -0.0942
  835loPI   GL212002   8.832   1.467   6.975 -0.0078  0.1493 -0.1382
  835loPI   C1A12003   8.903   0.955   7.437 -0.0912  0.2430  0.1684
  835loPI   C2A12004   8.759   0.911   7.888  0.1644  0.0501  0.1570
  835loPI   C3A12005   8.879   0.822   8.216 -0.3017  0.1562  0.1539
  835loPI   C4A12006   8.933   1.003   8.600  0.2004 -0.2130 -0.0014
  835loPI   C5A12007   8.768   1.482   8.711 -0.0956  0.2134 -0.1034
  835loPI   C6A12008   8.501   1.778   8.937 -0.0703 -0.2926  0.2000
  835loPI   C1B12009   8.717   1.439   7.404 -0.1223  0.0929  0.0394
  835loPI   C2B12010   8.679   1.464   7.847 -0.0562  0.1522 -0.1100
  835loPI   C3B12011   8.608   1.650   8.224 -0.4518  0.0913 -0.2050
  835loPI   C4B12012   8.433   1.981   8.499  0.2628 -0.0588  0.0461
  836loPI    C112013   7.541  14.232   6.019 -0.1836  0.1296 -0.0337
  836loPI    C212014   7.251  13.990   5.888 -0.2379  0.1117  0.1175
  836loPI    C312015   7.547  14.100   5.641 -0.1122 -0.2567  0.0980
  836loPI   PO412016   7.413  14.282   6.262 -0.1993 -0.3378  0.0029
  836loPI   GL112017   7.382  14.311   6.681  0.1085 -0.0459 -0.0272
  836loPI   GL212018   7.292  13.965   6.884 -0.0884  0.0516 -0.1615
  836loPI   C1A12019   7.154  14.400   7.066 -0.1734 -0.0995  0.2431
  836loPI   C2A12020   7.040  14.513   7.535  0.1910 -0.2439  0.2836
  836loPI   C3A12021   7.047  14.495   7.917 -0.1523  0.2205 -0.3312
  836loPI   C4A12022   6.977  14.501   8.293  0.3760  0.0887  0.1921
  836loPI   C5A12023   6.973  14.537   8.726 -0.1581  0.1410  0.0677
  836loPI   C6A12024   7.182  14.450   9.036 -0.1678  0.0051 -0.0741
  836loPI   C1B12025   7.368  14.031   7.349 -0.0182 -0.0874 -0.1466
  836loPI   C2B12026   7.362  14.069   7.806  0.1228  0.1752 -0.0413
  836loPI   C3B12027   7.272  14.086   8.166 -0.1334 -0.0565  0.1651
  836loPI   C4B12028   7.163  14.123   8.638 -0.2807  0.1599 -0.0532
  837loPI    C112029   9.803  10.320   5.961  0.2349  0.0073  0.1995
  837loPI    C212030   9.851  10.663   6.161  0.0346  0.1450  0.0156
  837loPI    C312031   9.911  10.652   5.766 -0.1296  0.0094 -0.0066
  837loPI   PO412032   9.883  10.155   6.150 -0.0487 -0.0550  0.3408
  837loPI   GL112033   9.795  10.087   6.630  0.1341 -0.0052 -0.0735
  837loPI   GL212034   9.589   9.860   6.780  0.0269  0.4152 -0.0868
  837loPI   C1A12035   9.769  10.285   7.029 -0.0995  0.3205 -0.1563
  837loPI   C2A12036   9.838  10.208   7.553 -0.1027  0.0267  0.1809
  837loPI   C3A12037   9.838  10.081   8.039 -0.1640 -0.0243  0.1484
  837loPI   C4A12038  10.002  10.003   8.410 -0.2136  0.0424 -0.1603
  837loPI   C5A12039  10.341  10.078   8.605 -0.3969 -0.1334  0.3713
  837loPI   C6A12040  10.649   9.830   8.847  0.1659 -0.0770 -0.0633
  837loPI   C1B12041   9.711   9.782   7.218  0.0200 -0.0390 -0.1213
  837loPI   C2B12042   9.768   9.714   7.617  0.1502  0.0144  0.5349
  837loPI   C3B12043   9.796   9.618   8.048 -0.2996 -0.2684  0.0456
  837loPI   C4B12044   9.942   9.470   8.442  0.0145  0.0321 -0.1274
  838loPI    C112045  15.635  11.541   5.735 -0.2091 -0.0682  0.0630
  838loPI    C212046  15.766  11.191   5.593  0.0409  0.0334  0.0386
  838loPI    C312047  15.526  11.420   5.369 -0.0421 -0.0756  0.0150
  838loPI   PO412048  15.577  11.446   6.094 -0.2678  0.0008  0.1669
  838loPI   GL112049  15.617  11.806   6.410 -0.0607  0.0932  0.2546
  838loPI   GL212050  15.788  12.012   6.680 -0.2999  0.1382 -0.0577
  838loPI   C1A12051  15.357  11.797   6.766 -0.1342  0.0623  0.1874
  838loPI   C2A12052  15.124  11.645   7.052  0.1073 -0.0414  0.0270
  838loPI   C3A12053  15.081  11.691   7.484  0.0641 -0.1568 -0.0557
  838loPI   C4A12054  15.143  11.671   7.893  0.1218 -0.2839 -0.2260
  838loPI   C5A12055  15.291  11.913   8.339  0.2338  0.0755  0.0926
  838loPI   C6A12056  15.329  12.213   8.739  0.2779  0.0120 -0.0181
  838loPI   C1B12057  15.677  11.901   7.135  0.2360  0.0257  0.0470
  838loPI   C2B12058  15.539  11.879   7.535 -0.1237  0.0314  0.2133
  838loPI   C3B12059  15.748  12.052   7.902  0.1787 -0.0501 -0.2812
  838loPI   C4B12060  15.744  12.069   8.451  0.1617  0.0549 -0.1441
  839loPI    C112061   5.406  14.148   6.432 -0.0031  0.0740 -0.0575
  839loPI    C212062   5.486  13.824   6.211 -0.1070  0.1134 -0.1538
  839loPI    C312063   5.259  13.791   6.539  0.2304  0.0157  0.0750
  839loPI   PO412064   5.637  14.288   6.449 -0.0501  0.0505 -0.1183
  839loPI   GL112065   5.721  14.384   6.861  0.2002  0.1025 -0.1026
  839loPI   GL212066   5.376  14.448   6.994  0.0363  0.0619 -0.2554
  839loPI   C1A12067   5.746  14.095   7.196 -0.0252  0.3843 -0.3098
  839loPI   C2A12068   5.706  14.019   7.601 -0.0753  0.0823  0.0056
  839loPI   C3A12069   5.681  13.945   8.057 -0.1145 -0.0838 -0.1523
  839loPI   C4A12070   5.601  13.897   8.528  0.2124 -0.1565  0.0150
  839loPI   C5A12071   5.599  14.182   8.798 -0.1935 -0.0269 -0.1071
  839loPI   C6A12072   5.828  14.489   9.095 -0.0922  0.2652 -0.1311
  839loPI   C1B12073   5.434  14.445   7.464  0.0142  0.0685  0.1245
  839loPI   C2B12074   5.495  14.448   7.887 -0.1003  0.2468 -0.3254
  839loPI   C3B12075   5.483  14.336   8.294  0.2712  0.1194 -0.2585
  839loPI   C4B12076   5.653  14.617   8.623  0.1208 -0.1028  0.0286
  840loPI    C112077  13.475   1.961   6.172  0.0429 -0.0664  0.1712
  840loPI    C212078  13.526   2.071   5.791  0.1838  0.0085  0.2112
  840loPI    C312079  13.695   1.735   5.926  0.0460 -0.0736  0.1807
  840loPI   PO412080  13.560   2.072   6.346  0.0981 -0.0186 -0.1405
  840loPI   GL112081  13.405   2.104   6.799 -0.0742 -0.1784  0.3562
  840loPI   GL212082  13.481   2.385   6.969  0.1264  0.2341 -0.0551
  840loPI   C1A12083  13.415   1.912   7.159  0.2997  0.2650 -0.0420
  840loPI   C2A12084  13.430   1.792   7.608  0.0808  0.2939 -0.0121
  840loPI   C3A12085  13.438   1.637   8.047  0.1667  0.0722 -0.0157
  840loPI   C4A12086  13.458   1.561   8.461  0.0504 -0.0988 -0.0578
  840loPI   C5A12087  13.695   1.241   8.736 -0.2451  0.2207 -0.0734
  840loPI   C6A12088  13.855   0.942   8.991  0.2209 -0.2547  0.1502
  840loPI   C1B12089  13.518   2.284   7.427 -0.2460 -0.0440  0.0131
  840loPI   C2B12090  13.517   2.231   7.874  0.1980 -0.1865  0.1409
  840loPI   C3B12091  13.462   2.130   8.292  0.1634  0.4034 -0.1348
  840loPI   C4B12092  13.595   2.005   8.706 -0.0449  0.2092  0.1319
  841loPI    C112093  11.778  14.021   6.214 -0.0901  0.1730  0.1819
  841loPI    C212094  12.152  14.004   6.072 -0.0561  0.0619  0.2831
  841loPI    C312095  11.844  14.035   5.820  0.0030 -0.1436  0.1831
  841loPI   PO412096  11.743  14.135   6.426 -0.0710  0.1324  0.3700
  841loPI   GL112097  11.760  14.242   6.762  0.0068 -0.0139 -0.0871
  841loPI   GL212098  11.685  13.881   6.875 -0.0382  0.2559 -0.2977
  841loPI   C1A12099  11.821  14.395   7.146 -0.3126  0.3080 -0.3173
  841loPI   C2A12100  11.766  14.309   7.565 -0.1275 -0.1056 -0.3303
  841loPI   C3A12101  11.860  14.359   7.943 -0.0778 -0.3807  0.1261
  841loPI   C4A12102  11.909  14.273   8.419  0.1029  0.0453 -0.1653
  841loPI   C5A12103  11.988  14.490   8.792 -0.0933  0.1331 -0.1382
  841loPI   C6A12104  11.916  14.608   9.239  0.0406  0.1038  0.0444
  841loPI   C1B12105  11.792  13.873   7.220 -0.4824 -0.0679 -0.0493
  841loPI   C2B12106  11.829  13.820   7.665  0.1349  0.3341 -0.3180
  841loPI   C3B12107  11.785  13.780   8.181  0.2016  0.1093 -0.3631
  841loPI   C4B12108  11.840  13.838   8.625  0.0616  0.1731  0.3413
  842loPI    C112109   4.865   2.096   6.163  0.3157 -0.0695  0.1670
  842loPI    C212110   5.261   2.131   6.112  0.2615  0.1340 -0.1402
  842loPI    C312111   5.009   2.311   5.858 -0.0324 -0.2995 -0.1679
  842loPI   PO412112   4.779   2.238   6.479  0.0540 -0.0339 -0.0603
  842loPI   GL112113   4.694   2.318   6.783  0.3378 -0.4266 -0.1479
  842loPI   GL212114   4.850   2.635   6.790  0.2217 -0.0059  0.2247
  842loPI   C1A12115   4.514   2.236   7.190  0.2719  0.2509 -0.0680
  842loPI   C2A12116   4.479   2.253   7.712  0.0351  0.3040  0.1906
  842loPI   C3A12117   4.519   2.207   8.063 -0.2174 -0.0491 -0.0620
  842loPI   C4A12118   4.446   2.168   8.536  0.0683 -0.2067 -0.0135
  842loPI   C5A12119   4.013   1.986   8.701  0.1963 -0.2496 -0.0542
  842loPI   C6A12120   3.548   1.991   8.661 -0.1168 -0.1335  0.0315
  842loPI   C1B12121   4.886   2.609   7.143  0.1401 -0.0059 -0.1763
  842loPI   C2B12122   4.763   2.603   7.573  0.0295  0.2134  0.1365
  842loPI   C3B12123   4.697   2.668   7.931 -0.0272 -0.1814  0.1054
  842loPI   C4B12124   4.747   2.679   8.339  0.2172 -0.3234 -0.1866
  843loPI    C112125   7.717   9.704   6.212  0.0346 -0.0230  0.0066
  843loPI    C212126   7.903   9.942   5.950  0.1175  0.0200  0.1038
  843loPI    C312127   7.903   9.546   5.895 -0.0585  0.0441 -0.0822
  843loPI   PO412128   7.903   9.761   6.469  0.0020 -0.0279  0.3861
  843loPI   GL112129   8.282   9.552   6.721  0.1111  0.1496 -0.1370
  843loPI   GL212130   8.254   9.851   6.895  0.0008 -0.0168  0.3007
  843loPI   C1A12131   8.063   9.436   7.140 -0.2194  0.1844  0.0787
  843loPI   C2A12132   7.937   9.574   7.584 -0.1323 -0.0384  0.1644
  843loPI   C3A12133   8.103   9.538   8.003 -0.2608 -0.4264  0.0069
  843loPI   C4A12134   8.183   9.607   8.471 -0.0462  0.1238 -0.1079
  843loPI   C5A12135   8.532   9.440   8.598 -0.0471 -0.0392  0.3057
  843loPI   C6A12136   9.003   9.325   8.772  0.0978  0.0403 -0.0851
  843loPI   C1B12137   8.278  10.044   7.351  0.1002  0.2121  0.2390
  843loPI   C2B12138   8.235   9.993   7.738 -0.1510 -0.0140  0.1073
  843loPI   C3B12139   8.368   9.929   8.155  0.1302 -0.1175  0.2234
  843loPI   C4B12140   8.602   9.996   8.480  0.0356  0.2653 -0.2384
  844loPI    C112141  10.124   9.120   6.267  0.0197 -0.0561 -0.2672
  844loPI    C212142   9.853   9.095   5.975  0.1351 -0.2705 -0.3588
  844loPI    C312143  10.214   8.931   5.926  0.2011 -0.1914 -0.1465
  844loPI   PO412144  10.013   9.085   6.448 -0.3420  0.2018 -0.1050
  844loPI   GL112145   9.788   8.889   6.695  0.0311  0.2433 -0.0185
  844loPI   GL212146   9.682   8.563   6.605 -0.2934 -0.2944  0.2886
  844loPI   C1A12147  10.032   8.919   7.177  0.1123 -0.1420 -0.0332
  844loPI   C2A12148  10.027   8.815   7.690 -0.2616  0.0689  0.0052
  844loPI   C3A12149  10.198   8.730   7.952 -0.3423  0.3169 -0.1219
  844loPI   C4A12150  10.233   8.791   8.390 -0.2102 -0.0382  0.0323
  844loPI   C5A12151   9.997   8.586   8.664 -0.0927 -0.1559  0.0037
  844loPI   C6A12152   9.987   8.315   8.968  0.1933 -0.1359  0.0894
  844loPI   C1B12153   9.640   8.582   7.051  0.0390 -0.2567  0.3951
  844loPI   C2B12154   9.717   8.451   7.458  0.0716  0.2028 -0.0936
  844loPI   C3B12155   9.648   8.539   7.885  0.0751 -0.2332  0.1772
  844loPI   C4B12156   9.697   8.507   8.260 -0.2012  0.3664  0.1331
  845loPI    C112157  10.406  15.793   6.442 -0.2056  0.0872 -0.0067
  845loPI    C212158  10.314  15.838   6.055 -0.0227  0.0818 -0.0519
  845loPI    C312159  10.148  16.077   6.329 -0.1902  0.0538 -0.1278
  845loPI   PO412160  10.414  15.546   6.441 -0.1733  0.0766  0.0280
  845loPI   GL112161  10.741  15.250   6.768  0.2567 -0.1577 -0.0051
  845loPI   GL212162  10.629  14.829   6.857 -0.0680  0.0670  0.0957
  845loPI   C1A12163  10.715  15.399   7.147 -0.1231 -0.2823 -0.0520
  845loPI   C2A12164  10.586  15.412   7.514 -0.2113  0.0398  0.0105
  845loPI   C3A12165  10.565  15.344   7.905  0.0735 -0.0784  0.0712
  845loPI   C4A12166  10.547  15.239   8.309  0.2162  0.0121 -0.0471
  845loPI   C5A12167  10.790  15.203   8.724  0.0139  0.1388  0.0789
  845loPI   C6A12168  10.912  15.139   9.134 -0.1335 -0.3209 -0.4164
  845loPI   C1B12169  10.548  14.945   7.262  0.0877  0.1569 -0.0289
  845loPI   C2B12170  10.525  14.848   7.586  0.1713  0.2018  0.4307
  845loPI   C3B12171  10.448  14.793   7.981 -0.0878  0.1813  0.1762
  845loPI   C4B12172  10.560  14.705   8.370 -0.2581 -0.0650 -0.0064
  846loPI    C112173   1.377   9.446   5.784  0.0415 -0.3229 -0.1331
  846loPI    C212174   0.985   9.454   5.864  0.0622  0.1015 -0.0498
  846loPI    C312175   1.120   9.593   5.514  0.1726  0.3435  0.0865
  846loPI   PO412176   1.421   9.325   6.052 -0.1667 -0.0908  0.3187
  846loPI   GL112177   1.247   9.434   6.403  0.1020 -0.1349  0.0115
  846loPI   GL212178   1.306   9.618   6.546 -0.0906  0.0504  0.4587
  846loPI   C1A12179   1.010   9.252   6.743 -0.3778 -0.1505  0.0946
  846loPI   C2A12180   1.091   9.158   7.131  0.0160  0.0384 -0.0686
  846loPI   C3A12181   1.205   9.246   7.542  0.0324  0.3437 -0.0384
  846loPI   C4A12182   1.315   9.286   8.006 -0.1769  0.0156 -0.1009
  846loPI   C5A12183   1.290   9.372   8.406  0.0458 -0.0240  0.1745
  846loPI   C6A12184   1.435   9.543   8.716  0.1258  0.1043 -0.1721
  846loPI   C1B12185   1.270   9.640   7.006  0.3525  0.0570 -0.0189
  846loPI   C2B12186   1.274   9.702   7.446  0.1920 -0.0452 -0.0691
  846loPI   C3B12187   1.433   9.813   7.801  0.1384 -0.0473  0.0357
  846loPI   C4B12188   1.574   9.717   8.133 -0.0512  0.2180 -0.0596
  847loPI    C112189  12.421  10.260   5.911  0.0597  0.1952  0.2653
  847loPI    C212190  12.783  10.281   5.741 -0.0042  0.1499  0.1225
  847loPI    C312191  12.488  10.079   5.561 -0.1151  0.2290  0.2135
  847loPI   PO412192  12.361  10.509   6.126  0.0671 -0.0408  0.0945
  847loPI   GL112193  12.616  10.679   6.450  0.0798 -0.2031  0.0173
  847loPI   GL212194  12.727  11.047   6.426  0.0226  0.2839 -0.4273
  847loPI   C1A12195  12.632  10.802   6.920 -0.0588  0.2785  0.2938
  847loPI   C2A12196  12.684  10.768   7.335 -0.1102 -0.2947 -0.1573
  847loPI   C3A12197  12.705  10.753   7.820 -0.0030 -0.0661 -0.0063
  847loPI   C4A12198  12.742  10.811   8.242  0.0507  0.0499 -0.3734
  847loPI   C5A12199  12.781  10.932   8.659  0.0546 -0.0826 -0.0325
  847loPI   C6A12200  12.538  11.018   9.008  0.3828  0.1154 -0.0008
  847loPI   C1B12201  12.808  11.308   6.793  0.2186 -0.0465  0.1675
  847loPI   C2B12202  12.771  11.246   7.211  0.0436  0.0815  0.0450
  847loPI   C3B12203  12.808  11.323   7.594  0.2196 -0.1855  0.1202
  847loPI   C4B12204  12.780  11.335   8.059  0.2212  0.1209 -0.0821
  848loPI    C112205   5.670  14.949   6.195 -0.0499  0.0562 -0.2038
  848loPI    C212206   5.592  14.588   6.041  0.0100 -0.0875  0.0949
  848loPI    C312207   5.320  14.880   6.015 -0.1784 -0.2561  0.1537
  848loPI   PO412208   5.741  14.885   6.418 -0.0624 -0.1181 -0.0624
  848loPI   GL112209   5.648  15.162   6.704 -0.2128 -0.1333 -0.1890
  848loPI   GL212210   5.870  15.410   6.741 -0.0403 -0.0948  0.0936
  848loPI   C1A12211   5.705  14.841   7.127 -0.4524  0.0515  0.2136
  848loPI   C2A12212   5.891  14.485   7.418  0.1255  0.0659  0.0564
  848loPI   C3A12213   6.052  14.358   7.836  0.1642 -0.0146  0.0707
  848loPI   C4A12214   6.040  14.359   8.339 -0.2802  0.2651  0.1124
  848loPI   C5A12215   6.048  14.027   8.690  0.2392  0.2985  0.0352
  848loPI   C6A12216   5.898  13.693   8.988 -0.0863 -0.1264  0.1254
  848loPI   C1B12217   5.930  15.273   7.107  0.1108 -0.0105  0.3885
  848loPI   C2B12218   5.984  15.275   7.549 -0.4198  0.0730 -0.2518
  848loPI   C3B12219   5.976  15.305   8.054 -0.1548 -0.1385 -0.0362
  848loPI   C4B12220   5.847  15.166   8.412 -0.0839  0.1659 -0.0431
  849loPI    C112221   4.097  12.589   6.620 -0.4753  0.1004  0.1709
  849loPI    C212222   3.950  12.585   6.248  0.0176 -0.1981 -0.0304
  849loPI    C312223   4.153  12.903   6.378 -0.0350 -0.1500 -0.0654
  849loPI   PO412224   4.381  12.444   6.679 -0.0129  0.3187 -0.0307
  849loPI   GL112225   4.337  12.170   7.066  0.0051  0.2649 -0.0510
  849loPI   GL212226   4.569  11.822   7.053  0.1090 -0.3150  0.0618
  849loPI   C1A12227   4.239  12.105   7.517 -0.2339  0.1310 -0.0391
  849loPI   C2A12228   4.129  12.063   7.883  0.0949 -0.0332 -0.2456
  849loPI   C3A12229   4.073  12.120   8.351  0.0709 -0.1739 -0.4805
  849loPI   C4A12230   4.299  12.109   8.729  0.4317 -0.0363  0.2656
  849loPI   C5A12231   4.617  12.163   9.034  0.4314 -0.0260 -0.0788
  849loPI   C6A12232   5.086  12.168   8.813  0.2465  0.2581 -0.0356
  849loPI   C1B12233   4.774  12.047   7.427  0.4075  0.2433 -0.0490
  849loPI   C2B12234   4.786  12.152   7.826  0.0018  0.1673  0.1245
  849loPI   C3B12235   4.620  12.141   8.273  0.1135 -0.3132  0.0450
  849loPI   C4B12236   4.721  11.857   8.637 -0.1902 -0.1766 -0.2848
  850loPI    C112237   0.168   6.668   5.849  0.1014 -0.1180 -0.0761
  850loPI    C212238   0.312   7.030   5.942 -0.0832 -0.0532 -0.0386
  850loPI    C312239   0.144   6.967   5.584  0.1688 -0.1680 -0.1392
  850loPI   PO412240   0.289   6.533   5.914  0.0752  0.1514  0.1581
  850loPI   GL112241   0.307   6.301   6.231 -0.3906 -0.2507 -0.2137
  850loPI   GL212242   0.317   5.981   6.462  0.2079  0.1277  0.2174
  850loPI   C1A12243   0.385   6.442   6.589  0.1010 -0.1412 -0.1529
  850loPI   C2A12244   0.310   6.465   7.025 -0.2003 -0.2215  0.0849
  850loPI   C3A12245   0.259   6.389   7.330 -0.0447 -0.1444 -0.0924
  850loPI   C4A12246   0.346   6.437   7.811 -0.2274  0.1060 -0.0716
  850loPI   C5A12247   0.328   6.475   8.249 -0.0348 -0.2042  0.2783
  850loPI   C6A12248   0.229   6.785   8.654 -0.2318  0.2210 -0.0563
  850loPI   C1B12249   0.248   6.022   6.826  0.3213 -0.3674 -0.0546
  850loPI   C2B12250   0.155   5.945   7.158  0.1634  0.1432 -0.0044
  850loPI   C3B12251   0.201   5.908   7.569  0.3200  0.2038 -0.0429
  850loPI   C4B12252   0.343   5.931   7.966 -0.0549  0.1751 -0.1491
  851loPI    C112253  14.664   4.860   6.080 -0.0866 -0.1497 -0.0221
  851loPI    C212254  14.994   5.053   5.962 -0.2036 -0.0347 -0.1649
  851loPI    C312255  14.839   4.763   5.733 -0.2041 -0.0857 -0.1001
  851loPI   PO412256  14.719   4.828   6.293  0.1990 -0.1026 -0.0897
  851loPI   GL112257  14.603   5.082   6.701  0.1750 -0.0595  0.0163
  851loPI   GL212258  14.671   5.389   6.651 -0.0419  0.7284  0.2146
  851loPI   C1A12259  14.696   5.201   7.140  0.2726  0.0731 -0.2196
  851loPI   C2A12260  14.751   5.265   7.587 -0.0701 -0.3025  0.1097
  851loPI   C3A12261  14.819   5.280   8.052  0.0595 -0.1721  0.0099
  851loPI   C4A12262  14.851   5.143   8.497 -0.1859 -0.0790  0.2041
  851loPI   C5A12263  14.458   5.089   8.740 -0.1962 -0.2594  0.3582
  851loPI   C6A12264  14.185   5.230   9.115 -0.4078  0.2132 -0.0212
  851loPI   C1B12265  14.748   5.661   6.874  0.1058  0.0428  0.1049
  851loPI   C2B12266  14.735   5.730   7.278 -0.1534 -0.2943  0.1473
  851loPI   C3B12267  14.738   5.729   7.650 -0.2192 -0.0258 -0.0999
  851loPI   C4B12268  14.882   5.796   8.040 -0.0432  0.1314 -0.0148
  852loPI    C112269  13.167   4.041   6.217 -0.1085 -0.0272 -0.1614
  852loPI    C212270  12.985   3.750   6.011 -0.2623  0.0628 -0.1541
  852loPI    C312271  13.287   3.953   5.846 -0.1553 -0.0996 -0.1596
  852loPI   PO412272  13.231   3.931   6.466  0.0806  0.1381  0.1141
  852loPI   GL112273  13.324   3.971   6.944  0.0509 -0.3313  0.2188
  852loPI   GL212274  13.246   3.623   6.915 -0.3097 -0.1094 -0.1880
  852loPI   C1A12275  13.287   4.090   7.414 -0.3224  0.0281  0.0235
  852loPI   C2A12276  13.253   4.184   7.822 -0.0240  0.0860 -0.0044
  852loPI   C3A12277  13.315   4.210   8.150 -0.0239  0.1332  0.0711
  852loPI   C4A12278  13.270   4.252   8.622  0.0609  0.3375  0.0181
  852loPI   C5A12279  13.399   4.103   9.044 -0.0388  0.0103  0.1669
  852loPI   C6A12280  13.453   3.746   9.201 -0.1064 -0.2825 -0.0952
  852loPI   C1B12281  13.189   3.597   7.304  0.0484 -0.3262  0.1856
  852loPI   C2B12282  13.152   3.588   7.657  0.0381 -0.1766  0.1035
  852loPI   C3B12283  13.239   3.541   8.084  0.1742 -0.0456 -0.2553
  852loPI   C4B12284  13.271   3.557   8.541  0.1129 -0.4530  0.2935
  853loPI    C112285  14.662   7.410   5.616  0.0114 -0.1660  0.1044
  853loPI    C212286  14.626   7.767   5.439 -0.0307 -0.1954  0.0532
  853loPI    C312287  14.643   7.435   5.217  0.2816 -0.2056  0.0876
  853loPI   PO412288  14.399   7.422   5.782 -0.2559  0.0147  0.0655
  853loPI   GL112289  14.231   7.276   6.225 -0.0826 -0.2328  0.0977
  853loPI   GL212290  14.562   7.377   6.288 -0.0039  0.1190 -0.4203
  853loPI   C1A12291  14.037   7.417   6.620 -0.0136 -0.2236 -0.1404
  853loPI   C2A12292  14.046   7.398   7.135  0.4076 -0.2892 -0.0329
  853loPI   C3A12293  14.087   7.410   7.613 -0.1729  0.2893  0.1582
  853loPI   C4A12294  14.183   7.332   8.095 -0.0516  0.0283 -0.1061
  853loPI   C5A12295  14.287   7.670   8.417  0.0825  0.0298  0.1751
  853loPI   C6A12296  14.114   8.139   8.460 -0.0565 -0.1395 -0.0239
  853loPI   C1B12297  14.862   7.353   6.667 -0.0774 -0.1404  0.0143
  853loPI   C2B12298  14.914   7.332   7.054  0.0169  0.0634  0.0329
  853loPI   C3B12299  15.054   7.268   7.539  0.1008  0.0398  0.4470
  853loPI   C4B12300  15.024   7.348   7.969  0.0593  0.1138  0.1186
  854loPI    C112301  16.967   1.871   5.740 -0.1832 -0.0157 -0.0479
  854loPI    C212302  16.638   1.905   5.515 -0.2141  0.0546  0.0074
  854loPI    C312303  16.986   2.049   5.382 -0.1879 -0.0935 -0.0871
  854loPI   PO412304  16.777   1.927   6.010 -0.2164 -0.4894 -0.1398
  854loPI   GL112305  16.958   1.904   6.409  0.2983  0.1585  0.1080
  854loPI   GL212306  17.028   2.196   6.446  0.0446 -0.1268  0.1507
  854loPI   C1A12307  17.146   1.750   6.773  0.2007  0.1394  0.1538
  854loPI   C2A12308  17.182   1.732   7.223 -0.5100  0.2092  0.2529
  854loPI   C3A12309  17.140   1.660   7.660 -0.1484  0.0825  0.1151
  854loPI   C4A12310  17.177   1.665   8.103 -0.1397 -0.2848  0.0650
  854loPI   C5A12311  16.979   1.644   8.519 -0.1813  0.2953 -0.1006
  854loPI   C6A12312  16.749   1.964   8.725  0.1265  0.1129  0.1704
  854loPI   C1B12313  16.970   2.208   6.928  0.0493  0.1204  0.1134
  854loPI   C2B12314  17.011   2.185   7.378  0.0953  0.1452 -0.1961
  854loPI   C3B12315  17.139   2.183   7.821 -0.3614  0.0324  0.4670
  854loPI   C4B12316  17.232   2.211   8.244  0.1598 -0.0957 -0.1552
  855loPI    C112317  13.388  14.037   5.939  0.1039  0.0300 -0.1268
  855loPI    C212318  13.532  13.750   5.701 -0.0483 -0.0694 -0.1000
  855loPI    C312319  13.455  14.113   5.552  0.0092 -0.0842 -0.1662
  855loPI   PO412320  13.378  13.899   6.144  0.3588 -0.0072 -0.2270
  855loPI   GL112321  13.551  13.725   6.513  0.0239 -0.0768  0.1041
  855loPI   GL212322  13.543  13.520   6.729  0.0144  0.0664  0.0398
  855loPI   C1A12323  13.696  14.029   6.782 -0.3962  0.0513  0.0242
  855loPI   C2A12324  13.769  14.176   7.134  0.0360  0.3918 -0.1740
  855loPI   C3A12325  13.624  14.180   7.537 -0.2721  0.0240 -0.0371
  855loPI   C4A12326  13.689  14.177   7.964 -0.0308 -0.2043 -0.1723
  855loPI   C5A12327  13.692  14.002   8.251  0.1041  0.0058  0.0040
  855loPI   C6A12328  13.684  13.901   8.715  0.1603  0.2047  0.1362
  855loPI   C1B12329  13.645  13.607   7.121  0.0367 -0.0075  0.2700
  855loPI   C2B12330  13.636  13.684   7.525 -0.1025 -0.1591 -0.1213
  855loPI   C3B12331  13.541  13.568   7.880 -0.0267 -0.1202  0.0718
  855loPI   C4B12332  13.514  13.528   8.328 -0.0417 -0.0162  0.0223
  856loPI    C112333   8.172   1.203   6.329 -0.1974  0.0378  0.0058
  856loPI    C212334   7.905   1.343   6.065  0.0272 -0.0084 -0.2507
  856loPI    C312335   8.258   1.204   5.938  0.0608 -0.2171  0.0587
  856loPI   PO412336   8.224   1.352   6.476 -0.1217 -0.1811  0.3047
  856loPI   GL112337   8.207   1.488   6.856  0.0206 -0.1821 -0.2551
  856loPI   GL212338   8.348   1.169   6.933 -0.4077 -0.1755 -0.4068
  856loPI   C1A12339   8.211   1.507   7.246  0.0173 -0.2056 -0.0878
  856loPI   C2A12340   8.139   1.578   7.618 -0.1186  0.0403 -0.1622
  856loPI   C3A12341   8.152   1.607   8.057  0.0287  0.0647  0.2057
  856loPI   C4A12342   7.956   1.860   8.325  0.0600  0.0812 -0.0272
  856loPI   C5A12343   7.992   1.970   8.681  0.2981  0.4246 -0.1385
  856loPI   C6A12344   7.723   1.986   9.070 -0.2026  0.0646  0.1530
  856loPI   C1B12345   8.432   1.085   7.315 -0.0834  0.0921 -0.2637
  856loPI   C2B12346   8.325   1.136   7.768 -0.0826  0.1353 -0.1064
  856loPI   C3B12347   8.379   1.172   8.203 -0.0172 -0.0831  0.0921
  856loPI   C4B12348   8.206   1.468   8.525  0.0788  0.0750 -0.1191
  857loPI    C112349  11.132   4.281   6.008  0.1032  0.1861 -0.0262
  857loPI    C212350  11.240   4.170   5.639 -0.0239  0.0959 -0.0370
  857loPI    C312351  10.966   4.457   5.689 -0.1336 -0.0114 -0.0152
  857loPI   PO412352  11.390   4.147   6.142  0.1170 -0.1276 -0.0546
  857loPI   GL112353  11.724   4.223   6.481  0.0143  0.0045  0.0076
  857loPI   GL212354  11.438   4.111   6.663 -0.1023 -0.0258 -0.1767
  857loPI   C1A12355  11.831   4.432   6.804 -0.1358  0.1583  0.1854
  857loPI   C2A12356  11.918   4.461   7.174 -0.0457  0.1437 -0.1651
  857loPI   C3A12357  11.878   4.541   7.617 -0.0558  0.1628  0.0531
  857loPI   C4A12358  11.942   4.551   8.043 -0.1142 -0.0204 -0.1328
  857loPI   C5A12359  11.926   4.547   8.530 -0.0991  0.1829 -0.0304
  857loPI   C6A12360  12.071   4.513   8.921  0.2348  0.1482 -0.2072
  857loPI   C1B12361  11.412   4.204   7.122  0.0504 -0.1167  0.3286
  857loPI   C2B12362  11.381   4.314   7.537  0.2233 -0.1350 -0.2687
  857loPI   C3B12363  11.373   4.330   7.974  0.1075  0.0085 -0.0095
  857loPI   C4B12364  11.450   4.377   8.426  0.1955  0.1261  0.0209
  858loPI    C112365   5.380   1.666   6.084 -0.0576  0.0315  0.0416
  858loPI    C212366   5.237   1.353   5.881  0.1726 -0.1408  0.1412
  858loPI    C312367   5.295   1.702   5.695  0.1896 -0.2395 -0.0415
  858loPI   PO412368   5.229   1.670   6.339  0.0468 -0.2512 -0.1405
  858loPI   GL112369   4.982   1.703   6.670 -0.3498  0.0223  0.1982
  858loPI   GL212370   5.132   1.604   6.875 -0.0536  0.1958 -0.0170
  858loPI   C1A12371   4.717   1.809   7.033 -0.1292  0.0999  0.0718
  858loPI   C2A12372   4.803   1.758   7.391  0.1523 -0.0490  0.2230
  858loPI   C3A12373   4.679   1.758   7.819  0.3404 -0.3110 -0.1152
  858loPI   C4A12374   4.747   1.781   8.177  0.0533  0.3068  0.4473
  858loPI   C5A12375   4.683   1.649   8.586  0.0680  0.1609  0.1883
  858loPI   C6A12376   4.761   1.273   8.792  0.0172 -0.0919 -0.1301
  858loPI   C1B12377   5.381   1.652   7.121  0.1132 -0.2056 -0.0796
  858loPI   C2B12378   5.319   1.764   7.541  0.0523  0.0211  0.0560
  858loPI   C3B12379   5.225   1.783   7.913  0.1939  0.0048 -0.1647
  858loPI   C4B12380   5.283   1.877   8.330  0.0165 -0.3887  0.1989
  859loPI    C112381  13.637   5.076   5.863 -0.0029  0.0036 -0.0432
  859loPI    C212382  13.347   5.229   6.092  0.0821  0.0462  0.0366
  859loPI    C312383  13.254   5.026   5.760 -0.0367  0.1166  0.0263
  859loPI   PO412384  13.760   4.910   6.078 -0.1105 -0.0845 -0.4045
  859loPI   GL112385  13.681   4.999   6.447 -0.2364 -0.2301  0.0425
  859loPI   GL212386  13.770   4.768   6.570 -0.1531 -0.0208  0.2426
  859loPI   C1A12387  13.379   5.086   6.776  0.0720  0.2106 -0.0789
  859loPI   C2A12388  13.268   5.069   7.209  0.1438  0.2668 -0.0028
  859loPI   C3A12389  13.325   5.161   7.634  0.3784 -0.0872  0.4097
  859loPI   C4A12390  13.379   5.162   8.078  0.0292  0.0581  0.0927
  859loPI   C5A12391  13.548   5.087   8.526 -0.2351 -0.1716  0.1552
  859loPI   C6A12392  13.598   4.677   8.872  0.0035 -0.1139  0.2459
  859loPI   C1B12393  13.740   4.815   6.935 -0.0858 -0.1791  0.5821
  859loPI   C2B12394  13.753   4.866   7.403  0.0760  0.0212  0.0708
  859loPI   C3B12395  13.834   4.853   7.803 -0.2485  0.0392  0.1548
  859loPI   C4B12396  13.812   4.903   8.154  0.0353  0.1076 -0.0886
  860loPI    C112397  16.746  15.281   5.994  0.1120 -0.1167  0.0133
  860loPI    C212398  17.008  15.206   5.701  0.1841  0.0366  0.0374
  860loPI    C312399  16.860  15.574   5.746  0.1346  0.0019  0.1630
  860loPI   PO412400  16.838  15.254   6.203  0.4262 -0.1196  0.0312
  860loPI   GL112401  16.835  15.254   6.594  0.0956 -0.1627 -0.1355
  860loPI   GL212402  16.915  15.598   6.744  0.0780 -0.0376  0.4094
  860loPI   C1A12403  17.014  15.006   6.896 -0.0757  0.2455 -0.1388
  860loPI   C2A12404  17.024  15.093   7.373  0.0445 -0.0549 -0.1204
  860loPI   C3A12405  17.038  14.973   7.832  0.1422 -0.1158  0.0638
  860loPI   C4A12406  17.022  14.896   8.248 -0.2717  0.2299  0.2905
  860loPI   C5A12407  17.255  14.575   8.424  0.1540  0.2769 -0.0176
  860loPI   C6A12408  17.272  14.348   8.766  0.2841 -0.1997 -0.2369
  860loPI   C1B12409  17.028  15.537   7.118  0.1442 -0.2284 -0.0272
  860loPI   C2B12410  16.969  15.525   7.542 -0.0533 -0.1671  0.0240
  860loPI   C3B12411  17.143  15.448   7.923 -0.1365 -0.0687  0.0267
  860loPI   C4B12412  17.357  15.321   8.307 -0.5384 -0.1781 -0.4601
  861loPI    C112413  11.230   0.470   6.924 -0.0266  0.0390  0.1262
  861loPI    C212414  11.504   0.758   6.875 -0.1397  0.1654  0.2288
  861loPI    C312415  11.350   0.572   6.556  0.0062  0.1496  0.1669
  861loPI   PO412416  11.072   0.573   7.075  0.0113  0.0994 -0.1411
  861loPI   GL112417  11.088   0.600   7.501 -0.1747  0.2937  0.0530
  861loPI   GL212418  11.346   0.463   7.484  0.2290 -0.0838 -0.2439
  861loPI   C1A12419  11.084   0.655   7.957  0.0377 -0.2656  0.3343
  861loPI   C2A12420  10.906   0.631   8.318 -0.3004  0.0976  0.1233
  861loPI   C3A12421  10.889   0.672   8.681  0.2472 -0.2319  0.1352
  861loPI   C4A12422  10.869   0.482   9.032 -0.1680  0.0654 -0.0469
  861loPI   C5A12423  11.160   0.176   9.233  0.3024  0.0835  0.0228
  861loPI   C6A12424  11.454   0.076   9.053 -0.0379  0.0364  0.2823
  861loPI   C1B12425  11.470   0.339   7.894 -0.0271  0.0713 -0.1321
  861loPI   C2B12426  11.390   0.403   8.358 -0.1603  0.0846 -0.2083
  861loPI   C3B12427  11.267   0.373   8.713  0.0464 -0.1531  0.2955
  861loPI   C4B12428  11.367   0.596   9.080 -0.1443  0.0291  0.0993
  862loPI    C112429   8.090  17.237   6.348 -0.0746 -0.0144 -0.1304
  862loPI    C212430   8.322  17.469   6.119 -0.2305  0.0920 -0.1816
  862loPI    C312431   8.223  17.102   5.996  0.0237 -0.0068 -0.0966
  862loPI   PO412432   8.086  17.417   6.569 -0.0985 -0.0415 -0.0524
  862loPI   GL112433   8.226  17.287   6.937 -0.0043 -0.2288 -0.2370
  862loPI   GL212434   8.640  17.399   7.048  0.1710 -0.1253 -0.0854
  862loPI   C1A12435   8.184  17.545   7.261 -0.1299  0.5185 -0.1244
  862loPI   C2A12436   8.015  17.535   7.530 -0.0974  0.2143  0.1959
  862loPI   C3A12437   8.015  17.632   7.932 -0.0676 -0.0992  0.0814
  862loPI   C4A12438   8.048  17.768   8.476 -0.2004 -0.1032  0.0181
  862loPI   C5A12439   7.782  17.839   8.789 -0.1704 -0.2043  0.0259
  862loPI   C6A12440   7.835  17.847   9.146  0.1009  0.0472  0.0471
  862loPI   C1B12441   8.556  17.338   7.564 -0.2617  0.3145  0.0509
  862loPI   C2B12442   8.551  17.403   7.938  0.1032  0.0684 -0.1902
  862loPI   C3B12443   8.502  17.445   8.386 -0.0562  0.1463  0.0198
  862loPI   C4B12444   8.444  17.452   8.827 -0.0002 -0.1399 -0.4803
  863loPI    C112445   0.409  11.688   5.586  0.1738  0.0816  0.3277
  863loPI    C212446   0.730  11.594   5.367 -0.1090 -0.1904  0.0185
  863loPI    C312447   0.553  11.949   5.320 -0.0214 -0.1510 -0.0153
  863loPI   PO412448   0.367  11.661   5.869 -0.0074  0.1714 -0.1592
  863loPI   GL112449   0.405  11.901   6.293 -0.0822 -0.1638 -0.1336
  863loPI   GL212450   0.767  12.062   6.320  0.0667 -0.0843  0.2549
  863loPI   C1A12451   0.241  11.802   6.675 -0.2786  0.1062 -0.1280
  863loPI   C2A12452   0.273  11.761   7.115 -0.0021  0.2504 -0.1051
  863loPI   C3A12453   0.250  11.648   7.525 -0.2274 -0.0173  0.1134
  863loPI   C4A12454   0.216  11.851   7.966  0.0826  0.0628  0.1125
  863loPI   C5A12455   0.332  11.905   8.491 -0.3432 -0.1342 -0.2454
  863loPI   C6A12456   0.486  11.980   8.950  0.1683  0.1200  0.1003
  863loPI   C1B12457   0.701  11.860   6.816  0.1876 -0.2120 -0.0958
  863loPI   C2B12458   0.722  11.872   7.227  0.1323  0.0898  0.4537
  863loPI   C3B12459   0.631  11.933   7.732  0.1512 -0.1549 -0.0719
  863loPI   C4B12460   0.628  11.956   8.125 -0.1112  0.0091  0.0398
  864loPI    C112461   1.150   0.394   5.940  0.0324 -0.1414 -0.0672
  864loPI    C212462   0.838   0.497   5.713  0.0483  0.0069 -0.0231
  864loPI    C312463   1.111   0.240   5.573 -0.1272 -0.1748 -0.0370
  864loPI   PO412464   1.065   0.437   6.154  0.0943  0.1272  0.1102
  864loPI   GL112465   0.869   0.327   6.547 -0.2678 -0.1974 -0.1478
  864loPI   GL212466   0.683   0.570   6.609  0.2416 -0.0539  0.0993
  864loPI   C1A12467   1.074   0.328   6.963  0.0723  0.1889  0.3684
  864loPI   C2A12468   1.131   0.311   7.411 -0.1033  0.0070 -0.0268
  864loPI   C3A12469   1.058   0.117   7.803  0.2151 -0.1271 -0.3481
  864loPI   C4A12470   0.992   0.107   8.221 -0.0669  0.1769 -0.0861
  864loPI   C5A12471   0.863   0.273   8.498 -0.1234 -0.2043  0.0361
  864loPI   C6A12472   0.417   0.269   8.641  0.1077  0.0477 -0.0553
  864loPI   C1B12473   0.562   0.547   7.051  0.0203 -0.3529  0.3601
  864loPI   C2B12474   0.632   0.567   7.449  0.0048  0.3675 -0.1744
  864loPI   C3B12475   0.673   0.507   7.812 -0.2997  0.0000 -0.3645
  864loPI   C4B12476   0.513   0.449   8.194  0.1365 -0.1200 -0.1202
  865loPI    C112477   1.195  15.624   5.905  0.1121 -0.1117 -0.0188
  865loPI    C212478   0.955  15.349   5.742 -0.0589  0.0629 -0.0658
  865loPI    C312479   1.162  15.599   5.508  0.1340 -0.0559 -0.0242
  865loPI   PO412480   1.062  15.732   6.029  0.0748 -0.1052 -0.0773
  865loPI   GL112481   1.037  15.790   6.428 -0.0674  0.3255 -0.3066
  865loPI   GL212482   1.345  15.559   6.657  0.0824  0.0898 -0.0406
  865loPI   C1A12483   0.885  15.502   6.863  0.1448 -0.0052  0.0963
  865loPI   C2A12484   0.757  15.417   7.199 -0.2269 -0.0575 -0.0225
  865loPI   C3A12485   0.767  15.451   7.659  0.1072 -0.1068  0.0291
  865loPI   C4A12486   0.711  15.323   8.067  0.0415 -0.0208  0.2784
  865loPI   C5A12487   0.634  15.445   8.449 -0.1156  0.3671  0.2037
  865loPI   C6A12488   0.438  15.222   8.837 -0.1756 -0.2694  0.1842
  865loPI   C1B12489   1.298  15.672   7.072  0.1467 -0.2532 -0.1755
  865loPI   C2B12490   1.268  15.687   7.509 -0.0934 -0.0109 -0.1736
  865loPI   C3B12491   1.287  15.631   7.950  0.2546  0.1069  0.1169
  865loPI   C4B12492   1.147  15.680   8.346  0.0268  0.0662  0.1890
  866loPI    C112493   8.196  14.436   6.098 -0.0073 -0.0059 -0.0408
  866loPI    C212494   8.390  14.195   5.845  0.1040  0.0012  0.0373
  866loPI    C312495   7.993  14.169   5.881  0.0667  0.1198 -0.2673
  866loPI   PO412496   8.356  14.465   6.404 -0.2373 -0.3134  0.0888
  866loPI   GL112497   8.167  14.410   6.825  0.0937  0.0244 -0.0491
  866loPI   GL212498   7.944  14.585   6.889 -0.0960  0.2192  0.1398
  866loPI   C1A12499   8.344  14.297   7.179  0.0799  0.1067  0.0046
  866loPI   C2A12500   8.508  14.171   7.483  0.2787  0.0321  0.1729
  866loPI   C3A12501   8.483  14.096   7.960  0.0287 -0.3020  0.5556
  866loPI   C4A12502   8.266  14.087   8.290 -0.2163 -0.1310  0.1547
  866loPI   C5A12503   8.049  13.925   8.698  0.1605  0.0835  0.0873
  866loPI   C6A12504   7.999  13.877   9.072 -0.0287 -0.3375  0.0127
  866loPI   C1B12505   8.054  14.633   7.298  0.0965  0.0104  0.2221
  866loPI   C2B12506   8.155  14.651   7.639 -0.1239  0.0099 -0.0404
  866loPI   C3B12507   8.156  14.547   8.075 -0.1730  0.0747 -0.0596
  866loPI   C4B12508   7.937  14.427   8.425  0.3583 -0.0773 -0.0480
  867loPI    C112509  11.434   5.887   5.956 -0.0083  0.0775  0.0747
  867loPI    C212510  11.051   5.999   5.989 -0.0616 -0.0447 -0.1093
  867loPI    C312511  11.255   6.082   5.655  0.1259  0.1731  0.0562
  867loPI   PO412512  11.568   5.964   6.149 -0.0665 -0.1918  0.0822
  867loPI   GL112513  11.711   5.915   6.578 -0.0961 -0.1340  0.2966
  867loPI   GL212514  11.740   5.628   6.515 -0.0475 -0.3517  0.2240
  867loPI   C1A12515  11.682   5.808   7.016  0.0270  0.1951 -0.0823
  867loPI   C2A12516  11.695   5.738   7.416 -0.0284 -0.0104  0.0647
  867loPI   C3A12517  11.734   5.777   7.820  0.1544 -0.3022 -0.4288
  867loPI   C4A12518  11.659   5.822   8.218 -0.1008  0.2881  0.1944
  867loPI   C5A12519  11.542   5.895   8.704 -0.0838  0.3534  0.1359
  867loPI   C6A12520  11.290   6.217   8.932 -0.3868  0.0521  0.1309
  867loPI   C1B12521  11.656   5.384   6.810  0.1713  0.1429  0.3038
  867loPI   C2B12522  11.574   5.209   7.194  0.0934  0.2674  0.3062
  867loPI   C3B12523  11.629   5.269   7.637  0.2094  0.2704 -0.1334
  867loPI   C4B12524  11.635   5.338   8.010 -0.0693  0.0359 -0.2323
  868loPI    C112525  15.054   9.738   6.057 -0.2079 -0.0191  0.0723
  868loPI    C212526  14.823   9.880   5.762 -0.0938 -0.1113 -0.0628
  868loPI    C312527  15.038   9.547   5.706 -0.0864 -0.1408  0.1320
  868loPI   PO412528  14.941   9.848   6.234  0.3112 -0.0461 -0.1428
  868loPI   GL112529  14.654   9.715   6.487  0.2205 -0.2623  0.2490
  868loPI   GL212530  14.580  10.033   6.543  0.1094 -0.1351  0.1115
  868loPI   C1A12531  14.730   9.738   6.930  0.0153 -0.0530 -0.0309
  868loPI   C2A12532  14.833   9.620   7.373  0.1890 -0.1161  0.0269
  868loPI   C3A12533  14.996   9.651   7.719  0.0343  0.0926  0.0268
  868loPI   C4A12534  14.796   9.666   8.112  0.0298 -0.1100 -0.2298
  868loPI   C5A12535  14.473   9.571   8.358  0.0913 -0.3558  0.1188
  868loPI   C6A12536  14.430   9.343   8.727 -0.0354  0.0732 -0.2544
  868loPI   C1B12537  14.340  10.032   6.884  0.0295  0.0554 -0.0581
  868loPI   C2B12538  14.483   9.999   7.353 -0.2571 -0.0694 -0.1686
  868loPI   C3B12539  14.565   9.911   7.685  0.0142 -0.1137 -0.3828
  868loPI   C4B12540  14.305   9.996   7.991  0.1654  0.0841  0.2539
  869loPI    C112541   9.486  13.733   6.318 -0.0245 -0.0044 -0.1330
  869loPI    C212542   9.779  13.653   6.058  0.1354 -0.1169  0.0784
  869loPI    C312543   9.577  13.353   6.229 -0.0250 -0.0417  0.0231
  869loPI   PO412544   9.587  13.861   6.544  0.1493  0.1552 -0.3305
  869loPI   GL112545   9.844  13.808   6.840  0.1309  0.1967 -0.0421
  869loPI   GL212546   9.956  13.529   7.069 -0.2420  0.0524  0.3012
  869loPI   C1A12547   9.769  14.068   7.257  0.1163 -0.4567  0.0844
  869loPI   C2A12548  10.050  14.024   7.614 -0.1061 -0.0670 -0.1351
  869loPI   C3A12549   9.946  14.109   8.056  0.0397 -0.2042  0.6134
  869loPI   C4A12550   9.825  14.079   8.570 -0.1612 -0.1415  0.2699
  869loPI   C5A12551   9.824  13.969   8.961  0.2039  0.3137  0.0508
  869loPI   C6A12552   9.894  13.564   9.297  0.3054  0.1429 -0.3723
  869loPI   C1B12553   9.811  13.634   7.416  0.0774 -0.0691  0.1185
  869loPI   C2B12554   9.833  13.660   7.891 -0.0362  0.0080 -0.1464
  869loPI   C3B12555   9.856  13.672   8.305  0.0123  0.0853 -0.2784
  869loPI   C4B12556   9.835  13.536   8.770  0.1808  0.0894  0.1044
  870loPI    C112557  10.941   7.640   6.308  0.0599 -0.0709  0.1344
  870loPI    C212558  11.165   7.421   6.059 -0.1797  0.0126 -0.1621
  870loPI    C312559  11.150   7.819   6.017 -0.1279  0.0404  0.0660
  870loPI   PO412560  10.990   7.483   6.559 -0.0944 -0.1113  0.1540
  870loPI   GL112561  11.037   7.221   6.791 -0.1741  0.0279  0.0242
  870loPI   GL212562  11.226   6.911   6.911  0.1436  0.0130  0.1883
  870loPI   C1A12563  10.952   7.251   7.152  0.0202 -0.3107  0.2668
  870loPI   C2A12564  11.001   7.281   7.582 -0.4891 -0.2357  0.2468
  870loPI   C3A12565  10.904   7.400   7.949 -0.1530 -0.1385 -0.1279
  870loPI   C4A12566  11.015   7.578   8.375 -0.1128  0.1827  0.3423
  870loPI   C5A12567  11.180   7.513   8.757 -0.3196  0.2239 -0.2381
  870loPI   C6A12568  11.301   7.305   9.148  0.0458 -0.0589  0.0325
  870loPI   C1B12569  11.173   6.840   7.378 -0.0309 -0.1484 -0.2663
  870loPI   C2B12570  11.166   6.868   7.863  0.2560  0.0008  0.3012
  870loPI   C3B12571  11.333   6.675   8.211  0.0411  0.1025  0.1104
  870loPI   C4B12572  11.399   6.607   8.657 -0.1003  0.0203 -0.0365
  871loPI    C112573  15.001   5.521   5.762 -0.2190  0.1691  0.0207
  871loPI    C212574  15.016   5.849   5.534  0.0848  0.0873 -0.0821
  871loPI    C312575  14.933   5.494   5.369  0.0553  0.0663 -0.0223
  871loPI   PO412576  15.169   5.588   5.940 -0.1466 -0.1947 -0.0536
  871loPI   GL112577  15.201   5.727   6.251 -0.0967  0.0005 -0.1774
  871loPI   GL212578  14.967   5.734   6.447 -0.1616  0.1619  0.0921
  871loPI   C1A12579  15.555   5.604   6.557 -0.0825 -0.1777  0.1375
  871loPI   C2A12580  15.633   5.653   6.971 -0.1657  0.1067  0.0305
  871loPI   C3A12581  15.606   5.647   7.387  0.1804  0.0905  0.2364
  871loPI   C4A12582  15.658   5.660   7.802 -0.1464  0.2378 -0.3252
  871loPI   C5A12583  15.710   5.703   8.260  0.2181  0.0154 -0.0969
  871loPI   C6A12584  15.522   5.647   8.687 -0.0579  0.3136  0.0244
  871loPI   C1B12585  15.213   5.844   6.781 -0.1566 -0.0378 -0.3104
  871loPI   C2B12586  15.278   5.947   7.128 -0.0235  0.3807 -0.2301
  871loPI   C3B12587  15.270   5.934   7.588 -0.3967  0.2438  0.2472
  871loPI   C4B12588  15.307   6.013   8.084  0.0883 -0.0548  0.3660
  872loPI    C112589   5.940  12.496   6.279  0.2496  0.1344 -0.0383
  872loPI    C212590   5.856  12.791   6.022 -0.1497  0.1657  0.1202
  872loPI    C312591   5.824  12.409   5.907 -0.4777  0.1778  0.1623
  872loPI   PO412592   5.808  12.436   6.459 -0.0081  0.0606 -0.0115
  872loPI   GL112593   5.940  12.410   6.841  0.0017 -0.2422 -0.1333
  872loPI   GL212594   6.020  12.673   6.875  0.0233  0.3362 -0.0103
  872loPI   C1A12595   5.981  12.232   7.178  0.0575 -0.0260 -0.0510
  872loPI   C2A12596   5.884  12.198   7.611  0.0197 -0.0943 -0.0339
  872loPI   C3A12597   5.798  12.161   8.065 -0.1799  0.0265  0.0214
  872loPI   C4A12598   5.557  12.151   8.497  0.0252 -0.0893 -0.0617
  872loPI   C5A12599   5.472  11.802   8.907 -0.2049  0.1224 -0.1413
  872loPI   C6A12600   5.556  11.484   8.899  0.1018  0.4058 -0.0861
  872loPI   C1B12601   6.140  12.748   7.246 -0.1764  0.1920 -0.1589
  872loPI   C2B12602   6.226  12.650   7.651 -0.2663 -0.0198 -0.1572
  872loPI   C3B12603   6.061  12.603   8.077  0.3426  0.1622 -0.0570
  872loPI   C4B12604   5.974  12.530   8.471 -0.1772 -0.0120  0.2172
  873loPI    C112605   9.649   6.511   6.607 -0.2824 -0.3045 -0.0523
  873loPI    C212606   9.938   6.240   6.663 -0.0314 -0.0401 -0.0467
  873loPI    C312607   9.745   6.256   6.314  0.1067 -0.0827 -0.1259
  873loPI   PO412608   9.445   6.444   6.769  0.0806  0.1956  0.0033
  873loPI   GL112609   9.492   6.455   7.140  0.1382 -0.1096 -0.1469
  873loPI   GL212610   9.717   6.180   7.122  0.0924  0.0445  0.0551
  873loPI   C1A12611   9.570   6.418   7.555 -0.0215 -0.0016 -0.0129
  873loPI   C2A12612   9.553   6.511   7.977  0.0623 -0.3521  0.0077
  873loPI   C3A12613   9.601   6.458   8.351 -0.3347  0.0754 -0.0620
  873loPI   C4A12614   9.467   6.529   8.763  0.3043  0.1809 -0.2288
  873loPI   C5A12615   9.412   6.779   9.083 -0.0001 -0.1029 -0.1016
  873loPI   C6A12616   9.563   6.926   9.576  0.1429  0.3882 -0.1612
  873loPI   C1B12617   9.934   6.109   7.581 -0.1210  0.1885  0.0801
  873loPI   C2B12618   9.968   6.119   8.046 -0.1006 -0.1033 -0.3135
  873loPI   C3B12619   9.973   6.060   8.526 -0.0678  0.1250  0.0474
  873loPI   C4B12620  10.002   6.325   8.891 -0.1598 -0.0631  0.4285
  874loPI    C112621  10.562   1.268   6.616  0.0288  0.1369  0.0968
  874loPI    C212622  10.739   1.236   6.259  0.1608 -0.0185  0.1753
  874loPI    C312623  10.573   0.914   6.430 -0.0359  0.0873  0.1863
  874loPI   PO412624  10.752   1.361   6.787  0.2407 -0.1340  0.0564
  874loPI   GL112625  10.886   1.534   7.045 -0.0659  0.2077 -0.1784
  874loPI   GL212626  11.169   1.615   6.949  0.0053 -0.0884 -0.1896
  874loPI   C1A12627  10.995   1.678   7.384  0.0669 -0.0319 -0.0040
  874loPI   C2A12628  11.160   1.685   7.768  0.0479 -0.1911  0.1388
  874loPI   C3A12629  11.146   1.704   8.117 -0.0379  0.3062 -0.1591
  874loPI   C4A12630  11.257   1.624   8.472 -0.0135  0.3245 -0.0910
  874loPI   C5A12631  11.141   1.784   8.857  0.1208 -0.1744  0.2150
  874loPI   C6A12632  11.357   1.705   9.216  0.3967 -0.1621 -0.3785
  874loPI   C1B12633  11.428   1.552   7.325 -0.3992  0.2357 -0.2415
  874loPI   C2B12634  11.593   1.408   7.744 -0.0751  0.0810  0.2142
  874loPI   C3B12635  11.550   1.342   8.172 -0.0075  0.0799  0.1237
  874loPI   C4B12636  11.535   1.270   8.606 -0.1259 -0.1308 -0.2442
  875loPI    C112637   5.844   7.374   6.110  0.0292 -0.0240 -0.0100
  875loPI    C212638   6.075   7.216   5.825  0.0610 -0.0479  0.0291
  875loPI    C312639   5.792   7.481   5.728 -0.0435 -0.1859 -0.0459
  875loPI   PO412640   5.951   7.493   6.290 -0.2446 -0.0412  0.0513
  875loPI   GL112641   5.697   7.524   6.752  0.3350  0.0563 -0.2606
  875loPI   GL212642   5.392   7.653   6.945 -0.2195  0.0773  0.1863
  875loPI   C1A12643   5.998   7.551   7.041 -0.0891 -0.0513  0.1256
  875loPI   C2A12644   6.082   7.581   7.478 -0.4244  0.1152  0.1557
  875loPI   C3A12645   5.946   7.642   7.988  0.0216 -0.2880  0.1278
  875loPI   C4A12646   5.988   7.722   8.444  0.1117  0.2108 -0.0060
  875loPI   C5A12647   6.060   7.629   8.854 -0.3357  0.1703  0.1597
  875loPI   C6A12648   6.440   7.611   9.021 -0.2844  0.2436 -0.0496
  875loPI   C1B12649   5.390   7.621   7.360 -0.1879 -0.0527 -0.0270
  875loPI   C2B12650   5.410   7.604   7.791  0.2028 -0.3903  0.1163
  875loPI   C3B12651   5.461   7.561   8.115  0.3899 -0.0752  0.0849
  875loPI   C4B12652   5.527   7.869   8.565 -0.3184 -0.0789  0.0524
  876loPI    C112653  14.213   5.603   5.813 -0.1855  0.0353 -0.0664
  876loPI    C212654  14.495   5.729   5.559 -0.0396  0.0894  0.1203
  876loPI    C312655  14.109   5.773   5.467  0.0123  0.1681 -0.0625
  876loPI   PO412656  14.286   5.666   6.073 -0.0193 -0.0221  0.0155
  876loPI   GL112657  14.300   6.096   6.279  0.2776  0.0379 -0.0698
  876loPI   GL212658  13.927   5.989   6.346 -0.2289 -0.1465  0.0790
  876loPI   C1A12659  14.374   6.037   6.762 -0.0783  0.0659  0.1945
  876loPI   C2A12660  14.284   6.066   7.206 -0.0371  0.2043 -0.1862
  876loPI   C3A12661  14.358   6.094   7.672 -0.1699  0.2011 -0.0089
  876loPI   C4A12662  14.460   6.074   8.126 -0.0817 -0.2149  0.2159
  876loPI   C5A12663  14.401   6.085   8.531 -0.0273  0.1406 -0.0627
  876loPI   C6A12664  14.057   6.287   8.812  0.0210  0.2033  0.2508
  876loPI   C1B12665  13.873   5.953   6.845  0.1088  0.0712  0.0727
  876loPI   C2B12666  13.778   5.797   7.261 -0.1303 -0.0317 -0.0964
  876loPI   C3B12667  13.918   5.933   7.629  0.1969 -0.0965 -0.0027
  876loPI   C4B12668  13.991   5.849   8.153  0.1227  0.0087 -0.0697
  877loPI    C112669   5.597   8.891   6.030  0.0845  0.0649 -0.0015
  877loPI    C212670   5.950   9.063   5.957  0.2218 -0.2205 -0.0212
  877loPI    C312671   5.873   8.697   5.815 -0.0052 -0.2427  0.1551
  877loPI   PO412672   5.499   8.897   6.289  0.0623  0.2206 -0.0537
  877loPI   GL112673   5.523   8.636   6.697  0.2692  0.0340  0.0743
  877loPI   GL212674   5.836   8.539   6.854  0.1227  0.0819 -0.0927
  877loPI   C1A12675   5.398   8.663   7.079 -0.1031 -0.2132 -0.1620
  877loPI   C2A12676   5.359   8.595   7.571  0.3221 -0.1020  0.1094
  877loPI   C3A12677   5.409   8.643   8.085 -0.0791  0.0829 -0.1019
  877loPI   C4A12678   5.464   8.755   8.600  0.1717  0.0375 -0.1162
  877loPI   C5A12679   5.625   9.076   8.915  0.1063 -0.3571  0.1908
  877loPI   C6A12680   5.860   9.253   9.238  0.0128  0.0852 -0.0353
  877loPI   C1B12681   5.794   8.414   7.344  0.1453  0.0679  0.2825
  877loPI   C2B12682   5.892   8.468   7.747  0.2289 -0.0030  0.1098
  877loPI   C3B12683   5.881   8.685   8.089 -0.0615 -0.0555 -0.0794
  877loPI   C4B12684   6.080   8.678   8.372  0.1103  0.0827 -0.0275
  878loPI    C112685  15.328   3.855   5.938 -0.0245 -0.1424 -0.0305
  878loPI    C212686  15.521   3.720   6.261 -0.0361  0.0043  0.0388
  878loPI    C312687  15.478   3.484   5.941 -0.0239 -0.1417  0.1434
  878loPI   PO412688  15.393   4.079   5.913 -0.1796 -0.0881  0.0040
  878loPI   GL112689  15.537   4.308   6.302 -0.0938 -0.0595  0.4221
  878loPI   GL212690  15.812   4.094   6.465  0.1115  0.0484 -0.1221
  878loPI   C1A12691  15.576   4.473   6.725  0.1438 -0.1995 -0.2409
  878loPI   C2A12692  15.574   4.614   7.102 -0.1565 -0.2215  0.4687
  878loPI   C3A12693  15.524   4.632   7.606  0.3448  0.1466 -0.0845
  878loPI   C4A12694  15.548   4.616   8.126 -0.2772  0.1734  0.0316
  878loPI   C5A12695  15.518   4.913   8.496 -0.2440 -0.2610  0.1613
  878loPI   C6A12696  15.714   5.281   8.460  0.0513  0.2583 -0.2307
  878loPI   C1B12697  15.883   4.184   6.932  0.0363 -0.1289  0.1185
  878loPI   C2B12698  15.928   4.160   7.328 -0.2671 -0.1324  0.0945
  878loPI   C3B12699  15.885   4.315   7.748  0.1521 -0.0575  0.0030
  878loPI   C4B12700  15.930   4.221   8.193  0.0903 -0.1562  0.1309
  879loPI    C112701  10.864  14.795   6.139 -0.0244  0.0348  0.0377
  879loPI    C212702  11.238  14.853   6.009 -0.0494  0.2184  0.0448
  879loPI    C312703  11.027  14.538   5.880 -0.0049  0.2899 -0.2078
  879loPI   PO412704  10.858  14.753   6.429 -0.2188  0.2061 -0.0110
  879loPI   GL112705  11.137  14.882   6.666  0.0378 -0.0979  0.0119
  879loPI   GL212706  11.374  15.033   6.485  0.1063 -0.0455 -0.1345
  879loPI   C1A12707  11.055  15.052   7.135 -0.0806  0.1161  0.0676
  879loPI   C2A12708  10.981  15.082   7.554 -0.1542 -0.0966 -0.4492
  879loPI   C3A12709  10.967  15.020   8.021  0.0768  0.2606 -0.1310
  879loPI   C4A12710  11.059  14.843   8.402  0.1478  0.3321  0.0061
  879loPI   C5A12711  11.176  14.916   8.820 -0.0471 -0.0306 -0.0869
  879loPI   C6A12712  11.399  14.729   8.999 -0.1487  0.2092  0.1312
  879loPI   C1B12713  11.448  15.209   6.925 -0.2234 -0.0248  0.2302
  879loPI   C2B12714  11.497  15.106   7.388  0.3051 -0.2796 -0.1921
  879loPI   C3B12715  11.446  15.147   7.821 -0.0257 -0.0342  0.1242
  879loPI   C4B12716  11.460  15.129   8.202 -0.1972  0.1057  0.1509
  880loPI    C112717   3.179   7.678   6.052  0.1283  0.0594 -0.2613
  880loPI    C212718   2.931   7.976   6.153 -0.2427 -0.3813  0.1790
  880loPI    C312719   2.862   7.761   5.822 -0.0724 -0.0973 -0.0458
  880loPI   PO412720   3.208   7.597   6.315 -0.0315 -0.2124 -0.0660
  880loPI   GL112721   3.250   7.562   6.736 -0.3260  0.0410  0.2453
  880loPI   GL212722   2.910   7.424   6.651  0.0777 -0.0800  0.3053
  880loPI   C1A12723   3.366   7.698   7.135  0.0750 -0.1332  0.3330
  880loPI   C2A12724   3.226   7.648   7.507  0.0115 -0.2672  0.2147
  880loPI   C3A12725   3.249   7.647   7.953  0.1906  0.3959  0.3196
  880loPI   C4A12726   3.240   7.743   8.282 -0.1166  0.2119  0.0207
  880loPI   C5A12727   3.140   7.752   8.737  0.0662  0.1113  0.1400
  880loPI   C6A12728   2.867   7.906   8.942 -0.2325 -0.3176  0.0343
  880loPI   C1B12729   2.925   7.429   7.084 -0.1263 -0.3924 -0.1167
  880loPI   C2B12730   2.782   7.386   7.583  0.1688 -0.1408 -0.1233
  880loPI   C3B12731   2.749   7.477   8.042 -0.1038  0.1472  0.2055
  880loPI   C4B12732   2.723   7.374   8.355  0.0861 -0.2529 -0.0313
  881loPI    C112733  15.131   6.200   5.876 -0.0661 -0.0596 -0.2168
  881loPI    C212734  15.465   6.018   5.754  0.0610  0.1917 -0.2507
  881loPI    C312735  15.345   6.356   5.577 -0.1723  0.1431 -0.1893
  881loPI   PO412736  15.137   6.234   6.097  0.1178  0.0157  0.1972
  881loPI   GL112737  15.415   6.225   6.400  0.3121  0.1917 -0.1297
  881loPI   GL212738  15.311   6.557   6.433 -0.2851 -0.0375  0.0698
  881loPI   C1A12739  15.606   6.099   6.659  0.1185  0.0665  0.0183
  881loPI   C2A12740  15.711   6.189   7.041 -0.1765  0.1979 -0.1995
  881loPI   C3A12741  15.706   6.173   7.515  0.4421 -0.1281  0.1171
  881loPI   C4A12742  15.775   6.138   7.986  0.0262  0.0529  0.1122
  881loPI   C5A12743  15.663   6.207   8.378  0.0859 -0.0466  0.0179
  881loPI   C6A12744  15.340   6.217   8.535 -0.0713  0.2050 -0.0739
  881loPI   C1B12745  15.239   6.467   6.873 -0.1509  0.0530  0.2132
  881loPI   C2B12746  15.289   6.434   7.270 -0.0797 -0.0723  0.1389
  881loPI   C3B12747  15.278   6.456   7.722  0.0373 -0.0581  0.0236
  881loPI   C4B12748  15.275   6.558   8.152  0.2264 -0.3130  0.0434
  882loPI    C112749  16.684   5.363   5.609  0.1039  0.0832  0.0236
  882loPI    C212750  16.367   5.576   5.492  0.0901  0.0217 -0.0516
  882loPI    C312751  16.569   5.356   5.226  0.1372 -0.0158  0.0150
  882loPI   PO412752  16.661   5.199   5.817 -0.0228  0.0497  0.1789
  882loPI   GL112753  16.657   5.168   6.246  0.0391 -0.0676 -0.0150
  882loPI   GL212754  16.559   5.041   6.585 -0.2721 -0.0214 -0.1229
  882loPI   C1A12755  16.924   5.321   6.630  0.1180 -0.0935 -0.0036
  882loPI   C2A12756  16.882   5.257   7.172  0.1438  0.1949  0.0553
  882loPI   C3A12757  17.008   5.175   7.632  0.1819 -0.0322 -0.1442
  882loPI   C4A12758  16.951   5.178   8.012  0.1263 -0.0657  0.1985
  882loPI   C5A12759  16.736   5.399   8.309  0.1997  0.0665  0.1805
  882loPI   C6A12760  16.607   5.682   8.682  0.0308  0.1326 -0.3004
  882loPI   C1B12761  16.451   4.974   6.980 -0.2466 -0.2006 -0.2088
  882loPI   C2B12762  16.434   5.101   7.409 -0.0848  0.1665 -0.1389
  882loPI   C3B12763  16.550   4.893   7.763  0.2143 -0.1722  0.1091
  882loPI   C4B12764  16.474   4.985   8.186 -0.2226 -0.3002  0.0251
  883loPI    C112765  15.431   4.912   5.717  0.1900 -0.0666 -0.1083
  883loPI    C212766  15.162   5.065   5.463  0.0716  0.1531  0.1441
  883loPI    C312767  15.543   5.020   5.348 -0.0102  0.1126 -0.1186
  883loPI   PO412768  15.479   5.128   5.968  0.2630  0.2280 -0.0587
  883loPI   GL112769  15.158   5.270   6.371 -0.1586 -0.4362 -0.0410
  883loPI   GL212770  15.141   4.977   6.453  0.0311 -0.4251  0.0025
  883loPI   C1A12771  15.136   5.328   6.858  0.1198  0.2416  0.2595
  883loPI   C2A12772  15.171   5.455   7.193  0.4810  0.4579 -0.1616
  883loPI   C3A12773  15.193   5.476   7.596  0.1328  0.2220 -0.1566
  883loPI   C4A12774  15.301   5.424   8.080  0.0056 -0.0737 -0.1270
  883loPI   C5A12775  15.022   5.634   8.484  0.0968  0.1981 -0.4955
  883loPI   C6A12776  14.698   5.736   8.751 -0.1939  0.1078  0.1302
  883loPI   C1B12777  15.170   4.844   6.874 -0.1164  0.0055  0.0081
  883loPI   C2B12778  15.186   4.862   7.313  0.2635 -0.1810  0.1538
  883loPI   C3B12779  15.223   4.985   7.750  0.0707 -0.0988 -0.1234
  883loPI   C4B12780  15.102   4.874   8.135  0.3683 -0.1184  0.1198
  884loPI    C112781  14.298   2.281   6.297  0.0880  0.2439 -0.1928
  884loPI    C212782  13.978   2.178   6.080  0.1793 -0.1045 -0.1678
  884loPI    C312783  14.317   2.284   5.897  0.1012  0.1056 -0.1936
  884loPI   PO412784  14.356   2.110   6.489 -0.1602 -0.2407 -0.3031
  884loPI   GL112785  14.609   2.081   6.874 -0.1509  0.0804  0.0802
  884loPI   GL212786  14.735   1.888   7.014  0.0111 -0.3204 -0.0425
  884loPI   C1A12787  14.367   2.112   7.316 -0.2726 -0.1381  0.4003
  884loPI   C2A12788  14.360   2.092   7.745 -0.0173 -0.2783 -0.2066
  884loPI   C3A12789  14.403   2.081   8.143  0.0533  0.1410 -0.0902
  884loPI   C4A12790  14.402   2.026   8.549 -0.3581 -0.0553 -0.1371
  884loPI   C5A12791  14.695   1.870   8.720  0.1336 -0.1970  0.0473
  884loPI   C6A12792  15.051   2.124   8.881 -0.0858 -0.0335  0.0686
  884loPI   C1B12793  14.793   1.760   7.494  0.2018 -0.0836 -0.1607
  884loPI   C2B12794  14.754   1.751   7.863  0.1170  0.3194 -0.1431
  884loPI   C3B12795  14.889   1.705   8.278  0.2068 -0.0514  0.1397
  884loPI   C4B12796  15.105   1.575   8.728  0.1908  0.1975  0.0674
  885loPI    C112797  10.893  11.092   5.882 -0.2708  0.0510 -0.0529
  885loPI    C212798  10.766  11.350   6.160 -0.0098 -0.0034  0.1203
  885loPI    C312799  11.021  11.471   5.877 -0.3556  0.0787 -0.1633
  885loPI   PO412800  10.971  10.909   6.091 -0.3942 -0.0048 -0.0161
  885loPI   GL112801  11.033  10.853   6.559  0.1850  0.0743  0.0430
  885loPI   GL212802  10.844  11.075   6.618  0.1491 -0.1254  0.0580
  885loPI   C1A12803  11.338  10.690   6.892 -0.1309 -0.2557  0.1937
  885loPI   C2A12804  11.384  10.695   7.300  0.1282  0.3154  0.2638
  885loPI   C3A12805  11.338  10.571   7.734 -0.2601  0.0319  0.1264
  885loPI   C4A12806  11.368  10.575   8.131  0.0025  0.2354 -0.1975
  885loPI   C5A12807  11.281  10.399   8.512  0.0737 -0.1029  0.1451
  885loPI   C6A12808  11.108  10.027   8.701  0.2455 -0.1968  0.1008
  885loPI   C1B12809  10.888  11.077   7.070 -0.0214 -0.0072 -0.0478
  885loPI   C2B12810  11.003  10.992   7.497  0.0327 -0.1098  0.2592
  885loPI   C3B12811  11.036  10.911   7.980 -0.0518  0.2067  0.4025
  885loPI   C4B12812  11.040  10.830   8.472 -0.3569 -0.1506 -0.0271
  886loPI    C112813   7.191   2.862   6.026 -0.0910  0.0423  0.0646
  886loPI    C212814   6.834   2.766   5.874 -0.0599  0.0832 -0.0350
  886loPI    C312815   7.123   2.490   5.896 -0.0443  0.0934 -0.1091
  886loPI   PO412816   7.252   2.936   6.435  0.1466  0.3866  0.2527
  886loPI   GL112817   7.021   3.084   6.690 -0.3754  0.0592 -0.0272
  886loPI   GL212818   6.797   2.891   6.742  0.0198  0.0002 -0.2951
  886loPI   C1A12819   7.049   3.213   7.095  0.1184 -0.2681  0.2956
  886loPI   C2A12820   7.042   3.159   7.497  0.0502  0.4075  0.1095
  886loPI   C3A12821   7.190   3.155   7.877 -0.2079 -0.0241  0.0810
  886loPI   C4A12822   7.053   2.993   8.252  0.3393 -0.3944 -0.0329
  886loPI   C5A12823   7.090   2.859   8.658 -0.3862 -0.2120 -0.1656
  886loPI   C6A12824   6.944   2.656   9.014 -0.0907  0.1571 -0.2824
  886loPI   C1B12825   6.765   2.808   7.154 -0.1281  0.3206  0.1082
  886loPI   C2B12826   6.775   2.695   7.584 -0.0522 -0.1288  0.1277
  886loPI   C3B12827   6.848   2.680   7.914  0.3451 -0.4836 -0.0276
  886loPI   C4B12828   6.649   2.754   8.391 -0.1577  0.0569 -0.3712
  887loPI    C112829  17.133  12.416   5.852  0.4697  0.1622  0.2610
  887loPI    C212830  17.095  12.808   5.787 -0.1673  0.0655 -0.0184
  887loPI    C312831  17.397  12.606   5.619 -0.1134  0.3495 -0.2729
  887loPI   PO412832  17.081  12.455   6.118  0.1745  0.0363 -0.0249
  887loPI   GL112833  17.171  12.481   6.505  0.2628 -0.1443 -0.3155
  887loPI   GL212834  17.172  12.161   6.567 -0.0795  0.1266 -0.1296
  887loPI   C1A12835  17.136  12.533   6.978 -0.1439 -0.5048  0.2135
  887loPI   C2A12836  17.120  12.564   7.421  0.1609  0.1285  0.2220
  887loPI   C3A12837  17.120  12.680   7.931 -0.0555  0.3089  0.2319
  887loPI   C4A12838  16.966  12.569   8.239  0.0950  0.2688 -0.0790
  887loPI   C5A12839  16.932  12.709   8.614  0.0735  0.1403 -0.0268
  887loPI   C6A12840  16.983  12.424   9.000 -0.1561 -0.0262  0.1621
  887loPI   C1B12841  17.118  11.986   6.973  0.1570  0.0636  0.2524
  887loPI   C2B12842  17.135  12.057   7.475 -0.3610 -0.1047  0.0767
  887loPI   C3B12843  17.028  12.115   7.945 -0.0063 -0.2331  0.0428
  887loPI   C4B12844  17.057  11.800   8.287  0.1749 -0.0025 -0.0510
  888loPI    C112845  16.286  13.486   6.103  0.0408 -0.2099 -0.0230
  888loPI    C212846  16.356  13.215   5.818 -0.0649 -0.3105  0.0457
  888loPI    C312847  16.219  13.577   5.720  0.1137 -0.2676 -0.0497
  888loPI   PO412848  16.513  13.279   6.302 -0.4599 -0.1847  0.0825
  888loPI   GL112849  16.636  13.015   6.597  0.0575  0.1737  0.2764
  888loPI   GL212850  16.304  12.938   6.688  0.0484 -0.0936 -0.1479
  888loPI   C1A12851  16.739  12.867   6.990  0.1487 -0.1559 -0.1317
  888loPI   C2A12852  16.734  12.941   7.389  0.1464 -0.3877 -0.1133
  888loPI   C3A12853  16.686  12.916   7.760  0.1682  0.3561  0.0009
  888loPI   C4A12854  16.657  12.982   8.196 -0.0312 -0.2829 -0.2570
  888loPI   C5A12855  16.908  13.167   8.486  0.1080 -0.0739  0.0412
  888loPI   C6A12856  16.899  13.382   8.914 -0.1811  0.0148  0.1619
  888loPI   C1B12857  16.294  12.811   7.156  0.2480  0.1493 -0.0979
  888loPI   C2B12858  16.259  12.720   7.587  0.0797  0.1851  0.0990
  888loPI   C3B12859  16.219  12.766   8.030  0.2869 -0.1615 -0.1164
  888loPI   C4B12860  16.249  12.920   8.484  0.0946 -0.1553 -0.2127
  889loPI    C112861   0.454  13.502   5.888  0.1139  0.3262  0.0555
  889loPI    C212862   0.842  13.482   5.795  0.0536  0.0770 -0.1551
  889loPI    C312863   0.613  13.771   5.639  0.0840  0.0252 -0.2971
  889loPI   PO412864   0.501  13.582   6.171 -0.1640 -0.2306 -0.1832
  889loPI   GL112865   0.726  13.596   6.552 -0.4284  0.2027 -0.2456
  889loPI   GL212866   0.574  13.928   6.586 -0.1746 -0.2175  0.0009
  889loPI   C1A12867   0.836  13.560   6.954 -0.2346  0.0690 -0.1438
  889loPI   C2A12868   0.974  13.624   7.327  0.0627  0.0309  0.1840
  889loPI   C3A12869   0.889  13.560   7.759  0.1928 -0.0691 -0.0762
  889loPI   C4A12870   1.033  13.527   8.273  0.3246  0.0708  0.0434
  889loPI   C5A12871   0.906  13.688   8.631  0.1432  0.3201 -0.0049
  889loPI   C6A12872   0.741  14.030   8.914  0.0075  0.2652 -0.4317
  889loPI   C1B12873   0.520  13.964   7.051 -0.0112  0.3440  0.0242
  889loPI   C2B12874   0.566  13.859   7.556  0.1532  0.0966  0.0960
  889loPI   C3B12875   0.538  13.829   7.982  0.3510 -0.1923  0.1896
  889loPI   C4B12876   0.533  13.727   8.268 -0.4841 -0.0064 -0.3644
  890loPI    C112877   1.684  10.108   5.857  0.0852  0.0012  0.0018
  890loPI    C212878   1.712   9.763   5.656  0.0484  0.0535 -0.0939
  890loPI    C312879   1.379   9.984   5.630  0.0058  0.0141  0.1010
  890loPI   PO412880   1.697  10.028   6.132  0.2779 -0.2580 -0.1058
  890loPI   GL112881   1.375  10.178   6.424  0.0606  0.2844 -0.2061
  890loPI   GL212882   0.978  10.168   6.367 -0.1312 -0.1903  0.2784
  890loPI   C1A12883   1.497  10.354   6.767 -0.0464 -0.1110 -0.0937
  890loPI   C2A12884   1.469  10.545   7.191 -0.4772 -0.0505 -0.1681
  890loPI   C3A12885   1.567  10.779   7.645 -0.0722  0.2986 -0.1109
  890loPI   C4A12886   1.567  10.825   8.048 -0.1539 -0.0620  0.0192
  890loPI   C5A12887   1.514  10.593   8.341 -0.2579  0.2175 -0.0542
  890loPI   C6A12888   1.787  10.464   8.648  0.1405  0.0995  0.0412
  890loPI   C1B12889   1.107  10.067   6.800  0.4076 -0.0129  0.0999
  890loPI   C2B12890   1.101  10.113   7.273  0.0462 -0.0115 -0.1189
  890loPI   C3B12891   0.973  10.059   7.634  0.0962 -0.0337 -0.2112
  890loPI   C4B12892   1.116  10.079   8.091  0.0672  0.0323 -0.0516
  891loPI    C112893  15.769   0.804   6.341  0.0844  0.0164 -0.0632
  891loPI    C212894  16.167   0.774   6.315  0.0990 -0.0268  0.1880
  891loPI    C312895  15.961   0.964   6.029  0.2572 -0.3586 -0.1543
  891loPI   PO412896  15.586   0.644   6.351 -0.0401 -0.1115  0.0142
  891loPI   GL112897  15.458   0.573   6.747 -0.5116  0.2061  0.0252
  891loPI   GL212898  15.586   0.225   6.862  0.1025  0.0605  0.2655
  891loPI   C1A12899  15.563   0.717   7.112 -0.0983 -0.2604  0.0589
  891loPI   C2A12900  15.582   0.705   7.560 -0.1206 -0.2628 -0.2751
  891loPI   C3A12901  15.446   0.523   7.974  0.1635  0.1445 -0.3090
  891loPI   C4A12902  15.550   0.586   8.340 -0.2327 -0.1292 -0.3493
  891loPI   C5A12903  15.922   0.659   8.658  0.3041  0.2110  0.2488
  891loPI   C6A12904  16.388   0.841   8.596 -0.1643 -0.0212  0.2234
  891loPI   C1B12905  15.577   0.263   7.308 -0.2664  0.0390 -0.1262
  891loPI   C2B12906  15.456   0.025   7.668 -0.1997 -0.2993 -0.0513
  891loPI   C3B12907  15.290   0.008   8.056 -0.0752  0.2113  0.3195
  891loPI   C4B12908  15.303   0.189   8.443 -0.3695 -0.1864  0.1469
  892loPI    C112909   4.780   3.775   6.080 -0.1968 -0.0058  0.2020
  892loPI    C212910   4.733   3.393   5.971  0.0688  0.0227 -0.0225
  892loPI    C312911   4.646   3.687   5.714  0.1962  0.1044  0.0265
  892loPI   PO412912   4.719   3.757   6.313  0.0948 -0.0704  0.0751
  892loPI   GL112913   4.780   3.534   6.689 -0.3658  0.1935 -0.0631
  892loPI   GL212914   4.658   3.307   6.817  0.0005  0.2789  0.3808
  892loPI   C1A12915   4.884   3.810   7.059 -0.2347 -0.1299  0.0080
  892loPI   C2A12916   4.956   4.030   7.466 -0.0120  0.0022  0.1963
  892loPI   C3A12917   4.923   3.923   7.881 -0.1202  0.0208  0.0841
  892loPI   C4A12918   4.905   4.050   8.318  0.2393 -0.1983 -0.0456
  892loPI   C5A12919   4.855   4.188   8.821  0.1760  0.0239 -0.1443
  892loPI   C6A12920   5.093   4.218   9.285  0.1803  0.1282 -0.2153
  892loPI   C1B12921   4.705   3.425   7.239  0.2466  0.2592  0.2198
  892loPI   C2B12922   4.682   3.611   7.618  0.3449 -0.2545  0.2932
  892loPI   C3B12923   4.605   3.539   8.106 -0.1010  0.0319  0.1924
  892loPI   C4B12924   4.631   3.664   8.549  0.0876 -0.0031  0.2585
  893loPI    C112925  10.361  12.191   6.160  0.2533  0.4487  0.1440
  893loPI    C212926  10.294  12.134   5.770  0.0289 -0.0308  0.2450
  893loPI    C312927  10.059  12.381   5.980  0.1573  0.2374  0.0797
  893loPI   PO412928  10.476  11.891   6.260 -0.1660  0.1049 -0.0452
  893loPI   GL112929  10.609  11.583   6.546 -0.0611 -0.1451 -0.0165
  893loPI   GL212930  10.941  11.550   6.677  0.1484  0.0812  0.1819
  893loPI   C1A12931  10.501  11.391   6.917  0.0108  0.0603 -0.0436
  893loPI   C2A12932  10.604  11.366   7.344 -0.2546  0.2097 -0.0523
  893loPI   C3A12933  10.587  11.321   7.739 -0.1388  0.3200 -0.2720
  893loPI   C4A12934  10.670  11.234   8.129  0.0817  0.0979  0.2467
  893loPI   C5A12935  10.739  11.174   8.590 -0.3298 -0.1880 -0.1310
  893loPI   C6A12936  10.479  11.144   8.887  0.0693  0.0270 -0.1320
  893loPI   C1B12937  10.948  11.570   7.065 -0.2336 -0.1904  0.2561
  893loPI   C2B12938  11.010  11.544   7.549 -0.1421  0.6606  0.2012
  893loPI   C3B12939  11.086  11.518   7.997 -0.1468 -0.0176 -0.0249
  893loPI   C4B12940  11.153  11.410   8.405  0.2266 -0.1199 -0.0010
  894loPI    C112941  17.010   2.610   5.840  0.0581 -0.1269  0.1899
  894loPI    C212942  16.720   2.360   5.721 -0.0872 -0.0141  0.3032
  894loPI    C312943  16.957   2.536   5.450 -0.0681 -0.1736  0.2153
  894loPI   PO412944  17.111   2.475   6.016 -0.0938  0.0283  0.1741
  894loPI   GL112945  17.437   2.489   6.301  0.0137 -0.0848  0.0623
  894loPI   GL212946  17.585   2.314   6.185  0.1365  0.0110 -0.1453
  894loPI   C1A12947  17.423   2.328   6.801  0.0708 -0.1812 -0.0519
  894loPI   C2A12948  17.538   2.376   7.267  0.0835 -0.1470  0.1188
  894loPI   C3A12949  17.622   2.432   7.629 -0.0255  0.0463 -0.0972
  894loPI   C4A12950  17.742   2.399   8.116 -0.0457 -0.1127 -0.1125
  894loPI   C5A12951  17.558   2.469   8.583  0.3129  0.0650 -0.1575
  894loPI   C6A12952  17.209   2.757   8.624  0.0876  0.0161  0.1100
  894loPI   C1B12953  17.953   2.200   6.500 -0.1079  0.1592  0.2018
  894loPI   C2B12954  17.945   2.231   6.905 -0.3677  0.0820  0.2298
  894loPI   C3B12955  18.020   2.251   7.359 -0.1483 -0.1461 -0.2241
  894loPI   C4B12956  18.012   2.080   7.739  0.0081 -0.3072 -0.2973
  895loPI    C112957  11.948   3.678   5.929 -0.1630 -0.3932  0.0258
  895loPI    C212958  11.554   3.731   5.891 -0.0896  0.1385 -0.0646
  895loPI    C312959  11.786   3.721   5.566 -0.0246 -0.1679 -0.0114
  895loPI   PO412960  12.000   3.824   6.116 -0.1880 -0.0536 -0.0163
  895loPI   GL112961  11.831   3.781   6.623 -0.1568 -0.2489  0.1227
  895loPI   GL212962  12.108   3.836   6.620 -0.2047 -0.1787  0.0049
  895loPI   C1A12963  11.801   3.987   6.982 -0.0938 -0.0500  0.2469
  895loPI   C2A12964  11.921   4.022   7.453 -0.1909 -0.2420 -0.0835
  895loPI   C3A12965  11.763   4.107   7.800  0.2156  0.2468  0.1513
  895loPI   C4A12966  11.766   3.981   8.226  0.0497 -0.0573  0.0719
  895loPI   C5A12967  12.006   3.978   8.548  0.1949 -0.0640  0.0134
  895loPI   C6A12968  12.309   3.994   8.951  0.2010 -0.0822  0.2843
  895loPI   C1B12969  12.336   3.674   6.877  0.1290  0.1356 -0.1511
  895loPI   C2B12970  12.260   3.693   7.315 -0.0743 -0.0513  0.2997
  895loPI   C3B12971  12.350   3.703   7.780  0.1025 -0.1305 -0.1179
  895loPI   C4B12972  12.324   3.751   8.224 -0.1153 -0.1211 -0.0017
  896loPI    C112973   7.016   0.042   6.172 -0.2327  0.1428 -0.1976
  896loPI    C212974   7.329   0.200   5.978 -0.2472  0.2841 -0.1075
  896loPI    C312975   7.134  -0.114   5.823  0.0377  0.0930 -0.0864
  896loPI   PO412976   7.111   0.045   6.401 -0.2388 -0.0896 -0.0399
  896loPI   GL112977   7.214  -0.167   6.689  0.0334  0.2990 -0.2585
  896loPI   GL212978   7.211  -0.492   6.827  0.1268  0.0251 -0.0520
  896loPI   C1A12979   7.092  -0.088   7.168 -0.0301  0.1000  0.1393
  896loPI   C2A12980   6.979  -0.104   7.563 -0.0756 -0.3408  0.0809
  896loPI   C3A12981   6.959  -0.142   7.913 -0.0806 -0.0207 -0.2712
  896loPI   C4A12982   6.757  -0.130   8.320  0.0926 -0.0606 -0.1364
  896loPI   C5A12983   6.826  -0.024   8.779  0.0867  0.0414 -0.1486
  896loPI   C6A12984   6.495   0.285   8.938  0.0740 -0.0844 -0.2049
  896loPI   C1B12985   7.374  -0.439   7.298  0.1361 -0.0209 -0.3136
  896loPI   C2B12986   7.284  -0.477   7.706 -0.2018 -0.2426 -0.4122
  896loPI   C3B12987   7.219  -0.533   8.103  0.3859  0.2008  0.0789
  896loPI   C4B12988   7.096  -0.496   8.535  0.0090 -0.0176  0.0625
  897loPI    C112989   9.766   2.447   6.645 -0.1150  0.1597  0.0580
  897loPI    C212990  10.090   2.388   6.417 -0.1155 -0.0627  0.1123
  897loPI    C312991   9.724   2.355   6.258 -0.1138  0.0340  0.0874
  897loPI   PO412992   9.744   2.692   6.726 -0.1561 -0.2222  0.0214
  897loPI   GL112993   9.874   2.742   7.186  0.1275  0.1059  0.1702
  897loPI   GL212994   9.842   2.364   7.189  0.3540  0.0802 -0.0723
  897loPI   C1A12995   9.872   2.799   7.566 -0.0182 -0.1893  0.0343
  897loPI   C2A12996  10.132   3.024   7.772 -0.1217 -0.1110 -0.1390
  897loPI   C3A12997  10.367   2.841   8.135  0.2420 -0.0394 -0.1084
  897loPI   C4A12998  10.391   2.901   8.535 -0.0622 -0.0040  0.0729
  897loPI   C5A12999  10.199   2.954   8.814 -0.0104  0.0407  0.1104
  897loPI   C6A13000   9.847   3.162   8.991 -0.0976  0.1372  0.3358
  897loPI   C1B13001   9.704   2.219   7.577  0.0718  0.1660 -0.3618
  897loPI   C2B13002   9.801   2.519   7.981  0.2278  0.1961  0.0396
  897loPI   C3B13003   9.851   2.632   8.364 -0.0236 -0.2917  0.0727
  897loPI   C4B13004   9.701   2.628   8.656 -0.0409 -0.0571 -0.0445
  898loPI    C113005   6.839   9.500   5.804  0.0576 -0.1018  0.1053
  898loPI    C213006   6.687   9.718   5.506  0.0204 -0.0731  0.1452
  898loPI    C313007   7.056   9.568   5.475  0.0819  0.0741  0.1567
  898loPI   PO413008   6.703   9.625   6.031  0.2149 -0.0172  0.1885
  898loPI   GL113009   6.822   9.839   6.524  0.1753  0.0138  0.1580
  898loPI   GL213010   6.594   9.603   6.687  0.2284  0.0921 -0.0104
  898loPI   C1A13011   7.048   9.537   6.858  0.1372 -0.0242  0.2251
  898loPI   C2A13012   6.975   9.553   7.310 -0.2275 -0.1330 -0.3675
  898loPI   C3A13013   6.915   9.539   7.674 -0.6348 -0.0945 -0.1423
  898loPI   C4A13014   6.988   9.514   8.082  0.1881  0.3440  0.0907
  898loPI   C5A13015   7.106   9.522   8.499  0.0793  0.0504  0.0982
  898loPI   C6A13016   7.204   9.577   8.972 -0.1271  0.0139  0.0037
  898loPI   C1B13017   6.558   9.556   7.070  0.3040  0.0396  0.1530
  898loPI   C2B13018   6.441   9.542   7.500  0.0288  0.1400 -0.0009
  898loPI   C3B13019   6.495   9.555   8.002 -0.1737  0.1422  0.2149
  898loPI   C4B13020   6.410   9.494   8.453 -0.1274 -0.0949 -0.1427
  899loPI    C113021   5.023   4.232   6.172  0.0056  0.0691  0.1620
  899loPI    C213022   5.287   3.932   6.143 -0.1205 -0.0238 -0.0493
  899loPI    C313023   5.390   4.301   6.027 -0.0681 -0.0502 -0.0873
  899loPI   PO413024   4.925   4.247   6.384 -0.1572  0.1488  0.0968
  899loPI   GL113025   5.062   4.396   6.763 -0.1644 -0.0639 -0.0594
  899loPI   GL213026   5.403   4.332   6.644  0.0013 -0.0687 -0.1027
  899loPI   C1A13027   5.236   4.451   7.257  0.1589  0.0498  0.0091
  899loPI   C2A13028   5.197   4.509   7.779 -0.2050 -0.1010 -0.0190
  899loPI   C3A13029   5.205   4.513   8.130  0.0016  0.0191 -0.0605
  899loPI   C4A13030   5.185   4.437   8.551 -0.3438  0.0357  0.1776
  899loPI   C5A13031   5.332   4.447   8.917  0.2097 -0.2317 -0.0146
  899loPI   C6A13032   5.472   4.671   9.418  0.0041 -0.0068 -0.0439
  899loPI   C1B13033   5.676   4.510   6.959 -0.3061  0.1213 -0.0165
  899loPI   C2B13034   5.714   4.556   7.414 -0.0277 -0.2384  0.0696
  899loPI   C3B13035   5.713   4.451   7.838 -0.4366 -0.1566 -0.2480
  899loPI   C4B13036   5.724   4.498   8.241  0.0508 -0.1293  0.2817
  900loPI    C113037   4.086   1.839   6.275  0.1128  0.0438  0.0612
  900loPI    C213038   4.226   1.711   5.923  0.1295  0.1268  0.0373
  900loPI    C313039   4.394   2.027   6.102  0.0669  0.1364  0.0794
  900loPI   PO413040   3.743   1.830   6.314 -0.3195  0.0579 -0.1124
  900loPI   GL113041   3.501   2.036   6.589 -0.1068  0.1675  0.1104
  900loPI   GL213042   3.408   1.809   6.698  0.1262 -0.0182  0.0322
  900loPI   C1A13043   3.733   1.870   7.096  0.0301  0.1750 -0.0159
  900loPI   C2A13044   3.711   1.613   7.551  0.1656  0.1654 -0.2721
  900loPI   C3A13045   3.683   1.765   7.845 -0.0443 -0.2372  0.0785
  900loPI   C4A13046   3.568   1.639   8.252  0.1536 -0.1011 -0.1335
  900loPI   C5A13047   3.249   1.526   8.607  0.0512  0.0115 -0.2752
  900loPI   C6A13048   2.824   1.285   8.772  0.3384 -0.0053 -0.1116
  900loPI   C1B13049   3.269   1.575   7.034 -0.1193  0.0404 -0.0047
  900loPI   C2B13050   3.216   1.531   7.556  0.0615 -0.1801 -0.3662
  900loPI   C3B13051   3.158   1.793   7.952 -0.0937 -0.0155  0.1758
  900loPI   C4B13052   3.063   2.103   8.364  0.3770 -0.2877  0.1026
  901loPI    C113053   1.904  14.888   6.026 -0.1313  0.0497  0.0143
  901loPI    C213054   2.098  14.937   5.680 -0.1681  0.0130 -0.0116
  901loPI    C313055   1.843  14.632   5.724  0.0801 -0.1741  0.1584
  901loPI   PO413056   2.021  14.880   6.215  0.1901 -0.3690 -0.2035
  901loPI   GL113057   1.769  14.703   6.638  0.0372  0.0899 -0.1445
  901loPI   GL213058   2.075  14.807   6.733 -0.2038 -0.1230  0.2001
  901loPI   C1A13059   1.653  14.909   7.063  0.2027  0.2941  0.2355
  901loPI   C2A13060   1.650  14.844   7.465 -0.0069  0.1840  0.0958
  901loPI   C3A13061   1.595  14.806   7.889 -0.0641  0.1954 -0.1808
  901loPI   C4A13062   1.421  14.790   8.267  0.2364 -0.0503  0.0242
  901loPI   C5A13063   1.118  14.600   8.541  0.0163 -0.1590 -0.0063
  901loPI   C6A13064   0.838  14.523   8.839  0.2502 -0.0314 -0.0263
  901loPI   C1B13065   2.121  15.146   7.166  0.0293 -0.0279  0.0154
  901loPI   C2B13066   2.033  15.109   7.696 -0.1522  0.0957  0.1928
  901loPI   C3B13067   2.222  14.978   8.032  0.0657 -0.2832  0.2265
  901loPI   C4B13068   2.434  15.125   8.451  0.4324 -0.0095 -0.1593
  902loPI    C113069   7.285  16.444   6.108 -0.0297 -0.3183 -0.0568
  902loPI    C213070   7.680  16.499   6.079 -0.0616 -0.0413 -0.0003
  902loPI    C313071   7.438  16.640   5.794 -0.1472  0.1118  0.1470
  902loPI   PO413072   7.241  16.482   6.373  0.3989  0.0471 -0.1579
  902loPI   GL113073   7.063  16.214   6.702  0.0274 -0.0521  0.3031
  902loPI   GL213074   7.351  16.275   6.873  0.0659  0.2052 -0.0141
  902loPI   C1A13075   6.862  16.255   7.050  0.3024  0.0175 -0.0305
  902loPI   C2A13076   6.921  16.206   7.391  0.1750 -0.3811  0.1866
  902loPI   C3A13077   6.924  16.190   7.752  0.2052 -0.3511 -0.1057
  902loPI   C4A13078   6.974  16.182   8.230 -0.0788  0.0356 -0.0471
  902loPI   C5A13079   7.025  16.223   8.681 -0.1588 -0.0012  0.1868
  902loPI   C6A13080   6.771  16.465   8.901 -0.2749  0.2413 -0.0865
  902loPI   C1B13081   7.451  16.315   7.277  0.0246  0.0299 -0.1372
  902loPI   C2B13082   7.481  16.338   7.657  0.1056 -0.4097  0.0009
  902loPI   C3B13083   7.451  16.267   8.088  0.0199  0.1206 -0.2464
  902loPI   C4B13084   7.578  16.279   8.527 -0.0312  0.1945 -0.2246
  903loPI    C113085   9.454  14.641   6.167  0.0090  0.1779 -0.0825
  903loPI    C213086   9.094  14.732   6.019 -0.1346 -0.1805  0.0348
  903loPI    C313087   9.319  14.454   5.840  0.0368 -0.0389  0.0280
  903loPI   PO413088   9.395  14.643   6.467 -0.0116 -0.0618 -0.0854
  903loPI   GL113089   9.580  14.775   6.816 -0.1190  0.1956  0.1116
  903loPI   GL213090   9.534  15.038   6.911  0.1267 -0.1570 -0.4510
  903loPI   C1A13091   9.485  14.461   7.168 -0.3499 -0.1239 -0.0199
  903loPI   C2A13092   9.480  14.304   7.561  0.2580  0.1424 -0.1775
  903loPI   C3A13093   9.491  14.320   7.968 -0.2339  0.0355  0.2084
  903loPI   C4A13094   9.597  14.423   8.362  0.2978 -0.1228 -0.0276
  903loPI   C5A13095   9.410  14.346   8.801  0.0823  0.0716  0.1287
  903loPI   C6A13096   9.446  14.299   9.272 -0.3738 -0.1433  0.0186
  903loPI   C1B13097   9.579  15.004   7.350 -0.0375 -0.0355  0.0790
  903loPI   C2B13098   9.569  14.915   7.762  0.1083  0.0544  0.0694
  903loPI   C3B13099   9.571  14.914   8.241  0.1309 -0.2545 -0.0572
  903loPI   C4B13100   9.655  14.859   8.611  0.1603 -0.1212  0.1233
  904loPI    C113101   4.931   0.471   6.004  0.0966  0.1019 -0.1693
  904loPI    C213102   4.929   0.134   5.790 -0.0446  0.1134 -0.1870
  904loPI    C313103   4.657   0.418   5.717 -0.0574  0.1418 -0.0312
  904loPI   PO413104   4.855   0.422   6.237 -0.1452 -0.0856  0.1513
  904loPI   GL113105   4.850   0.624   6.587 -0.0092 -0.0584 -0.2491
  904loPI   GL213106   4.605   0.852   6.705  0.2650 -0.0907  0.2041
  904loPI   C1A13107   5.003   0.518   7.031  0.0034 -0.1701  0.0765
  904loPI   C2A13108   5.097   0.353   7.333 -0.0135  0.3739  0.1669
  904loPI   C3A13109   5.067   0.381   7.656  0.4118  0.0721  0.0311
  904loPI   C4A13110   5.046   0.362   8.061 -0.2380  0.2412 -0.5568
  904loPI   C5A13111   4.967   0.546   8.480 -0.1361  0.0361  0.0211
  904loPI   C6A13112   4.656   0.719   8.713 -0.0986 -0.0180  0.0516
  904loPI   C1B13113   4.612   0.841   7.131  0.0044  0.2634 -0.1568
  904loPI   C2B13114   4.792   0.748   7.460 -0.0670 -0.1194  0.2351
  904loPI   C3B13115   4.757   0.751   7.930 -0.1852 -0.0642  0.0898
  904loPI   C4B13116   4.833   0.987   8.291 -0.1729  0.2166 -0.2090
  905loPI    C113117  12.401  15.867   6.079  0.3025 -0.0045  0.0881
  905loPI    C213118  12.298  15.552   5.855  0.1891 -0.0353  0.1829
  905loPI    C313119  12.650  15.732   5.797  0.2854 -0.2232  0.1757
  905loPI   PO413120  12.494  15.818   6.391  0.2684 -0.0953 -0.0809
  905loPI   GL113121  12.330  15.737   6.684  0.2364  0.1649  0.2402
  905loPI   GL213122  12.084  15.600   6.762 -0.1628  0.0122  0.0350
  905loPI   C1A13123  12.360  15.635   7.178 -0.1630  0.0593 -0.0252
  905loPI   C2A13124  12.509  15.663   7.586  0.0754  0.0064 -0.0278
  905loPI   C3A13125  12.489  15.642   8.085 -0.0769  0.1506 -0.0242
  905loPI   C4A13126  12.582  15.580   8.480 -0.0199 -0.1239  0.0502
  905loPI   C5A13127  12.384  15.536   8.860  0.2325  0.1859  0.0118
  905loPI   C6A13128  12.612  15.837   9.048  0.2331 -0.1961  0.2735
  905loPI   C1B13129  11.883  15.480   7.063 -0.0300  0.1306 -0.2014
  905loPI   C2B13130  11.889  15.377   7.508  0.0410 -0.1847  0.0162
  905loPI   C3B13131  11.939  15.304   8.035 -0.1265  0.1778 -0.1679
  905loPI   C4B13132  12.186  15.368   8.397  0.0190  0.0665  0.2276
  906loPI    C113133  12.065   7.504   6.046  0.1615  0.0327  0.1141
  906loPI    C213134  12.241   7.759   5.794  0.1079 -0.0778 -0.0365
  906loPI    C313135  12.287   7.365   5.744 -0.0481 -0.1039  0.0205
  906loPI   PO413136  11.998   7.606   6.434  0.0598  0.4331  0.3444
  906loPI   GL113137  11.908   7.727   6.858 -0.1945  0.0350  0.0416
  906loPI   GL213138  11.801   8.013   7.011  0.3423  0.2410 -0.2282
  906loPI   C1A13139  12.257   7.772   7.211  0.1773  0.0821  0.1514
  906loPI   C2A13140  12.352   7.668   7.651  0.2879 -0.1705 -0.1507
  906loPI   C3A13141  12.393   7.547   8.055  0.2508  0.0420 -0.2384
  906loPI   C4A13142  12.359   7.599   8.452 -0.1588  0.0877  0.0611
  906loPI   C5A13143  12.408   7.819   8.803 -0.0397 -0.2756 -0.1111
  906loPI   C6A13144  12.487   8.293   9.002 -0.1570 -0.0220 -0.0998
  906loPI   C1B13145  11.829   8.093   7.387 -0.1646  0.3071 -0.3634
  906loPI   C2B13146  11.964   8.018   7.814  0.2492 -0.0181 -0.1349
  906loPI   C3B13147  12.009   7.865   8.215 -0.0578  0.0414  0.1609
  906loPI   C4B13148  11.781   7.766   8.683 -0.1260  0.1062  0.0009
  907loPI    C113149  11.840   2.700   6.139 -0.2449  0.0958  0.0935
  907loPI    C213150  11.559   2.800   5.873 -0.1110 -0.0421 -0.1020
  907loPI    C313151  11.686   2.422   5.897  0.2278  0.0633 -0.1820
  907loPI   PO413152  11.957   2.878   6.140  0.0064 -0.0225  0.1852
  907loPI   GL113153  12.038   2.942   6.606 -0.1368 -0.1935 -0.2815
  907loPI   GL213154  11.952   2.672   6.835 -0.1546 -0.1546 -0.0307
  907loPI   C1A13155  12.252   3.140   7.000 -0.0091  0.0668  0.1349
  907loPI   C2A13156  12.247   3.208   7.405  0.1997 -0.3342 -0.0269
  907loPI   C3A13157  12.239   3.099   7.716 -0.1588 -0.1044 -0.2276
  907loPI   C4A13158  12.262   3.182   8.147  0.2975  0.1707 -0.2506
  907loPI   C5A13159  12.376   3.259   8.537  0.0127  0.4753  0.1113
  907loPI   C6A13160  12.259   3.538   8.723 -0.1873  0.0079 -0.3395
  907loPI   C1B13161  12.135   2.618   7.273  0.2278 -0.2179 -0.2588
  907loPI   C2B13162  12.218   2.578   7.715 -0.0405  0.1115  0.1694
  907loPI   C3B13163  12.181   2.544   8.107 -0.0132 -0.0639 -0.0497
  907loPI   C4B13164  12.167   2.707   8.513  0.1351  0.0922  0.2075
  908loPI    C113165   8.281   5.722   6.344  0.0633 -0.2697  0.1477
  908loPI    C213166   8.485   5.458   6.123  0.0555  0.0813 -0.2912
  908loPI    C313167   8.088   5.423   6.162  0.0972 -0.1652 -0.0624
  908loPI   PO413168   8.344   5.695   6.606 -0.0529  0.0399 -0.2020
  908loPI   GL113169   8.645   5.837   6.945 -0.0840  0.1302  0.1880
  908loPI   GL213170   8.363   5.910   7.029 -0.3120 -0.0064 -0.0438
  908loPI   C1A13171   8.757   5.873   7.286 -0.0701 -0.1888  0.0114
  908loPI   C2A13172   8.683   5.983   7.666 -0.1428 -0.1674  0.1934
  908loPI   C3A13173   8.541   5.931   8.036  0.0197  0.1419 -0.0637
  908loPI   C4A13174   8.438   5.910   8.465 -0.1686 -0.0413 -0.0386
  908loPI   C5A13175   8.598   5.667   8.892  0.4409  0.1516  0.1445
  908loPI   C6A13176   8.703   5.581   9.244 -0.2363 -0.0010  0.0802
  908loPI   C1B13177   8.239   6.127   7.337 -0.1154  0.2264  0.2732
  908loPI   C2B13178   8.203   6.268   7.739  0.2806  0.2570  0.4032
  908loPI   C3B13179   8.083   6.227   8.169 -0.0656 -0.0605 -0.0302
  908loPI   C4B13180   7.790   6.093   8.362 -0.2054 -0.0169 -0.0144
  909loPI    C113181   4.895  13.171   6.435 -0.0245 -0.3642 -0.0066
  909loPI    C213182   5.203  13.341   6.246 -0.0363 -0.2253  0.0971
  909loPI    C313183   4.935  13.128   6.039  0.0479 -0.2241 -0.0149
  909loPI   PO413184   4.998  13.223   6.731  0.1769 -0.0171  0.1363
  909loPI   GL113185   5.108  13.470   7.081 -0.3111 -0.0867  0.1956
  909loPI   GL213186   5.486  13.523   7.235  0.2104  0.1536 -0.2008
  909loPI   C1A13187   5.032  13.441   7.493 -0.1877  0.1825 -0.1073
  909loPI   C2A13188   4.871  13.438   7.834  0.4547 -0.0450  0.3055
  909loPI   C3A13189   4.858  13.377   8.178  0.0878 -0.2958  0.0632
  909loPI   C4A13190   4.811  13.500   8.611  0.2390  0.1152 -0.1411
  909loPI   C5A13191   4.851  13.920   8.815  0.3450  0.0997  0.0421
  909loPI   C6A13192   4.702  14.216   8.978 -0.1095  0.2985  0.0430
  909loPI   C1B13193   5.499  13.505   7.659  0.1109 -0.1183  0.2274
  909loPI   C2B13194   5.313  13.499   8.056 -0.1653 -0.1418  0.3443
  909loPI   C3B13195   5.454  13.465   8.427  0.0907 -0.0304  0.0320
  909loPI   C4B13196   5.655  13.336   8.766  0.2642 -0.0241  0.0351
  910loPI    C113197  14.085   0.358   6.072 -0.0594  0.0253  0.0404
  910loPI    C213198  13.733   0.367   5.882 -0.0191 -0.0062 -0.0364
  910loPI    C313199  14.074   0.379   5.673  0.0258 -0.0168  0.0354
  910loPI   PO413200  14.101   0.443   6.259 -0.0059 -0.5208 -0.2084
  910loPI   GL113201  13.914   0.536   6.575 -0.1809 -0.0687  0.1145
  910loPI   GL213202  13.599   0.638   6.648 -0.0780 -0.0573 -0.1974
  910loPI   C1A13203  14.163   0.620   6.896 -0.0474 -0.3280 -0.0783
  910loPI   C2A13204  14.174   0.490   7.402  0.2314  0.2985 -0.3141
  910loPI   C3A13205  14.061   0.480   7.886 -0.1501 -0.1478 -0.1777
  910loPI   C4A13206  14.108   0.450   8.274  0.0695 -0.1883  0.1688
  910loPI   C5A13207  14.172   0.545   8.747  0.0393  0.1021  0.3373
  910loPI   C6A13208  14.465   0.731   8.945 -0.0943 -0.0319  0.4402
  910loPI   C1B13209  13.617   0.402   6.985 -0.2322  0.3051  0.0283
  910loPI   C2B13210  13.580   0.180   7.336 -0.0891  0.1928  0.1398
  910loPI   C3B13211  13.580   0.268   7.755 -0.2012 -0.4706  0.0833
  910loPI   C4B13212  13.641   0.346   8.175  0.0325  0.0537 -0.0437
  911loPI    C113213   4.172   7.837   6.362  0.1153  0.3415  0.1106
  911loPI    C213214   4.154   7.474   6.196  0.0237  0.3104  0.1876
  911loPI    C313215   4.136   7.800   5.965  0.1094  0.2665  0.1181
  911loPI   PO413216   4.023   7.827   6.595  0.2206 -0.2253  0.0032
  911loPI   GL113217   3.904   8.111   6.903  0.0974  0.1739 -0.0594
  911loPI   GL213218   4.172   8.104   7.031 -0.0509 -0.2261 -0.1717
  911loPI   C1A13219   3.699   7.989   7.308 -0.0634  0.1072  0.0484
  911loPI   C2A13220   3.507   8.033   7.733 -0.1526  0.1323  0.0930
  911loPI   C3A13221   3.329   8.251   8.133 -0.0460 -0.3906 -0.0117
  911loPI   C4A13222   3.060   8.258   8.463  0.2312 -0.1554 -0.0248
  911loPI   C5A13223   2.699   8.384   8.610 -0.0688 -0.0097 -0.1352
  911loPI   C6A13224   2.446   8.279   8.891  0.4037 -0.0673  0.1484
  911loPI   C1B13225   4.185   8.092   7.498  0.1063  0.0044 -0.1939
  911loPI   C2B13226   4.208   8.046   7.925  0.0850 -0.1234  0.1863
  911loPI   C3B13227   3.819   7.913   8.128 -0.2355  0.1246  0.0362
  911loPI   C4B13228   3.612   8.045   8.503 -0.0015 -0.0500 -0.0962
  912loPI    C113229   1.979  12.847   6.218 -0.1285  0.0154  0.2082
  912loPI    C213230   1.997  12.831   5.818 -0.2230 -0.1688  0.2101
  912loPI    C313231   2.051  13.179   6.007 -0.0855 -0.0973  0.0422
  912loPI   PO413232   1.737  12.703   6.271 -0.1246 -0.0808 -0.2240
  912loPI   GL113233   1.525  12.426   6.661 -0.1640 -0.0081 -0.4223
  912loPI   GL213234   1.908  12.469   6.823 -0.0131 -0.2047 -0.0115
  912loPI   C1A13235   1.373  12.103   6.856  0.1984  0.0423  0.0075
  912loPI   C2A13236   1.163  12.082   7.217  0.3411  0.0629 -0.0902
  912loPI   C3A13237   1.188  12.053   7.608  0.0792 -0.2033 -0.0361
  912loPI   C4A13238   1.282  12.092   8.049 -0.2180  0.1223  0.0719
  912loPI   C5A13239   1.273  12.311   8.363  0.1101  0.0211  0.1975
  912loPI   C6A13240   1.385  12.476   8.855  0.1119  0.0645 -0.0303
  912loPI   C1B13241   1.686  12.455   7.258 -0.1744  0.1680 -0.2731
  912loPI   C2B13242   1.646  12.406   7.677 -0.0416  0.2557 -0.1808
  912loPI   C3B13243   1.672  12.353   8.117 -0.2912 -0.0030 -0.0825
  912loPI   C4B13244   1.797  12.156   8.485 -0.0403  0.1997  0.3710
  913loPI    C113245   6.186   8.088   6.047 -0.1220  0.3223  0.0543
  913loPI    C213246   6.172   7.850   5.727 -0.1508  0.3457  0.0382
  913loPI    C313247   5.838   7.929   5.932 -0.0914  0.1296  0.2223
  913loPI   PO413248   6.291   7.947   6.321  0.3505 -0.1076 -0.0477
  913loPI   GL113249   6.338   7.527   6.578 -0.1081 -0.4314  0.0423
  913loPI   GL213250   6.434   7.704   6.800  0.3400  0.0655  0.1378
  913loPI   C1A13251   6.231   7.175   6.872  0.1101  0.1120 -0.0293
  913loPI   C2A13252   6.224   7.147   7.333 -0.0201  0.1972 -0.2200
  913loPI   C3A13253   6.141   7.203   7.796 -0.1854 -0.0887  0.0363
  913loPI   C4A13254   6.287   7.285   8.307 -0.0220 -0.1127  0.1190
  913loPI   C5A13255   6.698   7.392   8.616 -0.0192  0.1803 -0.1285
  913loPI   C6A13256   6.876   7.197   9.009 -0.0276  0.1729 -0.2001
  913loPI   C1B13257   6.424   7.861   7.216  0.0686 -0.1168 -0.1852
  913loPI   C2B13258   6.510   7.773   7.672  0.4378 -0.0099 -0.1629
  913loPI   C3B13259   6.530   7.718   8.126 -0.0131  0.0787  0.2246
  913loPI   C4B13260   6.448   7.874   8.575  0.3581 -0.1662 -0.1494
  914loPI    C113261  10.394   2.736   6.164  0.0190 -0.1039  0.0113
  914loPI    C213262  10.657   2.657   5.874  0.1502  0.0502  0.0869
  914loPI    C313263  10.420   2.367   6.013  0.1598 -0.0491 -0.1004
  914loPI   PO413264  10.595   2.875   6.414 -0.2069  0.2694 -0.1114
  914loPI   GL113265  10.688   3.065   6.771  0.0494 -0.0417 -0.0254
  914loPI   GL213266  10.420   3.105   6.926  0.1875  0.1006 -0.2012
  914loPI   C1A13267  10.827   3.052   7.136  0.0173 -0.1940 -0.2800
  914loPI   C2A13268  10.957   3.081   7.566  0.2022 -0.2240  0.0879
  914loPI   C3A13269  10.955   3.082   7.918 -0.0918  0.1538 -0.2159
  914loPI   C4A13270  10.895   3.072   8.303 -0.0671 -0.0884  0.1176
  914loPI   C5A13271  10.872   3.049   8.694 -0.3029  0.0185  0.1856
  914loPI   C6A13272  10.648   3.228   8.928 -0.1338 -0.2895  0.0748
  914loPI   C1B13273  10.316   3.159   7.327  0.0489 -0.1617  0.1989
  914loPI   C2B13274  10.564   3.306   7.684  0.0719  0.0869 -0.2097
  914loPI   C3B13275  10.529   3.328   8.067  0.1376  0.1487  0.0432
  914loPI   C4B13276  10.436   3.402   8.523  0.0358 -0.0462 -0.1834
  915loPI    C113277  12.581   2.396   6.106  0.0912 -0.1099  0.1916
  915loPI    C213278  12.633   2.657   5.807  0.1219  0.0013  0.2934
  915loPI    C313279  12.272   2.499   5.874  0.1266 -0.0655  0.1637
  915loPI   PO413280  12.753   2.524   6.432  0.0522  0.0542  0.1792
  915loPI   GL113281  12.926   2.406   6.835 -0.3351  0.0803  0.0174
  915loPI   GL213282  12.939   2.166   6.980  0.0717 -0.1835 -0.1229
  915loPI   C1A13283  13.078   2.580   7.216 -0.0114 -0.0045 -0.0301
  915loPI   C2A13284  13.159   2.533   7.702  0.0816 -0.1488  0.0128
  915loPI   C3A13285  13.089   2.567   8.092  0.2619  0.0732 -0.0827
  915loPI   C4A13286  13.088   2.429   8.430 -0.2064 -0.0238  0.1359
  915loPI   C5A13287  13.023   2.318   8.815  0.2555 -0.1218 -0.0525
  915loPI   C6A13288  13.042   2.517   9.170 -0.1630 -0.4344  0.0020
  915loPI   C1B13289  12.999   2.098   7.374  0.1620  0.0460  0.0930
  915loPI   C2B13290  13.052   2.013   7.897 -0.3831 -0.3068 -0.0970
  915loPI   C3B13291  12.994   1.925   8.372 -0.0169 -0.1071  0.1672
  915loPI   C4B13292  13.077   1.734   8.784  0.0240 -0.0335 -0.0470
  916loPI    C113293   8.493   7.282   6.191  0.2848  0.0568  0.1737
  916loPI    C213294   8.842   7.419   6.053  0.0116  0.2989 -0.3024
  916loPI    C313295   8.523   7.407   5.812 -0.2807 -0.0405  0.0879
  916loPI   PO413296   8.486   7.347   6.477  0.2247  0.2403  0.1051
  916loPI   GL113297   8.576   7.034   6.793  0.0772  0.1675 -0.3180
  916loPI   GL213298   8.268   7.212   6.991 -0.1774 -0.1008 -0.0472
  916loPI   C1A13299   8.666   7.024   7.255  0.3207  0.0661  0.1703
  916loPI   C2A13300   8.648   7.054   7.666  0.0781  0.1656 -0.1892
  916loPI   C3A13301   8.688   7.010   8.078  0.0349  0.1813 -0.1823
  916loPI   C4A13302   8.608   7.026   8.540 -0.1838 -0.2172  0.0665
  916loPI   C5A13303   8.213   7.244   8.742 -0.0957  0.0244 -0.2077
  916loPI   C6A13304   7.885   7.020   9.001  0.0554  0.0350  0.1185
  916loPI   C1B13305   8.222   7.237   7.370  0.0031 -0.1806  0.0729
  916loPI   C2B13306   8.253   7.253   7.794  0.1257 -0.0997 -0.0307
  916loPI   C3B13307   8.082   7.163   8.273  0.1636 -0.1170  0.0760
  916loPI   C4B13308   7.816   6.899   8.491  0.0772  0.2003  0.2949
  917loPI    C113309  13.958  16.628   6.019 -0.0376 -0.0471  0.0569
  917loPI    C213310  14.154  16.743   5.690 -0.1545 -0.0469 -0.0133
  917loPI    C313311  13.757  16.789   5.713 -0.1319  0.0636  0.1761
  917loPI   PO413312  14.113  16.801   6.245  0.0942  0.2728  0.1071
  917loPI   GL113313  13.928  16.992   6.626 -0.1714  0.3600 -0.0846
  917loPI   GL213314  13.990  17.309   6.729  0.2437 -0.1456  0.1939
  917loPI   C1A13315  13.997  16.746   6.956 -0.0519  0.0588 -0.0216
  917loPI   C2A13316  14.149  16.810   7.350 -0.2202 -0.1280  0.1965
  917loPI   C3A13317  13.956  16.707   7.734  0.1278  0.3501  0.1714
  917loPI   C4A13318  13.896  16.735   8.158  0.0868  0.0865 -0.0467
  917loPI   C5A13319  13.633  16.563   8.569  0.1749 -0.2107  0.1437
  917loPI   C6A13320  13.458  16.257   8.794  0.0368  0.1167 -0.2032
  917loPI   C1B13321  14.079  17.273   7.123 -0.1174 -0.0147 -0.0808
  917loPI   C2B13322  14.054  17.270   7.590  0.2508  0.1011 -0.2861
  917loPI   C3B13323  13.925  17.174   7.972 -0.2432 -0.0617 -0.0566
  917loPI   C4B13324  14.005  17.234   8.370  0.1370 -0.1794 -0.2940
  918loPI    C113325  12.984  13.127   6.012 -0.0525 -0.1581 -0.1943
  918loPI    C213326  12.770  13.147   5.674  0.0339  0.0449 -0.2382
  918loPI    C313327  13.160  13.236   5.670 -0.0215  0.3096 -0.0363
  918loPI   PO413328  12.913  13.235   6.167 -0.1091  0.2619  0.4309
  918loPI   GL113329  12.603  13.179   6.524  0.0472  0.0581  0.0391
  918loPI   GL213330  12.545  13.421   6.477 -0.1004 -0.0429 -0.0009
  918loPI   C1A13331  12.611  13.259   6.953 -0.0834 -0.1982 -0.1774
  918loPI   C2A13332  12.542  13.221   7.472 -0.2727  0.1903 -0.0965
  918loPI   C3A13333  12.620  13.145   7.904 -0.3115  0.0722 -0.2857
  918loPI   C4A13334  12.618  13.144   8.395 -0.0133  0.0760  0.1789
  918loPI   C5A13335  12.427  13.093   8.805 -0.1785 -0.1586 -0.0699
  918loPI   C6A13336  12.398  13.165   9.188 -0.2036  0.2688  0.0468
  918loPI   C1B13337  12.767  13.739   6.740  0.1532 -0.0536  0.1649
  918loPI   C2B13338  12.724  13.777   7.121 -0.0266  0.2390  0.0565
  918loPI   C3B13339  12.692  13.781   7.546  0.1031 -0.1492 -0.2900
  918loPI   C4B13340  12.783  13.718   7.931 -0.1300  0.1068 -0.0218
  919loPI    C113341   3.903  14.583   6.535 -0.2013  0.0376 -0.0091
  919loPI    C213342   4.067  14.462   6.191 -0.0522 -0.0778  0.1010
  919loPI    C313343   4.081  14.225   6.513 -0.2363  0.0081  0.1733
  919loPI   PO413344   3.949  14.779   6.609  0.1289 -0.0026  0.0424
  919loPI   GL113345   3.988  14.991   6.868 -0.4208  0.3075  0.2887
  919loPI   GL213346   4.146  15.260   6.926 -0.0991  0.0889 -0.1749
  919loPI   C1A13347   3.856  15.147   7.390  0.3281 -0.0246 -0.1639
  919loPI   C2A13348   3.888  15.301   7.916 -0.2130 -0.0374  0.2845
  919loPI   C3A13349   3.985  15.342   8.421 -0.1165  0.0679  0.2464
  919loPI   C4A13350   4.135  15.204   8.851  0.1386  0.2845 -0.1680
  919loPI   C5A13351   4.360  14.947   9.235 -0.0119  0.3494 -0.0069
  919loPI   C6A13352   4.276  14.593   9.462  0.1150  0.2244 -0.1149
  919loPI   C1B13353   4.385  15.252   7.198  0.3078 -0.0776  0.0998
  919loPI   C2B13354   4.338  15.358   7.617 -0.5380 -0.0637  0.0635
  919loPI   C3B13355   4.360  15.273   8.066 -0.0086  0.0354  0.0052
  919loPI   C4B13356   4.396  15.041   8.402 -0.1322 -0.1677 -0.2303
  920loPI    C113357   9.688   8.125   6.165 -0.1128  0.0347  0.2113
  920loPI    C213358   9.375   8.371   6.204 -0.1217  0.0789 -0.1055
  920loPI    C313359   9.536   8.308   5.843  0.1709 -0.0246  0.0393
  920loPI   PO413360   9.952   8.207   6.430 -0.0444 -0.2686  0.3239
  920loPI   GL113361  10.124   8.174   6.803 -0.0139  0.1823 -0.3057
  920loPI   GL213362  10.160   8.531   6.885 -0.1976 -0.1736 -0.1930
  920loPI   C1A13363   9.813   8.074   7.061 -0.2100  0.0132  0.1319
  920loPI   C2A13364   9.725   7.965   7.423 -0.0849 -0.0408 -0.0187
  920loPI   C3A13365   9.615   8.006   7.908 -0.1355  0.2185 -0.0785
  920loPI   C4A13366   9.700   7.983   8.337 -0.2341 -0.0931 -0.1250
  920loPI   C5A13367   9.505   8.294   8.748  0.0486 -0.1761  0.0622
  920loPI   C6A13368   9.502   8.650   9.080  0.0592  0.0859  0.0689
  920loPI   C1B13369  10.166   8.396   7.287 -0.2872  0.1895 -0.3066
  920loPI   C2B13370  10.084   8.268   7.786 -0.2129 -0.0356  0.2543
  920loPI   C3B13371  10.173   8.261   8.112  0.2725  0.0782  0.3076
  920loPI   C4B13372  10.266   8.071   8.615  0.1208  0.1227  0.2238
  921loPI    C113373  14.092   1.337   6.109  0.1728  0.1293  0.2400
  921loPI    C213374  14.228   1.092   5.823 -0.0348 -0.0037  0.2532
  921loPI    C313375  14.080   1.450   5.725  0.1740  0.0764  0.2243
  921loPI   PO413376  14.294   1.322   6.253  0.0517  0.0085  0.0773
  921loPI   GL113377  14.588   1.383   6.539  0.0591 -0.1283  0.2240
  921loPI   GL213378  14.390   1.647   6.645  0.1704  0.0212  0.1545
  921loPI   C1A13379  14.781   1.296   6.884 -0.2813  0.0520 -0.0765
  921loPI   C2A13380  14.696   1.251   7.290  0.4790  0.0436  0.0286
  921loPI   C3A13381  14.705   1.193   7.682  0.1104 -0.2204 -0.1342
  921loPI   C4A13382  14.781   1.189   8.117 -0.1986  0.0358 -0.2049
  921loPI   C5A13383  14.796   1.194   8.542  0.0723 -0.3218 -0.3884
  921loPI   C6A13384  14.977   1.128   8.877  0.0368  0.1808 -0.1118
  921loPI   C1B13385  14.352   1.571   7.106 -0.0004  0.1689  0.0032
  921loPI   C2B13386  14.306   1.645   7.490 -0.0418 -0.0962  0.1530
  921loPI   C3B13387  14.278   1.520   7.939 -0.4671  0.0626 -0.1908
  921loPI   C4B13388  14.439   1.544   8.252  0.1323  0.0097  0.0753
  922loPI    C113389   8.201  12.233   6.329  0.1176 -0.1394  0.0526
  922loPI    C213390   8.264  12.006   6.006  0.0146 -0.1468  0.0373
  922loPI    C313391   8.243  12.404   5.970  0.1576 -0.1370  0.0584
  922loPI   PO413392   8.186  12.158   6.597 -0.2024 -0.0803  0.1815
  922loPI   GL113393   8.118  12.190   7.008 -0.0968 -0.3318 -0.0652
  922loPI   GL213394   7.857  12.008   6.971  0.1154 -0.2544 -0.1542
  922loPI   C1A13395   8.019  12.243   7.410 -0.0515  0.0100 -0.1019
  922loPI   C2A13396   7.949  12.206   7.876 -0.1686 -0.0076  0.0337
  922loPI   C3A13397   7.894  12.165   8.330  0.0005 -0.1571 -0.0058
  922loPI   C4A13398   7.831  12.379   8.720 -0.0738 -0.0296 -0.1711
  922loPI   C5A13399   7.564  12.630   9.020 -0.1008 -0.0620  0.4456
  922loPI   C6A13400   7.374  12.734   9.296 -0.0544  0.2051 -0.3232
  922loPI   C1B13401   7.770  11.799   7.422  0.0204  0.3386  0.0452
  922loPI   C2B13402   7.632  11.748   7.838 -0.0827  0.1747  0.0919
  922loPI   C3B13403   7.650  11.704   8.348  0.1089 -0.2630  0.1009
  922loPI   C4B13404   7.570  11.905   8.704  0.1937 -0.0726  0.0269
  923loPI    C113405   1.091   4.353   5.884 -0.0172 -0.0480  0.3942
  923loPI    C213406   0.811   4.209   6.130 -0.0288 -0.3150  0.2295
  923loPI    C313407   0.832   4.077   5.753  0.1831 -0.1366  0.1769
  923loPI   PO413408   1.091   4.622   5.966 -0.1237 -0.0096  0.1014
  923loPI   GL113409   0.879   4.739   6.366  0.1350  0.2473 -0.2504
  923loPI   GL213410   1.210   4.873   6.346  0.1455 -0.0477 -0.2580
  923loPI   C1A13411   0.692   4.653   6.747  0.1637  0.1685 -0.0718
  923loPI   C2A13412   0.540   4.672   7.223 -0.0472  0.0337  0.3919
  923loPI   C3A13413   0.620   4.619   7.747 -0.3178 -0.1282  0.1151
  923loPI   C4A13414   0.610   4.460   8.178 -0.2118 -0.0235  0.4999
  923loPI   C5A13415   0.698   4.441   8.606 -0.0372  0.1328  0.1662
  923loPI   C6A13416   1.077   4.338   8.792 -0.1225  0.0277 -0.1597
  923loPI   C1B13417   1.221   4.831   6.832 -0.0859  0.3791 -0.0249
  923loPI   C2B13418   1.122   4.841   7.277 -0.0857 -0.1044  0.0328
  923loPI   C3B13419   1.052   4.798   7.680 -0.0647 -0.1020 -0.0810
  923loPI   C4B13420   1.017   4.736   8.138 -0.2929 -0.2177 -0.2631
  924loPI    C113421  14.153   9.544   5.808 -0.0321  0.0265 -0.1119
  924loPI    C213422  14.475   9.604   5.578  0.1155 -0.1952  0.0331
  924loPI    C313423  14.122   9.759   5.472  0.2594  0.0143 -0.1494
  924loPI   PO413424  14.171   9.336   5.853  0.0656 -0.1017 -0.0032
  924loPI   GL113425  14.020   9.002   6.115  0.3241 -0.0835  0.0194
  924loPI   GL213426  14.039   8.726   6.202  0.2486 -0.0451 -0.0550
  924loPI   C1A13427  14.193   9.041   6.547 -0.0183  0.0139  0.2164
  924loPI   C2A13428  14.255   8.966   7.011  0.2425  0.0224  0.4035
  924loPI   C3A13429  14.249   8.895   7.448  0.2331 -0.1678  0.0412
  924loPI   C4A13430  14.323   8.997   7.870 -0.2511 -0.2235  0.0445
  924loPI   C5A13431  14.503   9.082   8.249 -0.1162  0.4843 -0.1654
  924loPI   C6A13432  14.879   8.914   8.622 -0.3213 -0.1909  0.2465
  924loPI   C1B13433  14.160   8.461   6.642 -0.1428  0.1132  0.0806
  924loPI   C2B13434  14.196   8.508   7.087  0.1297 -0.3110  0.1272
  924loPI   C3B13435  14.234   8.389   7.429 -0.0604  0.3750  0.0569
  924loPI   C4B13436  14.207   8.452   7.879 -0.0181  0.1035  0.0434
  925loPI    C113437   7.397  10.742   6.217 -0.0977  0.0112  0.0914
  925loPI    C213438   7.239  10.489   5.950 -0.3240  0.2293  0.0143
  925loPI    C313439   7.415  10.827   5.827  0.1384  0.0299  0.1051
  925loPI   PO413440   7.478  10.620   6.361 -0.0794 -0.0800 -0.4388
  925loPI   GL113441   7.586  10.681   6.749 -0.2539  0.0970 -0.2242
  925loPI   GL213442   7.623  10.865   6.982  0.0461  0.0142  0.0423
  925loPI   C1A13443   7.464  10.437   7.098 -0.0512 -0.2028  0.1294
  925loPI   C2A13444   7.441  10.376   7.440  0.4598 -0.1235 -0.1226
  925loPI   C3A13445   7.530  10.381   7.896 -0.1104  0.1668  0.0525
  925loPI   C4A13446   7.688  10.417   8.307 -0.0028 -0.0427 -0.2139
  925loPI   C5A13447   7.682  10.417   8.793  0.0239 -0.0035  0.2518
  925loPI   C6A13448   7.870  10.467   9.277 -0.1075  0.2834  0.3226
  925loPI   C1B13449   7.731  10.896   7.428 -0.0702 -0.0561 -0.3773
  925loPI   C2B13450   7.695  10.856   7.880  0.1465 -0.0938 -0.1268
  925loPI   C3B13451   7.801  10.914   8.347  0.2334 -0.1208  0.3032
  925loPI   C4B13452   7.947  10.876   8.706  0.0709  0.0657 -0.3034
  926loPI    C113453  12.213   6.656   6.189  0.0735 -0.0341  0.0896
  926loPI    C213454  11.820   6.680   6.120  0.0997 -0.0661 -0.0756
  926loPI    C313455  12.073   6.912   5.915  0.1538  0.0870  0.1607
  926loPI   PO413456  12.169   6.637   6.519 -0.0242 -0.0503  0.0158
  926loPI   GL113457  12.315   6.778   6.932  0.0370  0.0618  0.3008
  926loPI   GL213458  12.594   6.900   6.974 -0.5362 -0.1428 -0.0668
  926loPI   C1A13459  12.149   6.627   7.311 -0.1814 -0.1117 -0.1310
  926loPI   C2A13460  12.139   6.530   7.768  0.1415 -0.2712 -0.0056
  926loPI   C3A13461  12.215   6.491   8.139  0.0092  0.0970 -0.0625
  926loPI   C4A13462  12.293   6.509   8.515 -0.0340  0.1969 -0.2035
  926loPI   C5A13463  12.409   6.841   8.719  0.1123 -0.2118 -0.1491
  926loPI   C6A13464  12.217   6.921   9.130 -0.3640 -0.0400  0.1020
  926loPI   C1B13465  12.691   6.766   7.414 -0.0393 -0.2661  0.1911
  926loPI   C2B13466  12.737   6.784   7.900  0.3389 -0.0463 -0.0136
  926loPI   C3B13467  12.782   6.710   8.356  0.1852  0.0719  0.2269
  926loPI   C4B13468  12.973   6.652   8.725 -0.0721 -0.0889  0.2405
  927loPI    C113469  14.952   3.481   5.883 -0.0175  0.1250 -0.1884
  927loPI    C213470  14.599   3.573   5.720 -0.2512  0.0914  0.2830
  927loPI    C313471  14.782   3.231   5.621 -0.3429  0.1139  0.0279
  927loPI   PO413472  14.969   3.500   6.134  0.1066  0.0127 -0.1665
  927loPI   GL113473  15.175   3.599   6.619  0.1884 -0.0043 -0.0765
  927loPI   GL213474  14.795   3.818   6.559 -0.3831 -0.1138  0.0192
  927loPI   C1A13475  15.504   3.700   6.946  0.0454 -0.4022  0.0295
  927loPI   C2A13476  15.515   3.651   7.360  0.2383  0.0746 -0.2524
  927loPI   C3A13477  15.476   3.656   7.763 -0.1830  0.1086 -0.0028
  927loPI   C4A13478  15.450   3.538   8.213  0.0523 -0.2424  0.0328
  927loPI   C5A13479  15.560   3.869   8.532 -0.2818  0.1452  0.3851
  927loPI   C6A13480  15.476   4.265   8.623 -0.3495 -0.0815 -0.0098
  927loPI   C1B13481  14.988   3.865   7.035  0.2849  0.1038  0.0790
  927loPI   C2B13482  14.993   3.838   7.370 -0.0259  0.0365 -0.2946
  927loPI   C3B13483  15.014   3.867   7.892  0.0056  0.1332  0.1215
  927loPI   C4B13484  15.085   3.842   8.275  0.1302 -0.1582 -0.3934
  928loPI    C113485   8.630   3.366   6.500 -0.1123 -0.0012 -0.2164
  928loPI    C213486   8.931   3.470   6.258  0.0143  0.0569 -0.0363
  928loPI    C313487   8.594   3.319   6.104  0.2023 -0.1763 -0.2275
  928loPI   PO413488   8.621   3.485   6.648  0.1487  0.1485 -0.2492
  928loPI   GL113489   8.398   3.521   7.079 -0.2876 -0.1738 -0.0400
  928loPI   GL213490   8.729   3.588   7.091  0.0572 -0.2024  0.0038
  928loPI   C1A13491   8.374   3.609   7.574 -0.2403  0.1446  0.0456
  928loPI   C2A13492   8.308   3.571   8.006 -0.0693 -0.1943  0.1215
  928loPI   C3A13493   8.316   3.728   8.546 -0.2231 -0.1064  0.0642
  928loPI   C4A13494   8.735   3.798   8.886 -0.1302  0.1558  0.1559
  928loPI   C5A13495   9.034   3.728   9.257 -0.0603 -0.2707 -0.1670
  928loPI   C6A13496   9.450   3.689   9.389 -0.3395  0.0708 -0.0763
  928loPI   C1B13497   8.853   3.627   7.532 -0.2871  0.0548 -0.0440
  928loPI   C2B13498   8.835   3.677   7.968  0.1015  0.1805 -0.4818
  928loPI   C3B13499   8.821   3.729   8.392  0.3144  0.0359 -0.1849
  928loPI   C4B13500   9.178   3.862   8.638 -0.2359 -0.0665  0.3499
  929loPI    C113501  13.789   9.352   5.511  0.1916 -0.0425  0.1094
  929loPI    C213502  13.744   9.522   5.152  0.1111  0.1785  0.2222
  929loPI    C313503  13.637   9.140   5.208  0.1363  0.1391  0.0092
  929loPI   PO413504  13.655   9.533   5.715  0.0480 -0.0502  0.1529
  929loPI   GL113505  13.583   9.674   6.191 -0.1261  0.1345  0.2016
  929loPI   GL213506  13.780   9.468   6.167 -0.0734  0.0853 -0.1661
  929loPI   C1A13507  13.505   9.624   6.675  0.1410 -0.1021 -0.0296
  929loPI   C2A13508  13.472   9.647   7.112  0.0337  0.1535 -0.1314
  929loPI   C3A13509  13.461   9.547   7.552  0.1222  0.2107  0.0163
  929loPI   C4A13510  13.507   9.665   8.087 -0.2849  0.3869  0.0146
  929loPI   C5A13511  13.514   9.771   8.521  0.0243 -0.0717  0.1465
  929loPI   C6A13512  13.383   9.724   8.940  0.3151 -0.0712 -0.2329
  929loPI   C1B13513  13.841   9.343   6.561  0.0290 -0.0289  0.0767
  929loPI   C2B13514  13.838   9.304   6.990 -0.3348  0.2307  0.1390
  929loPI   C3B13515  13.905   9.335   7.455 -0.2105  0.1007  0.3380
  929loPI   C4B13516  13.919   9.286   7.905  0.0130  0.0887 -0.3253
  930loPI    C113517   6.151   3.298   6.323 -0.1907 -0.0427  0.0136
  930loPI    C213518   6.410   3.193   6.037  0.0310  0.2642  0.0959
  930loPI    C313519   6.026   3.260   5.945  0.0398  0.0855 -0.0777
  930loPI   PO413520   6.221   3.630   6.408  0.1911  0.0864 -0.0152
  930loPI   GL113521   6.228   3.755   6.879  0.1149 -0.0370  0.0279
  930loPI   GL213522   6.141   4.052   6.853 -0.1195 -0.1685 -0.0117
  930loPI   C1A13523   6.296   3.620   7.370 -0.0052 -0.1228 -0.1828
  930loPI   C2A13524   6.258   3.567   7.775 -0.0998  0.0560 -0.0197
  930loPI   C3A13525   6.166   3.559   8.219 -0.0674 -0.0838  0.1471
  930loPI   C4A13526   6.403   3.571   8.620 -0.1555  0.0818  0.0299
  930loPI   C5A13527   6.739   3.649   8.941 -0.1118  0.0508  0.2145
  930loPI   C6A13528   7.106   3.639   9.188 -0.1878 -0.1499 -0.0414
  930loPI   C1B13529   6.015   4.051   7.265 -0.2887  0.0909 -0.1420
  930loPI   C2B13530   5.979   4.031   7.746 -0.1645  0.2456 -0.1107
  930loPI   C3B13531   6.044   4.041   8.187  0.1140  0.1687  0.3254
  930loPI   C4B13532   6.040   3.913   8.551  0.0752  0.2550  0.0487
  931loPI    C113533   8.205   3.858   6.444 -0.0703 -0.2207 -0.1324
  931loPI    C213534   8.527   3.831   6.208 -0.0558 -0.0437 -0.1346
  931loPI    C313535   8.200   3.616   6.126  0.0070 -0.1070 -0.2211
  931loPI   PO413536   8.308   3.883   6.684 -0.0807  0.2098 -0.0734
  931loPI   GL113537   8.597   4.095   6.952 -0.2105 -0.1334  0.1236
  931loPI   GL213538   8.764   4.388   7.137 -0.0717 -0.1532 -0.2306
  931loPI   C1A13539   8.570   3.974   7.271 -0.0237 -0.0734  0.0694
  931loPI   C2A13540   8.568   4.090   7.701  0.2149 -0.0682  0.2771
  931loPI   C3A13541   8.551   4.048   8.119 -0.2040 -0.2862  0.2402
  931loPI   C4A13542   8.559   4.198   8.510  0.2405  0.1652  0.2326
  931loPI   C5A13543   8.876   4.249   8.853  0.1374  0.0668  0.1163
  931loPI   C6A13544   9.312   4.172   9.087  0.3695  0.3724 -0.0909
  931loPI   C1B13545   8.868   4.493   7.572 -0.0724  0.0835  0.0460
  931loPI   C2B13546   8.771   4.476   7.976  0.2889 -0.2805  0.1280
  931loPI   C3B13547   8.884   4.615   8.311  0.0572  0.1692 -0.0655
  931loPI   C4B13548   9.023   4.736   8.821  0.0552 -0.2667  0.0048
  932loPI    C113549   2.881   3.989   5.897  0.1427  0.1204  0.0278
  932loPI    C213550   2.642   3.674   5.960 -0.0492  0.2864  0.1452
  932loPI    C313551   3.015   3.619   5.825 -0.0814  0.0105  0.1623
  932loPI   PO413552   2.893   4.102   6.101  0.1882  0.0389  0.1041
  932loPI   GL113553   2.864   4.092   6.563  0.1106  0.0166  0.0221
  932loPI   GL213554   3.183   4.015   6.707  0.0752 -0.0104  0.2352
  932loPI   C1A13555   2.713   3.933   6.930  0.4261  0.1327 -0.0237
  932loPI   C2A13556   2.789   4.056   7.422 -0.0448  0.0995  0.2343
  932loPI   C3A13557   2.789   4.147   7.909 -0.0448  0.0516  0.0797
  932loPI   C4A13558   2.616   4.011   8.332  0.0756  0.2992 -0.0364
  932loPI   C5A13559   2.317   4.155   8.661  0.0171 -0.0215 -0.0232
  932loPI   C6A13560   1.913   3.990   8.822 -0.2133  0.0217 -0.2434
  932loPI   C1B13561   3.216   3.956   7.162  0.0861  0.2055 -0.1016
  932loPI   C2B13562   3.364   3.894   7.540 -0.1335  0.2779 -0.0389
  932loPI   C3B13563   3.315   4.113   7.872  0.0491 -0.3057 -0.0990
  932loPI   C4B13564   3.142   4.184   8.240  0.0779 -0.1820  0.2622
  933loPI    C113565  13.420   7.627   5.911 -0.0048 -0.1803 -0.0122
  933loPI    C213566  13.485   7.538   5.526 -0.0681 -0.0945 -0.0432
  933loPI    C313567  13.164   7.752   5.630  0.0020 -0.0324  0.0467
  933loPI   PO413568  13.446   7.437   6.059  0.1338  0.1135 -0.1562
  933loPI   GL113569  13.741   7.239   6.209  0.0259  0.0176 -0.1143
  933loPI   GL213570  13.889   6.886   6.427  0.1984  0.2381  0.0752
  933loPI   C1A13571  13.600   7.210   6.700 -0.0966 -0.2944  0.0880
  933loPI   C2A13572  13.555   7.133   7.122 -0.2023 -0.1195 -0.0031
  933loPI   C3A13573  13.620   7.274   7.555  0.0928  0.2575  0.1214
  933loPI   C4A13574  13.629   7.281   7.962  0.0655 -0.0367 -0.1050
  933loPI   C5A13575  13.797   7.101   8.382 -0.0308 -0.3841  0.0790
  933loPI   C6A13576  13.771   6.824   8.706  0.1798 -0.1020  0.0202
  933loPI   C1B13577  13.982   6.883   6.887 -0.0614 -0.2101 -0.1412
  933loPI   C2B13578  14.060   6.965   7.362  0.1435 -0.2501 -0.1663
  933loPI   C3B13579  14.017   6.875   7.815  0.1886 -0.2310  0.4213
  933loPI   C4B13580  14.099   6.828   8.129  0.1602 -0.1784  0.4848
  934loPI    C113581   6.790  15.184   6.288  0.0873 -0.2208 -0.1020
  934loPI    C213582   7.156  15.084   6.414  0.0052 -0.2009  0.1578
  934loPI    C313583   7.006  14.917   6.084  0.2143 -0.2732  0.0979
  934loPI   PO413584   6.844  15.491   6.370  0.2241 -0.0177  0.0320
  934loPI   GL113585   7.015  15.614   6.651  0.0975  0.1684  0.1186
  934loPI   GL213586   6.954  15.357   6.871 -0.2681  0.3076  0.0563
  934loPI   C1A13587   7.157  15.824   7.003  0.3507 -0.1402 -0.0424
  934loPI   C2A13588   7.203  15.845   7.482  0.0321  0.2592  0.0113
  934loPI   C3A13589   7.240  15.862   7.966 -0.1434  0.0686  0.0994
  934loPI   C4A13590   7.225  15.784   8.358  0.2121 -0.0034 -0.0133
  934loPI   C5A13591   7.151  15.822   8.875 -0.3546 -0.1960 -0.0957
  934loPI   C6A13592   6.747  15.962   9.069  0.1654 -0.0433  0.1360
  934loPI   C1B13593   7.032  15.361   7.330  0.0514 -0.0912 -0.0941
  934loPI   C2B13594   7.003  15.418   7.713  0.1281  0.3592 -0.0763
  934loPI   C3B13595   6.965  15.339   8.200 -0.0495  0.0993 -0.2451
  934loPI   C4B13596   7.022  15.421   8.628  0.0504 -0.3676  0.0365
  935loPI    C113597   5.108   7.880   6.145  0.2906  0.1331  0.0646
  935loPI    C213598   5.383   7.637   5.988  0.0465 -0.1047 -0.0017
  935loPI    C313599   5.062   7.740   5.773 -0.0923 -0.1146  0.1989
  935loPI   PO413600   5.088   7.759   6.441 -0.3798 -0.2973 -0.4043
  935loPI   GL113601   4.829   7.810   6.816  0.0707 -0.0251 -0.1647
  935loPI   GL213602   4.554   7.892   6.837 -0.0870 -0.0927  0.1092
  935loPI   C1A13603   4.928   7.712   7.191  0.1658  0.0769  0.0588
  935loPI   C2A13604   4.964   7.572   7.660 -0.0727  0.1331  0.1445
  935loPI   C3A13605   4.914   7.675   8.068  0.2156  0.2160  0.2126
  935loPI   C4A13606   4.695   7.858   8.480 -0.1013 -0.0854 -0.0007
  935loPI   C5A13607   4.981   8.028   8.811  0.1881  0.3947  0.0736
  935loPI   C6A13608   5.405   8.287   8.791 -0.0049 -0.1870 -0.1847
  935loPI   C1B13609   4.418   7.661   7.218  0.0680  0.2857  0.1074
  935loPI   C2B13610   4.444   7.563   7.703  0.2292 -0.0860 -0.2121
  935loPI   C3B13611   4.326   7.611   8.163  0.0930 -0.0729  0.0059
  935loPI   C4B13612   4.123   7.720   8.571  0.0552  0.1972  0.3519
  936loPI    C113613   7.129   1.029   6.356 -0.1391  0.2207 -0.2159
  936loPI    C213614   7.332   1.152   6.678 -0.1795  0.0706 -0.1325
  936loPI    C313615   7.505   1.160   6.317  0.0116 -0.1500 -0.0482
  936loPI   PO413616   6.849   1.048   6.489 -0.0901  0.4379 -0.3436
  936loPI   GL113617   6.824   1.123   6.873 -0.1286 -0.0264  0.2006
  936loPI   GL213618   6.485   1.067   6.894 -0.2517 -0.0054  0.0329
  936loPI   C1A13619   6.853   1.265   7.238 -0.1052  0.2618 -0.0305
  936loPI   C2A13620   6.736   1.270   7.608  0.1926 -0.0180 -0.0774
  936loPI   C3A13621   6.555   1.292   8.042  0.0940  0.0952  0.4546
  936loPI   C4A13622   6.622   1.375   8.363 -0.5194 -0.0339 -0.1337
  936loPI   C5A13623   6.577   1.255   8.849 -0.0807  0.0234 -0.1692
  936loPI   C6A13624   6.699   1.479   9.229  0.0790 -0.1956  0.0081
  936loPI   C1B13625   6.335   1.132   7.271  0.0941  0.0369 -0.1437
  936loPI   C2B13626   6.104   1.131   7.708 -0.0916  0.0223  0.0328
  936loPI   C3B13627   6.073   1.283   8.092  0.1461 -0.0635 -0.2160
  936loPI   C4B13628   6.166   1.234   8.503  0.2055 -0.1977 -0.3353
  937loPI    C113629   0.753  17.097   6.209  0.0378 -0.0453  0.1062
  937loPI    C213630   0.633  17.471   6.132  0.0766 -0.0199  0.1677
  937loPI    C313631   0.811  17.255   5.846  0.1669  0.0526  0.1685
  937loPI   PO413632   0.766  17.067   6.374  0.2616  0.1980 -0.2409
  937loPI   GL113633   1.130  17.152   6.654  0.0509  0.0773  0.3029
  937loPI   GL213634   1.489  17.073   6.671 -0.0778  0.0841 -0.2197
  937loPI   C1A13635   1.057  17.086   7.124  0.1107  0.1727 -0.0201
  937loPI   C2A13636   0.944  16.875   7.479  0.0628 -0.2316 -0.1948
  937loPI   C3A13637   0.832  16.906   7.915  0.2122  0.1323  0.1343
  937loPI   C4A13638   0.962  16.884   8.314 -0.1421  0.2112  0.0509
  937loPI   C5A13639   1.054  16.840   8.682 -0.2849 -0.1164 -0.0990
  937loPI   C6A13640   1.019  16.541   9.052  0.0497 -0.0852  0.0585
  937loPI   C1B13641   1.547  17.217   6.978 -0.3348 -0.0527  0.1458
  937loPI   C2B13642   1.537  17.288   7.370 -0.0551 -0.2169 -0.1581
  937loPI   C3B13643   1.522  17.084   7.854 -0.3050  0.1048  0.0802
  937loPI   C4B13644   1.505  17.092   8.281 -0.1634  0.1208  0.0267
  938loPI    C113645  11.513  10.617   6.027 -0.1107 -0.1020  0.0562
  938loPI    C213646  11.254  10.560   5.728  0.0603 -0.1375 -0.0864
  938loPI    C313647  11.631  10.667   5.649  0.1133 -0.1707  0.1154
  938loPI   PO413648  11.446  10.813   6.193 -0.2078  0.0546 -0.2197
  938loPI   GL113649  11.573  11.012   6.506 -0.1672  0.0760 -0.0696
  938loPI   GL213650  11.746  10.906   6.647  0.1302  0.1173  0.1664
  938loPI   C1A13651  11.311  11.207   6.837  0.1722  0.1191  0.2402
  938loPI   C2A13652  11.439  11.269   7.273  0.0276  0.2023  0.0187
  938loPI   C3A13653  11.424  11.186   7.727  0.2750  0.4577 -0.2908
  938loPI   C4A13654  11.465  11.148   8.172 -0.0536  0.0555 -0.0160
  938loPI   C5A13655  11.492  10.986   8.578 -0.0152 -0.1061 -0.4034
  938loPI   C6A13656  11.507  10.872   9.104 -0.0642 -0.0831  0.0346
  938loPI   C1B13657  11.772  10.875   7.044 -0.3129 -0.0674  0.0282
  938loPI   C2B13658  11.796  10.873   7.461 -0.2441 -0.3209 -0.2239
  938loPI   C3B13659  11.779  10.839   7.884 -0.3181  0.1587 -0.0936
  938loPI   C4B13660  11.983  10.925   8.356 -0.1534 -0.0900 -0.2537
  939loPI    C113661   1.818  15.423   5.902 -0.0297  0.2374  0.0349
  939loPI    C213662   1.637  15.651   5.627  0.2376  0.2216 -0.1577
  939loPI    C313663   1.919  15.389   5.516  0.0965 -0.0411  0.0898
  939loPI   PO413664   1.610  15.347   6.027  0.2730  0.0774  0.0320
  939loPI   GL113665   1.569  15.169   6.444  0.1336  0.1225 -0.0502
  939loPI   GL213666   1.370  15.018   6.574  0.0310  0.2039 -0.0074
  939loPI   C1A13667   1.715  15.340   6.903  0.1089 -0.3735 -0.0469
  939loPI   C2A13668   1.665  15.346   7.342 -0.1379  0.3293  0.0912
  939loPI   C3A13669   1.610  15.341   7.685  0.0238 -0.1043 -0.2649
  939loPI   C4A13670   1.718  15.222   8.152  0.1720 -0.1401 -0.2580
  939loPI   C5A13671   1.931  14.973   8.480  0.1823  0.4065 -0.2975
  939loPI   C6A13672   1.880  14.625   8.738  0.2232  0.3357  0.1798
  939loPI   C1B13673   1.210  15.138   7.046  0.1336 -0.1202 -0.0054
  939loPI   C2B13674   1.201  15.157   7.406  0.3828  0.2448  0.2179
  939loPI   C3B13675   1.185  15.100   7.855  0.1470  0.1377 -0.0054
  939loPI   C4B13676   1.167  15.209   8.396 -0.3084  0.3498 -0.0884
  940loPI    C113677  10.749   5.197   6.324 -0.1833  0.0380 -0.0048
  940loPI    C213678  10.464   5.027   6.100 -0.0665 -0.0169 -0.1122
  940loPI    C313679  10.634   5.370   5.982  0.0516 -0.0877 -0.1496
  940loPI   PO413680  11.028   4.922   6.359 -0.1083  0.0360  0.1828
  940loPI   GL113681  11.291   4.829   6.714  0.0485 -0.2272  0.0797
  940loPI   GL213682  11.531   4.778   6.999  0.1828  0.0648  0.2251
  940loPI   C1A13683  11.081   4.548   7.016  0.0661 -0.1152 -0.2413
  940loPI   C2A13684  10.959   4.600   7.300  0.2115  0.1734 -0.0904
  940loPI   C3A13685  10.966   4.596   7.793 -0.0761  0.1814 -0.0948
  940loPI   C4A13686  11.060   4.641   8.258 -0.0328  0.3100 -0.0902
  940loPI   C5A13687  11.173   4.671   8.685  0.2639  0.2393 -0.0179
  940loPI   C6A13688  11.471   4.590   9.090 -0.0003  0.0251 -0.0511
  940loPI   C1B13689  11.502   4.770   7.413 -0.1867  0.3238  0.0371
  940loPI   C2B13690  11.485   4.841   7.766 -0.0706  0.3158 -0.0873
  940loPI   C3B13691  11.531   4.815   8.184 -0.5353  0.4513 -0.2230
  940loPI   C4B13692  11.667   4.918   8.648 -0.0488  0.3009 -0.1505
  941loPI    C113693   5.756   2.035   6.163  0.0751  0.0416 -0.0800
  941loPI    C213694   5.814   1.862   5.807  0.1863  0.3417 -0.2113
  941loPI    C313695   5.726   2.251   5.828  0.2235  0.3362  0.0931
  941loPI   PO413696   5.732   1.877   6.311  0.1043 -0.1304 -0.2327
  941loPI   GL113697   5.692   1.861   6.752  0.2091  0.4212 -0.0052
  941loPI   GL213698   5.888   2.090   6.715  0.1255  0.2512 -0.1443
  941loPI   C1A13699   5.639   2.052   7.151  0.1850 -0.2767  0.1849
  941loPI   C2A13700   5.585   2.246   7.545 -0.0058 -0.0303 -0.2284
  941loPI   C3A13701   5.552   2.245   8.033  0.1404  0.3445  0.2472
  941loPI   C4A13702   5.723   2.297   8.382 -0.2067  0.1655  0.0157
  941loPI   C5A13703   5.757   2.539   8.690 -0.1503 -0.1421  0.0434
  941loPI   C6A13704   5.440   2.945   8.722 -0.2563  0.2122  0.2805
  941loPI   C1B13705   5.888   2.395   6.969  0.3378  0.2633  0.2948
  941loPI   C2B13706   5.802   2.728   7.283  0.0014 -0.0408 -0.2699
  941loPI   C3B13707   5.758   2.678   7.734  0.0086  0.1057 -0.1457
  941loPI   C4B13708   5.649   2.780   8.145 -0.2194  0.2848 -0.1341
  942loPI    C113709  12.507  14.634   5.792 -0.1751 -0.0248 -0.0952
  942loPI    C213710  12.724  14.467   5.499 -0.1449 -0.1390 -0.0086
  942loPI    C313711  12.493  14.784   5.422  0.1573  0.0697 -0.0732
  942loPI   PO413712  12.491  14.409   5.973 -0.0893  0.2063 -0.1379
  942loPI   GL113713  12.528  14.366   6.453  0.0386 -0.1355  0.1583
  942loPI   GL213714  12.168  14.422   6.440  0.2314 -0.3035 -0.2038
  942loPI   C1A13715  12.631  14.232   6.947  0.0169 -0.2014  0.1490
  942loPI   C2A13716  12.697  14.287   7.329  0.1375  0.3234 -0.0888
  942loPI   C3A13717  12.781  14.201   7.719 -0.3996 -0.1224  0.5403
  942loPI   C4A13718  12.811  14.214   8.198 -0.0408 -0.0164 -0.3217
  942loPI   C5A13719  13.053  13.981   8.563 -0.0586 -0.0373  0.1616
  942loPI   C6A13720  13.142  13.706   9.005 -0.1361 -0.1051 -0.1128
  942loPI   C1B13721  12.323  14.683   6.855  0.1183 -0.3552 -0.2599
  942loPI   C2B13722  12.316  14.579   7.306 -0.0206 -0.2121  0.2073
  942loPI   C3B13723  12.360  14.495   7.706  0.0936 -0.1242  0.2881
  942loPI   C4B13724  12.338  14.577   8.138  0.2152  0.2053 -0.0523
  943loPI    C113725   3.059   9.714   6.125  0.0267 -0.0999  0.0162
  943loPI    C213726   3.202   9.966   5.849 -0.3442 -0.0809 -0.1659
  943loPI    C313727   3.388   9.618   5.919  0.0284  0.1279 -0.0898
  943loPI   PO413728   2.945   9.812   6.227  0.0105 -0.0903  0.1049
  943loPI   GL113729   2.972   9.930   6.601 -0.0889 -0.0880  0.4100
  943loPI   GL213730   2.682  10.047   6.575  0.2174  0.2225  0.1769
  943loPI   C1A13731   2.932   9.993   7.083 -0.1068 -0.1575 -0.0219
  943loPI   C2A13732   2.852   9.991   7.520 -0.1618  0.1546 -0.0041
  943loPI   C3A13733   2.804   9.917   7.858 -0.2350 -0.0993 -0.1912
  943loPI   C4A13734   2.752   9.947   8.301 -0.2026  0.2280 -0.0523
  943loPI   C5A13735   2.331   9.797   8.492 -0.0395 -0.4185  0.2766
  943loPI   C6A13736   1.877   9.609   8.510 -0.1829 -0.1707 -0.1268
  943loPI   C1B13737   2.464   9.920   6.894 -0.0322 -0.2054  0.1981
  943loPI   C2B13738   2.356   9.837   7.297  0.0961 -0.2802  0.0268
  943loPI   C3B13739   2.353   9.665   7.655  0.2034 -0.2508 -0.1109
  943loPI   C4B13740   2.234   9.672   8.053  0.3204 -0.2078 -0.0999
  944loPI    C113741  12.034   2.165   6.225 -0.3422 -0.1810  0.0277
  944loPI    C213742  12.275   1.898   6.052 -0.1532  0.1946 -0.3039
  944loPI    C313743  11.904   1.952   5.913 -0.2458 -0.0005 -0.1377
  944loPI   PO413744  12.217   2.408   6.460  0.0264 -0.0730 -0.1337
  944loPI   GL113745  12.381   2.299   6.825  0.2498 -0.3222 -0.0713
  944loPI   GL213746  12.039   2.202   6.916 -0.0283  0.0519  0.0193
  944loPI   C1A13747  12.556   2.316   7.247 -0.2530  0.2687 -0.1675
  944loPI   C2A13748  12.650   2.319   7.752 -0.4658 -0.1188  0.3370
  944loPI   C3A13749  12.592   2.285   8.088 -0.3426 -0.0271  0.1825
  944loPI   C4A13750  12.617   2.380   8.488  0.1311 -0.1303  0.2703
  944loPI   C5A13751  12.812   2.797   8.610 -0.2819  0.1591 -0.0821
  944loPI   C6A13752  13.110   2.878   8.813 -0.2186  0.0200 -0.1055
  944loPI   C1B13753  12.063   2.083   7.362 -0.0593 -0.2845 -0.0675
  944loPI   C2B13754  12.142   2.075   7.802  0.2964 -0.1339 -0.3906
  944loPI   C3B13755  12.181   2.054   8.220  0.2289  0.0523  0.1014
  944loPI   C4B13756  12.077   1.903   8.581 -0.1500  0.1476  0.1346
  945loPI    C113757  13.815  11.163   5.807  0.0049 -0.1534 -0.2981
  945loPI    C213758  13.530  11.199   5.528 -0.0019  0.0509 -0.2668
  945loPI    C313759  13.872  11.402   5.491  0.0027  0.0686 -0.1331
  945loPI   PO413760  13.848  10.912   5.945  0.2076 -0.0572 -0.1221
  945loPI   GL113761  13.721  10.750   6.347  0.2454 -0.1783 -0.0942
  945loPI   GL213762  14.028  10.852   6.500 -0.0484  0.1070 -0.0255
  945loPI   C1A13763  13.658  10.721   6.761  0.1104  0.2802 -0.1136
  945loPI   C2A13764  13.637  10.684   7.256 -0.0028  0.6441 -0.1545
  945loPI   C3A13765  13.650  10.661   7.693  0.0213  0.0469  0.0674
  945loPI   C4A13766  13.532  10.656   8.040  0.1176  0.0487  0.1716
  945loPI   C5A13767  13.155  10.563   8.314  0.0566  0.0612 -0.1916
  945loPI   C6A13768  12.769  10.357   8.469 -0.1853  0.0416 -0.0651
  945loPI   C1B13769  14.054  10.862   6.979  0.1592 -0.0203  0.4198
  945loPI   C2B13770  14.080  10.870   7.476 -0.2753  0.1426  0.0029
  945loPI   C3B13771  14.064  10.902   7.919 -0.0911 -0.1037  0.1092
  945loPI   C4B13772  14.193  11.000   8.387 -0.0252  0.2111 -0.1794
  946loPI    C113773   4.390  10.619   6.301 -0.2266 -0.0438  0.0093
  946loPI    C213774   4.203  10.284   6.188 -0.1662 -0.0302 -0.1323
  946loPI    C313775   4.242  10.588   5.931 -0.0494  0.0105 -0.0672
  946loPI   PO413776   4.349  10.586   6.587  0.0763  0.1170  0.1480
  946loPI   GL113777   4.376  10.265   6.864  0.1294 -0.2345 -0.1690
  946loPI   GL213778   4.222  10.025   6.913  0.2756 -0.2649  0.1953
  946loPI   C1A13779   4.353  10.457   7.244 -0.1922  0.0862 -0.1274
  946loPI   C2A13780   4.326  10.388   7.702  0.0424  0.1246 -0.0779
  946loPI   C3A13781   4.590  10.253   8.059  0.2409 -0.2078  0.2429
  946loPI   C4A13782   4.807  10.278   8.473 -0.0952  0.0900 -0.0039
  946loPI   C5A13783   4.675  10.439   8.830 -0.1243 -0.0845  0.0725
  946loPI   C6A13784   4.300  10.560   8.857  0.1141  0.1791  0.1291
  946loPI   C1B13785   4.231   9.990   7.391  0.3394 -0.3713 -0.0579
  946loPI   C2B13786   4.240   9.902   7.779 -0.5083  0.0452 -0.2298
  946loPI   C3B13787   4.146  10.082   8.238  0.3372 -0.1014 -0.0406
  946loPI   C4B13788   4.351  10.154   8.614  0.0964  0.1263 -0.0591
  947loPI    C113789  15.125  16.280   6.022  0.0583 -0.0691 -0.1245
  947loPI    C213790  14.961  16.335   5.662 -0.0002 -0.0101 -0.0890
  947loPI    C313791  15.346  16.427   5.723 -0.0158  0.0713 -0.1111
  947loPI   PO413792  14.908  16.393   6.264  0.0052  0.1166 -0.1522
  947loPI   GL113793  14.808  16.181   6.623 -0.1902  0.2586 -0.0133
  947loPI   GL213794  14.594  16.395   6.744  0.1554  0.0551  0.0640
  947loPI   C1A13795  14.918  16.167   7.057 -0.2250 -0.0923  0.1828
  947loPI   C2A13796  14.801  16.098   7.515 -0.0541 -0.0135  0.2271
  947loPI   C3A13797  14.758  16.052   7.838 -0.2580  0.3330 -0.3373
  947loPI   C4A13798  14.587  16.051   8.185 -0.0851  0.0786  0.0718
  947loPI   C5A13799  14.825  15.798   8.579 -0.2729  0.1057 -0.2860
  947loPI   C6A13800  14.917  15.480   8.833  0.1204 -0.2610 -0.2384
  947loPI   C1B13801  14.414  16.488   7.108 -0.1291 -0.0333 -0.3352
  947loPI   C2B13802  14.423  16.409   7.521 -0.1168 -0.2564 -0.0483
  947loPI   C3B13803  14.297  16.389   7.908  0.1132 -0.2133 -0.0365
  947loPI   C4B13804  14.255  16.426   8.411 -0.0398  0.1643  0.1605
  948loPI    C113805   6.350   5.142   5.667 -0.2355  0.0445 -0.0260
  948loPI    C213806   6.013   5.240   5.474 -0.2254  0.0964 -0.0173
  948loPI    C313807   6.329   5.484   5.462 -0.1070 -0.0638 -0.2224
  948loPI   PO413808   6.199   5.052   6.024 -0.0673 -0.3360 -0.0578
  948loPI   GL113809   6.214   5.002   6.530 -0.2699 -0.1117  0.1635
  948loPI   GL213810   6.436   5.074   6.667  0.1104 -0.1675  0.3005
  948loPI   C1A13811   6.112   4.645   6.790  0.2419  0.1339  0.1177
  948loPI   C2A13812   6.161   4.527   7.168  0.1346 -0.0591 -0.0892
  948loPI   C3A13813   6.184   4.507   7.576  0.1215  0.3387  0.0723
  948loPI   C4A13814   6.278   4.490   8.072 -0.1871  0.0718  0.0675
  948loPI   C5A13815   6.223   4.448   8.478 -0.1315 -0.1042 -0.1930
  948loPI   C6A13816   6.262   4.693   8.829  0.2594 -0.2011 -0.1793
  948loPI   C1B13817   6.399   4.974   7.069  0.1825 -0.0909 -0.0493
  948loPI   C2B13818   6.438   4.959   7.510  0.1386  0.1670 -0.1152
  948loPI   C3B13819   6.417   5.008   7.877 -0.3047  0.0367 -0.2367
  948loPI   C4B13820   6.389   4.918   8.366 -0.0046 -0.2802 -0.4694
  949loPI    C113821   3.161  14.589   6.175  0.1411  0.0187  0.0587
  949loPI    C213822   2.965  14.835   5.928 -0.1559 -0.2407  0.0283
  949loPI    C313823   3.276  14.623   5.793  0.0760  0.0811  0.0443
  949loPI   PO413824   2.919  14.522   6.344  0.1311 -0.2215 -0.3121
  949loPI   GL113825   2.732  14.717   6.726 -0.0269 -0.1211 -0.1182
  949loPI   GL213826   2.986  14.787   6.728 -0.2026 -0.0299 -0.0108
  949loPI   C1A13827   2.445  14.813   7.006 -0.2139 -0.3295  0.1147
  949loPI   C2A13828   2.493  14.734   7.371 -0.3257 -0.0489  0.2802
  949loPI   C3A13829   2.546  14.675   7.864 -0.2190 -0.1230  0.0193
  949loPI   C4A13830   2.620  14.725   8.269 -0.1849  0.3162  0.2100
  949loPI   C5A13831   2.838  14.785   8.572  0.2069  0.1357 -0.1139
  949loPI   C6A13832   2.883  14.918   8.969  0.0503 -0.2997 -0.1012
  949loPI   C1B13833   3.081  14.795   7.134  0.0085  0.1689  0.1351
  949loPI   C2B13834   3.102  14.752   7.428  0.1920  0.3994 -0.1704
  949loPI   C3B13835   3.057  14.867   7.880  0.0741 -0.1307  0.0536
  949loPI   C4B13836   2.910  15.172   8.163 -0.0606  0.0009 -0.3886
  950loPI    C113837  11.240  14.022   6.310  0.0233  0.0453  0.0694
  950loPI    C213838  10.951  14.299   6.298  0.0008  0.0181 -0.0248
  950loPI    C313839  10.962  14.008   6.023  0.1067  0.0076 -0.0102
  950loPI   PO413840  11.237  14.021   6.620 -0.1596  0.0364  0.3954
  950loPI   GL113841  11.203  14.314   6.830 -0.1101  0.3895 -0.0352
  950loPI   GL213842  10.957  14.425   6.794  0.4470 -0.2061 -0.2474
  950loPI   C1A13843  11.301  14.203   7.273  0.0891 -0.2891 -0.0074
  950loPI   C2A13844  11.344  14.075   7.715  0.3151  0.0481 -0.1741
  950loPI   C3A13845  11.361  14.134   8.079 -0.0461 -0.1017  0.0341
  950loPI   C4A13846  11.413  14.174   8.448  0.1429  0.0822  0.1610
  950loPI   C5A13847  11.397  14.265   8.931  0.0222 -0.0606  0.0872
  950loPI   C6A13848  11.735  14.076   9.099 -0.1703 -0.0643 -0.0094
  950loPI   C1B13849  10.908  14.548   7.273 -0.1912  0.1838 -0.1735
  950loPI   C2B13850  10.918  14.440   7.722 -0.1036 -0.3477  0.1135
  950loPI   C3B13851  10.918  14.449   8.160  0.1838  0.1487  0.0962
  950loPI   C4B13852  10.973  14.368   8.583  0.2407  0.1783  0.0070
  951loPI    C113853   9.507   9.365   6.066  0.1106  0.0861 -0.1900
  951loPI    C213854   9.165   9.569   6.028 -0.0335 -0.0930  0.1100
  951loPI    C313855   9.209   9.217   5.844  0.0289 -0.0241 -0.0084
  951loPI   PO413856   9.551   9.383   6.362  0.0239  0.1920 -0.1086
  951loPI   GL113857   9.840   9.429   6.758  0.0886  0.2296  0.3134
  951loPI   GL213858  10.251   9.447   6.643 -0.3977  0.0592 -0.0897
  951loPI   C1A13859  10.107   9.389   7.172 -0.0218 -0.1111  0.1164
  951loPI   C2A13860  10.163   9.370   7.623  0.0827  0.0980 -0.0883
  951loPI   C3A13861  10.163   9.239   8.006 -0.3193 -0.1501 -0.1619
  951loPI   C4A13862  10.371   9.251   8.357 -0.1473 -0.0570 -0.0953
  951loPI   C5A13863  10.676   8.972   8.631  0.2285 -0.3088 -0.3825
  951loPI   C6A13864  10.917   8.871   9.011  0.1598 -0.0848  0.2426
  951loPI   C1B13865  10.579   9.542   6.901 -0.0128  0.1081 -0.2261
  951loPI   C2B13866  10.655   9.553   7.242 -0.1056 -0.2120 -0.0368
  951loPI   C3B13867  10.671   9.527   7.726 -0.0250 -0.0709 -0.2616
  951loPI   C4B13868  10.759   9.453   8.086  0.1348  0.2286  0.1780
  952loPI    C113869  10.172   5.236   6.594  0.2013 -0.0281  0.0248
  952loPI    C213870  10.273   5.488   6.301 -0.0490  0.0803  0.0299
  952loPI    C313871   9.977   5.225   6.246  0.0866 -0.0871  0.0905
  952loPI   PO413872  10.406   5.227   6.721  0.0572  0.1477 -0.1292
  952loPI   GL113873  10.589   5.326   7.056 -0.0604  0.1696  0.5082
  952loPI   GL213874  10.464   5.632   7.211  0.3074  0.1278  0.5045
  952loPI   C1A13875  10.727   5.325   7.417  0.4059  0.1627 -0.2503
  952loPI   C2A13876  10.780   5.449   7.886 -0.1452 -0.1041 -0.0170
  952loPI   C3A13877  10.685   5.417   8.218 -0.3420 -0.4956 -0.1975
  952loPI   C4A13878  10.805   5.370   8.582 -0.3418 -0.0875  0.2560
  952loPI   C5A13879  10.804   5.087   8.885 -0.0410 -0.0119  0.3075
  952loPI   C6A13880  11.123   5.010   9.187  0.1529 -0.3924  0.0030
  952loPI   C1B13881  10.335   5.767   7.653  0.0836  0.1986 -0.1828
  952loPI   C2B13882  10.362   5.828   8.098  0.3306  0.1653 -0.0247
  952loPI   C3B13883  10.418   5.710   8.571  0.2451  0.0042 -0.0333
  952loPI   C4B13884  10.389   5.934   8.945  0.0476  0.1389  0.0134
  953loPI    C113885   4.031   3.956   6.397  0.0031  0.0944 -0.3025
  953loPI    C213886   4.224   3.773   6.098  0.1728  0.0480 -0.1661
  953loPI    C313887   3.857   3.920   6.038  0.0422 -0.3156 -0.2850
  953loPI   PO413888   4.104   3.773   6.567  0.2332 -0.0651  0.1825
  953loPI   GL113889   4.258   3.545   6.854  0.1432  0.0568 -0.1246
  953loPI   GL213890   4.057   3.298   6.710 -0.2227  0.0615 -0.3829
  953loPI   C1A13891   4.178   3.509   7.292  0.1632  0.2437  0.4656
  953loPI   C2A13892   4.118   3.531   7.742 -0.1365 -0.2333 -0.2833
  953loPI   C3A13893   4.103   3.585   8.069  0.1844 -0.0277 -0.2639
  953loPI   C4A13894   4.111   3.653   8.517 -0.3580 -0.0002 -0.1060
  953loPI   C5A13895   4.292   3.440   8.855 -0.2811 -0.1860 -0.1084
  953loPI   C6A13896   4.615   3.506   9.101 -0.1541 -0.1452  0.0021
  953loPI   C1B13897   3.761   3.465   7.071 -0.0069  0.0358  0.0360
  953loPI   C2B13898   3.706   3.516   7.476  0.0933 -0.1861 -0.2518
  953loPI   C3B13899   3.591   3.574   7.879  0.2170  0.2845 -0.1961
  953loPI   C4B13900   3.484   3.829   8.313 -0.0174 -0.1581 -0.2606
  954loPI    C113901  14.955  15.848   5.679 -0.0602  0.0149  0.0070
  954loPI    C213902  15.032  15.614   5.363  0.0487  0.0004  0.0438
  954loPI    C313903  14.808  15.943   5.319  0.0003 -0.0427 -0.0333
  954loPI   PO413904  15.011  15.639   5.870  0.0541 -0.1976  0.0389
  954loPI   GL113905  14.875  15.643   6.351 -0.0309 -0.1308 -0.0789
  954loPI   GL213906  15.127  15.884   6.336  0.0790  0.1148 -0.1835
  954loPI   C1A13907  14.756  15.587   6.772 -0.1555 -0.1454  0.0818
  954loPI   C2A13908  14.783  15.712   7.181 -0.4507  0.0321  0.3206
  954loPI   C3A13909  14.699  15.573   7.565  0.0083 -0.2365  0.1021
  954loPI   C4A13910  14.693  15.487   8.028  0.5733  0.0199  0.0331
  954loPI   C5A13911  14.563  15.373   8.505  0.3013  0.1319 -0.1741
  954loPI   C6A13912  14.595  15.081   8.901  0.0981  0.1582  0.0845
  954loPI   C1B13913  15.194  15.853   6.691 -0.1526 -0.1888  0.1336
  954loPI   C2B13914  15.282  15.846   7.128  0.0888 -0.0272 -0.1155
  954loPI   C3B13915  15.243  15.768   7.572 -0.1953 -0.0136  0.1220
  954loPI   C4B13916  15.186  15.744   8.043  0.0210  0.1994  0.0981
  955loPI    C113917  14.408  13.060   5.984  0.0180  0.0816  0.0121
  955loPI    C213918  14.435  13.362   5.723 -0.0503  0.0762 -0.0016
  955loPI    C313919  14.191  13.054   5.648 -0.0060  0.0335  0.0283
  955loPI   PO413920  14.374  13.212   6.243 -0.1116 -0.0656  0.0885
  955loPI   GL113921  14.631  13.394   6.519 -0.0741 -0.1396 -0.1499
  955loPI   GL213922  14.448  13.320   6.726  0.0110  0.2508  0.1733
  955loPI   C1A13923  14.914  13.599   6.803  0.2128  0.1336 -0.0617
  955loPI   C2A13924  14.993  13.608   7.201 -0.0029  0.0269  0.1249
  955loPI   C3A13925  14.892  13.703   7.635  0.0896  0.0935 -0.2408
  955loPI   C4A13926  14.956  13.751   8.106  0.0770  0.1868 -0.3041
  955loPI   C5A13927  14.845  14.037   8.329  0.0398  0.0757 -0.1384
  955loPI   C6A13928  14.467  14.088   8.349  0.1154 -0.2221 -0.0052
  955loPI   C1B13929  14.531  13.354   7.059 -0.0911  0.0058 -0.0060
  955loPI   C2B13930  14.467  13.538   7.448  0.0395 -0.1581 -0.1847
  955loPI   C3B13931  14.463  13.543   7.964 -0.3156  0.0331  0.4198
  955loPI   C4B13932  14.519  13.585   8.349 -0.2246  0.0964  0.2317
  956loPI    C113933   7.831  11.790   6.467 -0.1966  0.0944  0.0009
  956loPI    C213934   7.640  11.578   6.187 -0.0793  0.0997 -0.0843
  956loPI    C313935   7.766  11.948   6.106  0.0075  0.0793 -0.0441
  956loPI   PO413936   7.698  11.695   6.660 -0.2594 -0.2937 -0.1171
  956loPI   GL113937   7.844  11.467   7.057  0.6162  0.0359 -0.0921
  956loPI   GL213938   7.530  11.351   7.128 -0.5363 -0.2546 -0.2399
  956loPI   C1A13939   7.951  11.356   7.463 -0.0498  0.3277  0.0392
  956loPI   C2A13940   7.875  11.354   7.897  0.1535  0.0592  0.0831
  956loPI   C3A13941   7.969  11.325   8.346  0.1503 -0.0018  0.0362
  956loPI   C4A13942   7.774  11.378   8.846 -0.1552 -0.2832  0.1064
  956loPI   C5A13943   8.017  11.491   9.162  0.0987 -0.0724 -0.1154
  956loPI   C6A13944   8.461  11.248   9.275  0.2040  0.2698  0.0506
  956loPI   C1B13945   7.443  11.312   7.565  0.1118 -0.0589  0.3675
  956loPI   C2B13946   7.415  11.315   8.052 -0.0894  0.1301 -0.1739
  956loPI   C3B13947   7.362  11.267   8.498 -0.0457  0.0826 -0.1585
  956loPI   C4B13948   7.186  11.158   8.812  0.0572  0.0119  0.1176
  957loPI    C113949   9.388  10.419   6.219  0.0794  0.0223  0.0340
  957loPI    C213950   9.374  10.761   6.011  0.1493  0.0271  0.0370
  957loPI    C313951   9.073  10.499   5.985  0.2140 -0.0291 -0.1675
  957loPI   PO413952   9.521  10.441   6.427  0.0222  0.0113 -0.0754
  957loPI   GL113953   9.274  10.351   6.759 -0.1279  0.0422  0.1138
  957loPI   GL213954   9.279  10.580   6.954 -0.1634 -0.0696 -0.3842
  957loPI   C1A13955   9.324  10.099   7.143  0.0445  0.0906 -0.0623
  957loPI   C2A13956   9.327  10.073   7.584  0.1923 -0.0729  0.1182
  957loPI   C3A13957   9.346   9.881   8.013  0.2141  0.0064  0.1887
  957loPI   C4A13958   9.408   9.818   8.450  0.1304  0.1119 -0.2667
  957loPI   C5A13959   9.586   9.499   8.793 -0.0015  0.0733 -0.1008
  957loPI   C6A13960   9.787   9.445   9.061 -0.0936  0.0930  0.1612
  957loPI   C1B13961   9.419  10.551   7.354  0.0490  0.1705 -0.0214
  957loPI   C2B13962   9.519  10.470   7.840  0.0764 -0.3248 -0.1097
  957loPI   C3B13963   9.520  10.395   8.280 -0.0612  0.1061  0.3826
  957loPI   C4B13964   9.366  10.279   8.686  0.2546  0.2190  0.1603
  958loPI    C113965   3.934   8.606   6.261  0.0111 -0.0181 -0.1650
  958loPI    C213966   3.776   8.265   6.399  0.1980 -0.0341  0.0147
  958loPI    C313967   4.004   8.262   6.070  0.0590 -0.0548 -0.0821
  958loPI   PO413968   3.925   8.727   6.457  0.0064 -0.1627 -0.1043
  958loPI   GL113969   3.634   8.616   6.783 -0.1376 -0.2243  0.0213
  958loPI   GL213970   3.417   8.412   6.696 -0.1794 -0.1054 -0.0581
  958loPI   C1A13971   3.535   8.762   7.143 -0.0122 -0.0195 -0.0299
  958loPI   C2A13972   3.549   8.822   7.620 -0.2360 -0.0641 -0.2482
  958loPI   C3A13973   3.413   8.772   8.123 -0.1031 -0.3212  0.2795
  958loPI   C4A13974   3.400   8.678   8.557 -0.3161  0.0046 -0.0722
  958loPI   C5A13975   3.471   8.397   8.847 -0.1620 -0.1399  0.0260
  958loPI   C6A13976   3.294   8.114   9.206  0.2176 -0.0900  0.0106
  958loPI   C1B13977   3.389   8.238   7.026  0.1444 -0.0075  0.1954
  958loPI   C2B13978   3.381   8.301   7.373  0.3474 -0.3425 -0.0810
  958loPI   C3B13979   3.213   8.468   7.720 -0.1015  0.1905  0.1659
  958loPI   C4B13980   2.752   8.590   7.899  0.1326 -0.1620  0.1990
  959loPI    C113981  12.475   7.100   6.510  0.0947 -0.0319  0.0216
  959loPI    C213982  12.770   7.360   6.582  0.0696  0.0868 -0.2879
  959loPI    C313983  12.480   7.454   6.323 -0.1242 -0.1153 -0.1476
  959loPI   PO413984  12.649   6.809   6.477  0.1843  0.0988 -0.0179
  959loPI   GL113985  12.665   6.450   6.684 -0.0720 -0.0690  0.1703
  959loPI   GL213986  12.969   6.458   6.664 -0.0915  0.1704  0.4498
  959loPI   C1A13987  12.545   6.313   7.061 -0.0918 -0.2262  0.0420
  959loPI   C2A13988  12.513   6.302   7.481 -0.4390 -0.0724 -0.1452
  959loPI   C3A13989  12.559   6.275   7.898 -0.1434  0.0303  0.0736
  959loPI   C4A13990  12.664   6.232   8.329  0.0620  0.0232  0.3014
  959loPI   C5A13991  12.697   6.238   8.684 -0.0673 -0.0900  0.2600
  959loPI   C6A13992  12.819   6.237   9.075  0.1129 -0.1333 -0.2414
  959loPI   C1B13993  12.989   6.478   7.141  0.1886 -0.1522 -0.0305
  959loPI   C2B13994  13.118   6.503   7.574  0.1209  0.0583 -0.4178
  959loPI   C3B13995  13.063   6.403   8.002  0.0452  0.5608 -0.2677
  959loPI   C4B13996  13.216   6.414   8.420  0.0538  0.2196 -0.0564
  960loPI    C113997  12.779   7.556   5.832 -0.0353  0.1826 -0.0121
  960loPI    C213998  12.704   7.949   5.823  0.1692  0.2223 -0.0408
  960loPI    C313999  12.667   7.730   5.490 -0.0991  0.1862  0.0105
  960loPI   PO414000  12.931   7.554   6.091 -0.1669 -0.1402  0.0592
  960loPI   GL114001  13.216   7.613   6.436  0.2520  0.0811 -0.2774
  960loPI   GL214002  13.535   7.642   6.522  0.2309  0.0233 -0.5596
  960loPI   C1A14003  13.172   7.544   6.918  0.2195  0.0927  0.0494
  960loPI   C2A14004  13.241   7.478   7.321 -0.2904 -0.2180 -0.0400
  960loPI   C3A14005  13.191   7.488   7.830 -0.3242  0.0440 -0.1040
  960loPI   C4A14006  13.319   7.515   8.230  0.2978 -0.1318 -0.0948
  960loPI   C5A14007  13.435   7.503   8.564 -0.1707 -0.3985  0.0703
  960loPI   C6A14008  13.369   7.843   8.827 -0.1992  0.2446  0.0656
  960loPI   C1B14009  13.636   7.681   6.876  0.0089 -0.0359  0.0923
  960loPI   C2B14010  13.696   7.757   7.303  0.2327 -0.1497  0.0308
  960loPI   C3B14011  13.754   7.697   7.756  0.1112 -0.0064 -0.0277
  960loPI   C4B14012  13.776   7.665   8.253  0.2321 -0.2724  0.1882
  961loPI    C114013  16.996  10.966   5.782 -0.0570  0.3678 -0.1218
  961loPI    C214014  16.952  10.695   5.491  0.4592  0.1498 -0.0092
  961loPI    C314015  17.030  11.076   5.399 -0.0326  0.2212 -0.1624
  961loPI   PO414016  17.206  10.715   5.927 -0.0942 -0.0397  0.1903
  961loPI   GL114017  17.396  10.519   6.204 -0.1052 -0.0495  0.0229
  961loPI   GL214018  17.115  10.500   6.332  0.1300 -0.0358 -0.1088
  961loPI   C1A14019  17.532  10.782   6.518  0.0643 -0.0726 -0.2113
  961loPI   C2A14020  17.505  10.754   7.002  0.1902  0.0757 -0.2203
  961loPI   C3A14021  17.369  10.625   7.326  0.1878 -0.0597 -0.1156
  961loPI   C4A14022  17.341  10.651   7.747 -0.3425  0.0796 -0.0163
  961loPI   C5A14023  17.114  10.698   8.117 -0.0735  0.0152 -0.1065
  961loPI   C6A14024  17.160  10.860   8.532 -0.3298 -0.2471  0.0435
  961loPI   C1B14025  17.246  10.425   6.671 -0.0351 -0.4578 -0.0540
  961loPI   C2B14026  17.231  10.177   7.057 -0.0843  0.2877  0.2421
  961loPI   C3B14027  17.310  10.124   7.490  0.0305  0.3377 -0.1591
  961loPI   C4B14028  17.326  10.179   7.918  0.0863 -0.2535  0.1121
  962loPI    C114029   1.444  11.271   6.095 -0.0144  0.0992 -0.0156
  962loPI    C214030   1.208  11.284   5.772 -0.1244  0.0854  0.0635
  962loPI    C314031   1.056  11.363   6.133 -0.0149  0.0428  0.1191
  962loPI   PO414032   1.612  10.997   6.091  0.2192 -0.4481  0.0506
  962loPI   GL114033   1.754  11.023   6.386 -0.0176  0.0136  0.0619
  962loPI   GL214034   1.831  11.338   6.474  0.0932  0.3530  0.1727
  962loPI   C1A14035   1.765  10.776   6.744  0.3195  0.0179 -0.3024
  962loPI   C2A14036   1.773  10.903   7.208 -0.0033 -0.0158  0.1051
  962loPI   C3A14037   2.075  11.016   7.542 -0.0042 -0.0534 -0.0176
  962loPI   C4A14038   2.005  11.054   7.945 -0.2458  0.2298 -0.0017
  962loPI   C5A14039   1.932  11.105   8.398 -0.1078  0.1295 -0.3162
  962loPI   C6A14040   1.627  11.003   8.659 -0.3165  0.2198 -0.1145
  962loPI   C1B14041   1.868  11.254   6.915  0.0568  0.2479  0.1994
  962loPI   C2B14042   1.723  11.427   7.337 -0.0981 -0.1246 -0.1780
  962loPI   C3B14043   1.573  11.304   7.749 -0.1800 -0.0111 -0.0627
  962loPI   C4B14044   1.470  11.214   8.255 -0.0629 -0.4798 -0.2211
  963loPI    C114045  16.090  12.535   6.092 -0.3542  0.1152 -0.2063
  963loPI    C214046  16.169  12.913   6.198 -0.2280  0.0462 -0.0504
  963loPI    C314047  15.807  12.757   6.268 -0.2239  0.0810  0.0515
  963loPI   PO414048  16.296  12.384   6.145  0.0408  0.0430  0.2269
  963loPI   GL114049  16.263  12.077   6.484  0.0020 -0.1064  0.0455
  963loPI   GL214050  16.500  11.940   6.631  0.2278 -0.0548 -0.2091
  963loPI   C1A14051  16.165  12.051   6.961  0.0876 -0.2474 -0.1188
  963loPI   C2A14052  16.097  12.064   7.420 -0.1678 -0.2655  0.3204
  963loPI   C3A14053  16.178  12.256   7.781  0.3044 -0.0648  0.0192
  963loPI   C4A14054  16.141  12.277   8.183 -0.1397 -0.0920  0.1682
  963loPI   C5A14055  16.014  12.485   8.507 -0.0322 -0.0103 -0.0873
  963loPI   C6A14056  15.745  12.474   8.795  0.1423 -0.2370  0.0225
  963loPI   C1B14057  16.636  11.787   6.981 -0.3078 -0.0878  0.0250
  963loPI   C2B14058  16.532  11.749   7.281 -0.1007 -0.2936  0.0359
  963loPI   C3B14059  16.537  11.965   7.708  0.2115 -0.1137 -0.2745
  963loPI   C4B14060  16.523  11.936   8.140 -0.3253 -0.1538 -0.1114
  964loPI    C114061   0.808   9.938   5.753  0.1794 -0.1314  0.0146
  964loPI    C214062   0.465  10.004   5.559  0.0513 -0.3948  0.1471
  964loPI    C314063   0.813  10.095   5.385 -0.0808 -0.1971 -0.0190
  964loPI   PO414064   0.687   9.956   6.022 -0.0285 -0.1046 -0.0169
  964loPI   GL114065   0.517   9.830   6.298  0.1930  0.1791  0.0557
  964loPI   GL214066   0.138   9.920   6.425 -0.1206 -0.0256  0.0204
  964loPI   C1A14067   0.806   9.707   6.631  0.0468 -0.0089  0.2044
  964loPI   C2A14068   0.772   9.729   7.030  0.2290  0.1900  0.0958
  964loPI   C3A14069   0.768   9.602   7.393 -0.0471 -0.0694 -0.0392
  964loPI   C4A14070   0.897   9.549   7.830 -0.2175 -0.2539 -0.1461
  964loPI   C5A14071   0.818   9.328   8.238 -0.0669  0.0703  0.3132
  964loPI   C6A14072   0.936   9.121   8.653  0.2724  0.0151  0.0117
  964loPI   C1B14073   0.235   9.867   6.787  0.0012 -0.3063  0.0880
  964loPI   C2B14074   0.306   9.770   7.236  0.0016  0.0867 -0.1160
  964loPI   C3B14075   0.472   9.897   7.664  0.0712  0.3019 -0.1535
  964loPI   C4B14076   0.578   9.790   8.111 -0.1259 -0.0338  0.1568
  965loPI    C114077   6.801  16.233   5.974 -0.0582 -0.0417 -0.1744
  965loPI    C214078   6.908  16.563   5.774 -0.0780  0.0247 -0.0762
  965loPI    C314079   7.115  16.224   5.727 -0.0270  0.0645 -0.1394
  965loPI   PO414080   6.732  16.358   6.298 -0.2015 -0.0604 -0.1402
  965loPI   GL114081   6.667  16.624   6.673  0.3540 -0.3144  0.1076
  965loPI   GL214082   6.378  16.697   6.725  0.0362  0.3166 -0.0485
  965loPI   C1A14083   6.776  16.784   7.047 -0.1044  0.0677  0.1348
  965loPI   C2A14084   6.933  16.689   7.343  0.2199  0.0441 -0.0029
  965loPI   C3A14085   6.753  16.685   7.700  0.2182 -0.0115 -0.2453
  965loPI   C4A14086   6.706  16.619   8.184 -0.1087 -0.0014 -0.0810
  965loPI   C5A14087   6.559  16.722   8.480  0.0659 -0.0360  0.1647
  965loPI   C6A14088   6.499  16.915   8.749 -0.2801  0.0877 -0.3698
  965loPI   C1B14089   6.175  16.661   7.111 -0.2270 -0.0014  0.1661
  965loPI   C2B14090   6.165  16.594   7.552  0.2461 -0.1352 -0.0052
  965loPI   C3B14091   6.147  16.611   7.972  0.0033 -0.3484  0.3251
  965loPI   C4B14092   6.117  16.603   8.343  0.3465 -0.1761  0.0101
  966loPI    C114093  15.961   6.346   5.502 -0.1084  0.0493  0.0336
  966loPI    C214094  16.330   6.201   5.450 -0.1031  0.0671  0.0222
  966loPI    C314095  16.037   6.096   5.199 -0.1093  0.0409  0.0403
  966loPI   PO414096  15.884   6.286   5.693 -0.3965 -0.1452 -0.1065
  966loPI   GL114097  15.899   6.235   6.174  0.1431  0.1501  0.0285
  966loPI   GL214098  16.163   5.984   5.977  0.2481 -0.0942  0.0835
  966loPI   C1A14099  16.089   6.264   6.590  0.1410 -0.1358  0.1772
  966loPI   C2A14100  16.210   6.352   7.059  0.3200 -0.0532 -0.2551
  966loPI   C3A14101  16.189   6.323   7.467 -0.1532 -0.0273  0.1393
  966loPI   C4A14102  16.246   6.305   7.863  0.2040  0.0072 -0.0467
  966loPI   C5A14103  16.172   6.315   8.270 -0.0955 -0.0411 -0.1294
  966loPI   C6A14104  16.034   6.327   8.742  0.1987  0.2881  0.2591
  966loPI   C1B14105  16.075   5.787   6.412  0.1957  0.0465 -0.0238
  966loPI   C2B14106  16.088   5.823   6.907  0.3966  0.0198  0.0204
  966loPI   C3B14107  16.066   5.850   7.320  0.2536  0.2433  0.1238
  966loPI   C4B14108  16.148   5.795   7.734 -0.2910  0.2474 -0.0832
  967loPI    C114109  11.421   7.229   6.446  0.0076 -0.0661  0.4285
  967loPI    C214110  11.452   6.835   6.385  0.2359  0.0247 -0.0999
  967loPI    C314111  11.101   7.019   6.332  0.1258 -0.1043  0.1603
  967loPI   PO414112  11.569   7.269   6.625  0.1293 -0.4901 -0.0615
  967loPI   GL114113  11.584   7.334   7.017 -0.2293 -0.0063  0.0729
  967loPI   GL214114  11.501   7.165   7.174  0.0726  0.2061  0.2619
  967loPI   C1A14115  11.776   7.550   7.383 -0.0196  0.4060 -0.0519
  967loPI   C2A14116  11.866   7.503   7.844 -0.1544  0.2113 -0.0327
  967loPI   C3A14117  11.927   7.413   8.247  0.1046 -0.0678 -0.1782
  967loPI   C4A14118  11.955   7.199   8.701  0.1218 -0.2067 -0.0592
  967loPI   C5A14119  11.674   7.009   9.019  0.0597  0.0023  0.0032
  967loPI   C6A14120  11.449   6.712   9.120  0.0620  0.3760 -0.1976
  967loPI   C1B14121  11.527   7.191   7.642 -0.1479  0.0485 -0.3587
  967loPI   C2B14122  11.461   7.237   8.042 -0.1965  0.1158 -0.0175
  967loPI   C3B14123  11.476   7.198   8.489 -0.0887  0.0223  0.0491
  967loPI   C4B14124  11.180   7.037   8.780 -0.0653 -0.2499 -0.2700
  968loPI    C114125  13.114   8.374   6.201  0.0875 -0.0808 -0.0573
  968loPI    C214126  13.241   8.315   5.826  0.2704  0.2786 -0.0557
  968loPI    C314127  13.183   8.003   6.069  0.1093  0.0393 -0.3938
  968loPI   PO414128  13.233   8.508   6.264  0.0194  0.0845  0.1743
  968loPI   GL114129  13.332   8.634   6.697  0.1711  0.1837  0.1201
  968loPI   GL214130  13.021   8.796   6.605  0.0823  0.0527 -0.2915
  968loPI   C1A14131  13.336   8.697   7.137  0.0077  0.1591 -0.1875
  968loPI   C2A14132  13.306   8.620   7.621  0.2034 -0.0974 -0.0917
  968loPI   C3A14133  13.402   8.462   8.026  0.2763 -0.0417  0.0477
  968loPI   C4A14134  13.542   8.556   8.386  0.0066 -0.2563  0.0091
  968loPI   C5A14135  13.542   8.895   8.430 -0.0488  0.0224 -0.0170
  968loPI   C6A14136  13.536   9.301   8.534  0.0740  0.1130  0.2658
  968loPI   C1B14137  12.911   8.954   6.990  0.2437 -0.0283 -0.1843
  968loPI   C2B14138  13.018   8.982   7.412 -0.3585 -0.1178  0.1172
  968loPI   C3B14139  12.995   8.905   7.969  0.0666  0.3287  0.2323
  968loPI   C4B14140  13.089   8.690   8.376 -0.1412  0.2038  0.0748
  969loPI    C114141  16.963   8.309   5.669  0.0332 -0.0958  0.0428
  969loPI    C214142  16.888   8.158   5.307 -0.0918  0.2548 -0.0823
  969loPI    C314143  17.258   8.275   5.402  0.0414 -0.2657  0.0728
  969loPI   PO414144  16.647   8.280   5.822  0.2388 -0.1154 -0.1077
  969loPI   GL114145  16.363   8.265   6.220 -0.0201 -0.4372 -0.1609
  969loPI   GL214146  16.567   8.057   6.296 -0.0381 -0.1407 -0.0108
  969loPI   C1A14147  16.093   8.204   6.566 -0.1191  0.1172  0.2398
  969loPI   C2A14148  16.050   8.282   7.069  0.1703  0.0524 -0.1184
  969loPI   C3A14149  16.010   8.227   7.509  0.0708 -0.0225  0.2491
  969loPI   C4A14150  16.110   8.132   7.935  0.2991  0.0406  0.2796
  969loPI   C5A14151  16.021   7.967   8.359 -0.1820  0.0968  0.1219
  969loPI   C6A14152  15.996   7.609   8.641  0.0252 -0.2576 -0.1137
  969loPI   C1B14153  16.468   7.969   6.756 -0.0027  0.0771  0.0789
  969loPI   C2B14154  16.482   7.942   7.161  0.2446  0.1146  0.0855
  969loPI   C3B14155  16.549   7.839   7.606 -0.0239 -0.0112  0.0382
  969loPI   C4B14156  16.659   7.910   8.073  0.1693 -0.2430 -0.2240
  970loPI    C114157  15.972   8.911   5.554  0.0419 -0.1316 -0.0736
  970loPI    C214158  15.876   9.159   5.256 -0.0628 -0.2753 -0.1606
  970loPI    C314159  16.256   9.048   5.309  0.0314  0.1328  0.0586
  970loPI   PO414160  15.921   8.999   5.787 -0.2542  0.2149  0.2082
  970loPI   GL114161  15.835   9.242   6.180  0.1021  0.0505 -0.0867
  970loPI   GL214162  15.670   9.518   6.431  0.1137 -0.0750 -0.0723
  970loPI   C1A14163  15.671   9.033   6.610  0.0485  0.2175 -0.1311
  970loPI   C2A14164  15.747   8.936   7.022 -0.0101 -0.1768  0.3239
  970loPI   C3A14165  15.649   8.974   7.467 -0.1397 -0.5916 -0.0793
  970loPI   C4A14166  15.812   9.052   7.807 -0.0491 -0.0253 -0.4655
  970loPI   C5A14167  15.962   8.926   8.218 -0.0857 -0.0148  0.2019
  970loPI   C6A14168  16.118   8.454   8.319  0.1285 -0.1841  0.1768
  970loPI   C1B14169  15.624   9.440   6.906 -0.2307 -0.1607 -0.0030
  970loPI   C2B14170  15.759   9.467   7.354 -0.0459  0.2669 -0.1061
  970loPI   C3B14171  15.879   9.569   7.757 -0.1196 -0.1239 -0.1388
  970loPI   C4B14172  15.832   9.430   8.161  0.1382  0.3158  0.2881
  971loPI    C114173   5.100  16.715   6.192 -0.1107 -0.1720 -0.1320
  971loPI    C214174   4.759  16.851   6.350 -0.0556 -0.0392 -0.1251
  971loPI    C314175   4.816  16.868   5.955 -0.1099 -0.1830 -0.1399
  971loPI   PO414176   5.334  16.854   6.408 -0.0099  0.0303  0.1820
  971loPI   GL114177   5.439  16.866   6.891  0.0338  0.1140  0.0831
  971loPI   GL214178   5.551  16.482   6.842  0.0305 -0.1081  0.4478
  971loPI   C1A14179   5.494  16.691   7.287 -0.2830 -0.2142  0.1962
  971loPI   C2A14180   5.654  16.523   7.677 -0.0926 -0.0621  0.2076
  971loPI   C3A14181   5.648  16.612   8.069 -0.0039  0.1008  0.0135
  971loPI   C4A14182   5.653  16.744   8.438 -0.0489  0.1498 -0.1025
  971loPI   C5A14183   5.492  17.010   8.689  0.0455 -0.0746  0.0008
  971loPI   C6A14184   5.531  17.357   8.946  0.0084  0.1376 -0.0850
  971loPI   C1B14185   5.265  16.240   7.060  0.2696 -0.0459 -0.3173
  971loPI   C2B14186   5.236  16.289   7.458 -0.2450  0.1589 -0.1582
  971loPI   C3B14187   5.282  16.228   7.903 -0.0145  0.0167  0.3171
  971loPI   C4B14188   5.422  16.215   8.301  0.0626 -0.2069  0.0277
  972loPI    C114189   4.382   8.770   6.148  0.1338  0.0461  0.0465
  972loPI    C214190   4.692   9.009   6.066  0.1478 -0.0416 -0.1618
  972loPI    C314191   4.346   9.057   5.872  0.0316  0.0503  0.0638
  972loPI   PO414192   4.507   8.719   6.440 -0.1028  0.0194 -0.0898
  972loPI   GL114193   4.391   8.833   6.861  0.0288 -0.0235  0.1256
  972loPI   GL214194   4.117   8.612   6.893  0.0235 -0.1124  0.3107
  972loPI   C1A14195   4.385   8.604   7.322  0.1739  0.1650  0.0358
  972loPI   C2A14196   4.355   8.502   7.736 -0.0037  0.0471  0.1005
  972loPI   C3A14197   4.341   8.631   8.100  0.0717  0.0424  0.0614
  972loPI   C4A14198   4.315   8.734   8.525  0.5119 -0.1132 -0.2442
  972loPI   C5A14199   4.255   9.061   8.900 -0.4003  0.0660 -0.2477
  972loPI   C6A14200   3.948   9.399   9.061 -0.0716 -0.0294 -0.3064
  972loPI   C1B14201   3.905   8.457   7.228 -0.0532  0.1612 -0.1766
  972loPI   C2B14202   3.848   8.396   7.675 -0.0266  0.1866 -0.0500
  972loPI   C3B14203   3.828   8.469   7.982 -0.1201 -0.0936 -0.1066
  972loPI   C4B14204   3.833   8.587   8.420  0.0503 -0.1851  0.0566
  973loPI    C114205  15.006   0.700   5.738  0.3230  0.0784  0.1281
  973loPI    C214206  15.238   0.475   5.502 -0.0188 -0.0196 -0.1229
  973loPI    C314207  15.102   0.827   5.371  0.1699  0.1432  0.1099
  973loPI   PO414208  15.131   0.729   6.008 -0.0465 -0.1066 -0.2204
  973loPI   GL114209  15.073   0.797   6.482  0.1155 -0.0514  0.0426
  973loPI   GL214210  14.822   0.900   6.591  0.0209 -0.4553 -0.1198
  973loPI   C1A14211  15.128   0.889   6.947  0.2504  0.3937 -0.3074
  973loPI   C2A14212  15.094   0.943   7.348  0.0159 -0.1522  0.0535
  973loPI   C3A14213  15.110   0.962   7.768  0.2891 -0.0920 -0.2646
  973loPI   C4A14214  15.180   0.886   8.242  0.1894 -0.1188 -0.1352
  973loPI   C5A14215  15.417   0.959   8.630  0.0197  0.1582 -0.0831
  973loPI   C6A14216  15.483   1.328   8.887  0.0379  0.0625 -0.1553
  973loPI   C1B14217  14.702   0.746   7.078 -0.2220  0.0066 -0.3742
  973loPI   C2B14218  14.601   0.684   7.514  0.1548  0.2938 -0.2221
  973loPI   C3B14219  14.512   0.706   7.954 -0.4256  0.1757 -0.1146
  973loPI   C4B14220  14.617   0.778   8.417 -0.1651 -0.4834  0.0432
  974loPI    C114221   9.630  12.631   6.096 -0.2416  0.0590 -0.1002
  974loPI    C214222   9.515  12.594   5.715 -0.2648  0.0986 -0.0971
  974loPI    C314223   9.498  12.951   5.895  0.0101  0.1373 -0.1435
  974loPI   PO414224   9.552  12.421   6.224  0.0625  0.0274  0.1198
  974loPI   GL114225   9.548  12.263   6.614  0.0395 -0.0840 -0.2040
  974loPI   GL214226   9.317  12.401   6.769 -0.1697  0.2898  0.2486
  974loPI   C1A14227   9.645  12.052   6.956  0.1203 -0.0220 -0.0569
  974loPI   C2A14228   9.507  11.797   7.329  0.1772 -0.2043  0.5076
  974loPI   C3A14229   9.534  11.871   7.756  0.1542  0.2025  0.0082
  974loPI   C4A14230   9.814  11.959   7.993 -0.0526  0.1169 -0.2036
  974loPI   C5A14231   9.880  11.914   8.422  0.2088  0.0440 -0.3178
  974loPI   C6A14232   9.723  11.874   8.817  0.2228  0.0079 -0.0554
  974loPI   C1B14233   9.199  12.164   7.211  0.1034  0.1218  0.0365
  974loPI   C2B14234   9.119  12.073   7.573  0.0932  0.3739  0.1501
  974loPI   C3B14235   9.093  12.010   8.001  0.0333  0.0219  0.0563
  974loPI   C4B14236   9.040  12.102   8.484 -0.1945  0.2501 -0.0632
  975loPI    C114237  16.686   6.730   5.660 -0.2544 -0.0074  0.1515
  975loPI    C214238  16.659   6.617   5.277 -0.0888  0.2338  0.0659
  975loPI    C314239  16.336   6.755   5.468 -0.1833  0.0662  0.0295
  975loPI   PO414240  16.964   6.607   5.735 -0.2575 -0.2260  0.1677
  975loPI   GL114241  17.088   6.515   6.203  0.0712  0.0037 -0.1870
  975loPI   GL214242  17.290   6.705   6.355 -0.1396  0.4707 -0.0763
  975loPI   C1A14243  17.093   6.292   6.526 -0.0982  0.1200 -0.1488
  975loPI   C2A14244  17.012   6.298   7.012 -0.0867  0.3104  0.0337
  975loPI   C3A14245  17.040   6.206   7.516 -0.1076  0.1990 -0.0705
  975loPI   C4A14246  17.153   6.239   7.900 -0.1538  0.0365  0.0078
  975loPI   C5A14247  17.287   6.169   8.391 -0.1340 -0.1169  0.1151
  975loPI   C6A14248  17.488   6.296   8.781 -0.2114 -0.1939  0.1392
  975loPI   C1B14249  17.243   6.749   6.764  0.2154  0.0326 -0.1438
  975loPI   C2B14250  17.167   6.737   7.207 -0.3462  0.2881 -0.0073
  975loPI   C3B14251  17.235   6.791   7.632  0.2232 -0.0949 -0.1204
  975loPI   C4B14252  17.195   6.740   8.059 -0.1918 -0.0977 -0.1347
  976loPI    C114253  12.573   5.433   5.996  0.0006  0.0119 -0.0908
  976loPI    C214254  12.455   5.120   5.778 -0.0397  0.0870 -0.1774
  976loPI    C314255  12.824   5.267   5.733  0.1559 -0.2602  0.2212
  976loPI   PO414256  12.553   5.375   6.208 -0.1172  0.1301 -0.0080
  976loPI   GL114257  12.875   5.280   6.464  0.1315  0.4870 -0.2308
  976loPI   GL214258  12.976   4.960   6.497  0.1474  0.0063 -0.1086
  976loPI   C1A14259  12.956   5.415   7.015  0.1822 -0.2150  0.1895
  976loPI   C2A14260  12.927   5.373   7.418 -0.1437 -0.1405  0.2145
  976loPI   C3A14261  13.027   5.473   7.861  0.2424  0.3379 -0.1674
  976loPI   C4A14262  12.975   5.430   8.262 -0.0220  0.2126 -0.2370
  976loPI   C5A14263  12.884   5.391   8.671 -0.0544  0.0244  0.0929
  976loPI   C6A14264  12.845   5.306   9.142  0.2353  0.1918 -0.1997
  976loPI   C1B14265  12.876   4.911   6.847 -0.0991 -0.2110  0.2036
  976loPI   C2B14266  12.824   4.883   7.290  0.2410 -0.0004  0.4365
  976loPI   C3B14267  12.924   4.950   7.724  0.0892  0.2976  0.0747
  976loPI   C4B14268  12.904   4.911   8.163 -0.4143  0.0307 -0.1377
  977loPI    C114269   2.958  12.142   6.134  0.1351 -0.3505  0.0090
  977loPI    C214270   3.077  12.281   5.779 -0.0689  0.1569  0.1306
  977loPI    C314271   2.695  12.319   5.891 -0.0802 -0.3061  0.2696
  977loPI   PO414272   3.066  12.164   6.453  0.0190 -0.1221  0.1833
  977loPI   GL114273   3.010  12.385   6.841  0.0527  0.1442 -0.1395
  977loPI   GL214274   3.320  12.186   6.891 -0.0615 -0.3812  0.1804
  977loPI   C1A14275   2.866  12.419   7.297  0.1898  0.1149  0.0326
  977loPI   C2A14276   2.817  12.310   7.696 -0.1523 -0.2803 -0.2102
  977loPI   C3A14277   2.708  12.176   8.130 -0.0398  0.0525 -0.2134
  977loPI   C4A14278   2.758  12.087   8.584 -0.1475 -0.0429 -0.0221
  977loPI   C5A14279   2.777  11.968   8.880  0.1001 -0.4356  0.1295
  977loPI   C6A14280   2.850  11.592   9.017  0.1348  0.0090  0.0580
  977loPI   C1B14281   3.208  12.016   7.283  0.1547 -0.0762  0.1711
  977loPI   C2B14282   3.165  11.955   7.599  0.0621  0.0753 -0.0166
  977loPI   C3B14283   3.177  11.936   8.120 -0.3378 -0.0067  0.3349
  977loPI   C4B14284   3.199  11.862   8.542  0.0329 -0.0533  0.2699
  978loPI    C114285   6.535  11.766   5.882  0.0152 -0.0175  0.0444
  978loPI    C214286   6.845  11.528   5.795  0.1139  0.1873 -0.1735
  978loPI    C314287   6.480  11.441   5.655  0.0759 -0.0384  0.0595
  978loPI   PO414288   6.591  11.863   6.175  0.2838 -0.0013  0.1151
  978loPI   GL114289   6.651  11.745   6.689  0.0961 -0.0631  0.0857
  978loPI   GL214290   6.466  11.639   6.675  0.2266  0.0550 -0.1682
  978loPI   C1A14291   6.706  11.610   7.151  0.1443 -0.0481 -0.0341
  978loPI   C2A14292   6.670  11.769   7.578  0.0915  0.0902  0.0427
  978loPI   C3A14293   6.649  11.750   7.992 -0.1298  0.0091 -0.1595
  978loPI   C4A14294   6.576  11.821   8.342 -0.3577  0.1152 -0.1196
  978loPI   C5A14295   6.553  11.739   8.814 -0.0209  0.0187  0.2985
  978loPI   C6A14296   6.637  11.915   9.192 -0.1919 -0.3757 -0.0559
  978loPI   C1B14297   6.210  11.739   7.048 -0.2120  0.0702 -0.0171
  978loPI   C2B14298   6.148  11.762   7.487  0.0493  0.1758 -0.1748
  978loPI   C3B14299   6.079  11.763   7.948  0.4041 -0.0905 -0.0758
  978loPI   C4B14300   6.188  11.484   8.447  0.1611  0.0759  0.1369
  979loPI    C114301   3.732   9.422   6.272  0.0187 -0.1732 -0.1036
  979loPI    C214302   3.933   9.104   6.136 -0.0549 -0.2486 -0.0367
  979loPI    C314303   3.537   9.129   6.083 -0.0683 -0.2290  0.0714
  979loPI   PO414304   3.785   9.418   6.494 -0.1466  0.2545  0.1428
  979loPI   GL114305   3.636   9.292   6.919 -0.2859  0.0826  0.1003
  979loPI   GL214306   3.862   9.072   6.871  0.1970  0.0844 -0.0252
  979loPI   C1A14307   3.250   9.571   7.072 -0.0991 -0.1680  0.0884
  979loPI   C2A14308   3.191   9.672   7.494 -0.0353 -0.2066 -0.1358
  979loPI   C3A14309   3.179   9.560   7.887 -0.0847 -0.2013  0.1091
  979loPI   C4A14310   3.120   9.571   8.285  0.1931 -0.2612 -0.1322
  979loPI   C5A14311   2.910   9.604   8.603  0.1104  0.1561  0.0884
  979loPI   C6A14312   2.662   9.437   8.983  0.0620 -0.0671  0.2706
  979loPI   C1B14313   4.002   8.956   7.290 -0.1167  0.2127 -0.2616
  979loPI   C2B14314   4.077   8.916   7.781 -0.0320  0.1023  0.1949
  979loPI   C3B14315   3.981   8.958   8.121 -0.1302  0.0582  0.2228
  979loPI   C4B14316   3.937   9.114   8.505 -0.2237 -0.3799  0.0488
  980loPI    C114317  11.054  16.596   6.329 -0.0447 -0.0078  0.0682
  980loPI    C214318  11.409  16.540   6.154 -0.1442 -0.0265 -0.1310
  980loPI    C314319  11.110  16.708   5.949 -0.0844  0.5199  0.2110
  980loPI   PO414320  11.031  16.261   6.408 -0.0679  0.1246  0.0463
  980loPI   GL114321  11.227  16.288   6.778  0.0138 -0.1722  0.1050
  980loPI   GL214322  10.956  16.440   6.923  0.0212  0.4273 -0.3620
  980loPI   C1A14323  11.199  16.143   7.212 -0.0134  0.1926 -0.2024
  980loPI   C2A14324  11.254  15.973   7.579 -0.0578 -0.2308 -0.2087
  980loPI   C3A14325  11.198  16.058   7.952 -0.1760  0.4004 -0.0517
  980loPI   C4A14326  11.251  15.958   8.343  0.0018 -0.2371  0.0577
  980loPI   C5A14327  11.334  15.931   8.810  0.0631  0.3023 -0.1734
  980loPI   C6A14328  11.674  15.991   9.115  0.0791  0.1468  0.1194
  980loPI   C1B14329  10.872  16.428   7.369  0.1980  0.2954  0.0930
  980loPI   C2B14330  10.795  16.390   7.711  0.0541 -0.1666  0.2587
  980loPI   C3B14331  10.737  16.361   8.166 -0.2073  0.0567 -0.1187
  980loPI   C4B14332  10.498  16.482   8.505 -0.3186 -0.0387 -0.2054
  981loPI    C114333   3.390   5.164   6.120  0.0570  0.1356  0.0338
  981loPI    C214334   3.541   4.895   5.865 -0.1278  0.0540  0.0089
  981loPI    C314335   3.461   5.266   5.740  0.2605  0.1656  0.0787
  981loPI   PO414336   3.535   5.255   6.279  0.2342  0.0912  0.0059
  981loPI   GL114337   3.640   5.659   6.492 -0.0854 -0.5880  0.2153
  981loPI   GL214338   3.976   5.658   6.619  0.1795 -0.2822  0.2435
  981loPI   C1A14339   3.697   5.388   6.971  0.0807 -0.2216  0.2017
  981loPI   C2A14340   3.650   5.352   7.449  0.0850 -0.2810  0.1034
  981loPI   C3A14341   3.634   5.413   7.913  0.0042  0.1067 -0.2937
  981loPI   C4A14342   3.608   5.264   8.396 -0.1546 -0.0302 -0.0490
  981loPI   C5A14343   3.637   4.865   8.562 -0.3001 -0.1984 -0.3504
  981loPI   C6A14344   3.299   4.768   8.763 -0.0027  0.2264  0.0861
  981loPI   C1B14345   3.803   5.856   7.007  0.0657 -0.1225 -0.0613
  981loPI   C2B14346   3.661   5.919   7.314 -0.2339  0.0836  0.1722
  981loPI   C3B14347   3.787   5.803   7.647  0.0132  0.1897 -0.1895
  981loPI   C4B14348   3.449   5.887   8.001 -0.0147  0.2936  0.1141
  982loPI    C114349   2.737   2.241   6.253  0.2473 -0.1688  0.1186
  982loPI    C214350   2.822   2.059   5.908  0.4875 -0.1312  0.1565
  982loPI    C314351   2.893   2.450   5.950 -0.1287  0.0033  0.0376
  982loPI   PO414352   2.672   2.006   6.430  0.2948  0.2779  0.0185
  982loPI   GL114353   2.368   2.186   6.823 -0.1655 -0.0203 -0.0094
  982loPI   GL214354   2.554   1.956   6.929 -0.0323 -0.0558  0.0987
  982loPI   C1A14355   2.262   2.508   7.169 -0.2680  0.3700  0.1429
  982loPI   C2A14356   2.183   2.764   7.501  0.1713  0.1890  0.0806
  982loPI   C3A14357   2.001   2.587   7.782 -0.1760  0.1229 -0.0589
  982loPI   C4A14358   1.678   2.491   8.021 -0.1872 -0.2137 -0.0227
  982loPI   C5A14359   1.465   2.709   8.416 -0.0810 -0.4139  0.0608
  982loPI   C6A14360   1.455   3.178   8.582  0.1120 -0.0697  0.2314
  982loPI   C1B14361   2.651   2.188   7.274  0.1692  0.0537  0.1262
  982loPI   C2B14362   2.519   2.439   7.650  0.2117  0.1009 -0.1077
  982loPI   C3B14363   2.465   2.788   7.900  0.1367 -0.0282 -0.0405
  982loPI   C4B14364   2.346   3.091   8.077 -0.2605  0.0051  0.0528
  983loPI    C114365  10.602   6.863   6.209 -0.0655 -0.2434 -0.0385
  983loPI    C214366  10.791   7.079   5.930  0.1463 -0.2514  0.0964
  983loPI    C314367  10.602   6.741   5.828 -0.0273 -0.1023 -0.0842
  983loPI   PO414368  10.565   7.020   6.423 -0.2250 -0.0020  0.0178
  983loPI   GL114369  10.559   6.958   6.934  0.0794 -0.1920 -0.2118
  983loPI   GL214370  10.520   7.306   6.959  0.0549  0.0920 -0.0051
  983loPI   C1A14371  10.570   6.821   7.302 -0.0182  0.1561  0.1858
  983loPI   C2A14372  10.651   6.982   7.764  0.3457 -0.0804  0.0564
  983loPI   C3A14373  10.430   6.864   8.155 -0.1348 -0.3582  0.0462
  983loPI   C4A14374  10.515   6.884   8.574 -0.0432  0.2303  0.0325
  983loPI   C5A14375  10.363   7.101   8.978  0.2465 -0.2457  0.0507
  983loPI   C6A14376  10.396   6.922   9.404 -0.3238  0.1117  0.0202
  983loPI   C1B14377  10.495   7.310   7.413 -0.1924  0.1731  0.2541
  983loPI   C2B14378  10.451   7.429   7.854 -0.0465  0.0227  0.1948
  983loPI   C3B14379  10.581   7.326   8.335  0.0187  0.0191 -0.1853
  983loPI   C4B14380  11.020   7.083   8.327  0.1654  0.2481 -0.0222
  984loPI    C114381  10.453  12.703   6.233  0.1374 -0.2153 -0.1061
  984loPI    C214382  10.464  13.021   5.992 -0.0619 -0.0786  0.0608
  984loPI    C314383  10.772  12.765   6.001 -0.0007 -0.0199 -0.2462
  984loPI   PO414384  10.463  12.787   6.451  0.0105  0.0799  0.1379
  984loPI   GL114385  10.470  12.666   6.802 -0.2247 -0.0519  0.1599
  984loPI   GL214386  10.651  12.431   6.910 -0.1326  0.0502  0.2671
  984loPI   C1A14387  10.281  12.667   7.166  0.1847 -0.1175  0.2281
  984loPI   C2A14388  10.240  12.678   7.575 -0.1479 -0.2120 -0.1822
  984loPI   C3A14389  10.250  12.651   7.957 -0.2432 -0.0075 -0.2115
  984loPI   C4A14390  10.395  12.649   8.370 -0.0150 -0.2484  0.1292
  984loPI   C5A14391  10.505  12.505   8.776  0.1395  0.2304 -0.0502
  984loPI   C6A14392  10.591  12.094   8.980 -0.2730 -0.0901  0.0220
  984loPI   C1B14393  10.742  12.373   7.323  0.3495 -0.2186 -0.2557
  984loPI   C2B14394  10.672  12.368   7.765 -0.1117 -0.0397  0.0194
  984loPI   C3B14395  10.787  12.338   8.183 -0.1957 -0.4259  0.2522
  984loPI   C4B14396  10.943  12.282   8.632 -0.1795 -0.0168 -0.0550
  985loPI    C114397   1.818   7.586   6.035  0.0582  0.1600 -0.0583
  985loPI    C214398   1.940   7.933   5.878 -0.2692  0.2826 -0.0502
  985loPI    C314399   1.672   7.708   5.683 -0.0496  0.0255 -0.0612
  985loPI   PO414400   1.764   7.612   6.309  0.3734 -0.0481  0.0627
  985loPI   GL114401   1.467   7.600   6.597  0.1099 -0.0814  0.1745
  985loPI   GL214402   1.239   7.788   6.494  0.1079  0.1573  0.2302
  985loPI   C1A14403   1.428   7.785   7.010  0.0708  0.0082 -0.1415
  985loPI   C2A14404   1.461   7.911   7.381  0.1007  0.0326  0.0522
  985loPI   C3A14405   1.493   7.977   7.751  0.1830  0.0277 -0.0791
  985loPI   C4A14406   1.350   7.946   8.126 -0.3575 -0.2526 -0.2259
  985loPI   C5A14407   1.311   7.823   8.571 -0.2888  0.5060 -0.0668
  985loPI   C6A14408   1.451   7.623   8.790  0.1945 -0.0050  0.1084
  985loPI   C1B14409   0.963   7.689   6.818 -0.3826  0.1378  0.2189
  985loPI   C2B14410   0.986   7.638   7.374  0.3219 -0.3006  0.0061
  985loPI   C3B14411   0.998   7.761   7.747 -0.0865 -0.1177  0.0299
  985loPI   C4B14412   0.874   7.689   8.188 -0.0206 -0.0824  0.1549
  986loPI    C114413  13.487  12.699   5.840 -0.1125 -0.1348 -0.0555
  986loPI    C214414  13.413  12.838   5.472 -0.0358  0.0532 -0.0009
  986loPI    C314415  13.789  12.762   5.585 -0.0544  0.0451  0.0560
  986loPI   PO414416  13.453  12.879   6.053 -0.0746  0.1834  0.0448
  986loPI   GL114417  13.270  13.078   6.515 -0.1817  0.1039 -0.2168
  986loPI   GL214418  13.557  13.069   6.585 -0.3883 -0.0863 -0.0799
  986loPI   C1A14419  13.040  13.326   6.751  0.0953 -0.2002 -0.1159
  986loPI   C2A14420  13.041  13.395   7.157 -0.0832 -0.0484  0.0119
  986loPI   C3A14421  13.134  13.422   7.581 -0.0422 -0.2577  0.0306
  986loPI   C4A14422  13.046  13.328   8.003 -0.0672  0.0811 -0.1516
  986loPI   C5A14423  13.006  13.525   8.388  0.3231 -0.1474  0.0950
  986loPI   C6A14424  12.735  13.559   8.695  0.2436  0.0117 -0.0571
  986loPI   C1B14425  13.500  13.082   7.069  0.2275  0.0034 -0.1871
  986loPI   C2B14426  13.567  13.184   7.422  0.1348 -0.0428 -0.4189
  986loPI   C3B14427  13.440  13.065   7.843 -0.0674  0.2041 -0.0523
  986loPI   C4B14428  13.390  13.071   8.282  0.2179 -0.0868  0.0517
  987loPI    C114429  16.101   4.372   6.071  0.0815 -0.0882  0.0600
  987loPI    C214430  16.489   4.359   5.978  0.0711  0.2645 -0.0482
  987loPI    C314431  16.220   4.463   5.700 -0.1002  0.0406  0.0313
  987loPI   PO414432  16.075   4.445   6.256  0.0976 -0.0527 -0.1109
  987loPI   GL114433  16.292   4.313   6.521  0.0317  0.0338 -0.3430
  987loPI   GL214434  16.562   4.552   6.464 -0.1076 -0.2141  0.0553
  987loPI   C1A14435  16.406   3.975   6.821 -0.0143 -0.3065  0.1581
  987loPI   C2A14436  16.360   3.960   7.241 -0.1763 -0.2427 -0.1058
  987loPI   C3A14437  16.474   3.934   7.693 -0.1543  0.1364 -0.2184
  987loPI   C4A14438  16.358   3.984   8.135 -0.1158 -0.0712  0.0861
  987loPI   C5A14439  16.355   3.865   8.561  0.0886  0.2911 -0.0509
  987loPI   C6A14440  16.336   3.586   8.828 -0.3985 -0.3207 -0.2074
  987loPI   C1B14441  16.482   4.460   6.999  0.2390 -0.0357 -0.3690
  987loPI   C2B14442  16.531   4.454   7.455  0.3052  0.0734  0.2068
  987loPI   C3B14443  16.332   4.468   7.902 -0.0347  0.1360  0.1249
  987loPI   C4B14444  16.415   4.458   8.365 -0.0468  0.0378 -0.0457
  988loPI    C114445  10.326  10.896   5.976  0.0935  0.0122 -0.1166
  988loPI    C214446  10.379  11.247   5.791 -0.2577  0.0597 -0.1348
  988loPI    C314447  10.531  10.912   5.634  0.2178  0.2209 -0.0341
  988loPI   PO414448  10.414  10.927   6.187  0.0851 -0.1314  0.1932
  988loPI   GL114449  10.525  10.745   6.440  0.1530 -0.0880 -0.1504
  988loPI   GL214450  10.655  10.492   6.531  0.0164  0.1819  0.2038
  988loPI   C1A14451  10.477  10.901   6.883 -0.0830 -0.3497 -0.2858
  988loPI   C2A14452  10.446  10.896   7.306 -0.1982  0.0573 -0.0818
  988loPI   C3A14453  10.552  10.826   7.709 -0.0678  0.0996  0.0200
  988loPI   C4A14454  10.555  10.752   8.102 -0.3022  0.1075 -0.3190
  988loPI   C5A14455  10.524  10.576   8.551 -0.2121  0.0148 -0.0189
  988loPI   C6A14456  10.658  10.394   8.959 -0.0264  0.1357  0.1900
  988loPI   C1B14457  10.871  10.531   6.886 -0.1679 -0.0091 -0.3553
  988loPI   C2B14458  10.941  10.478   7.342  0.0984 -0.0199 -0.1579
  988loPI   C3B14459  10.873  10.476   7.772  0.4076  0.1025 -0.0043
  988loPI   C4B14460  10.888  10.397   8.228  0.0004 -0.1082  0.1672
  989loPI    C114461  13.981  15.443   5.531 -0.0516 -0.1800  0.2498
  989loPI    C214462  13.825  15.280   5.200 -0.0924  0.2925  0.0278
  989loPI    C314463  14.221  15.271   5.260 -0.1229 -0.1992  0.1985
  989loPI   PO414464  13.865  15.361   5.773 -0.1515 -0.0268  0.0301
  989loPI   GL114465  13.778  15.562   6.189  0.0915  0.1956 -0.3192
  989loPI   GL214466  13.995  15.376   6.242  0.1092  0.0125  0.1778
  989loPI   C1A14467  13.642  15.403   6.563  0.1063 -0.2116 -0.1527
  989loPI   C2A14468  13.738  15.226   6.911 -0.3313  0.2950  0.0825
  989loPI   C3A14469  13.821  15.052   7.369 -0.1669  0.0250 -0.2849
  989loPI   C4A14470  13.775  15.165   7.761 -0.2057  0.1276 -0.1311
  989loPI   C5A14471  13.790  15.180   8.262  0.2394  0.2765  0.0654
  989loPI   C6A14472  13.747  15.312   8.751  0.1042  0.0344 -0.0701
  989loPI   C1B14473  13.889  14.988   6.469 -0.1342 -0.2449 -0.3596
  989loPI   C2B14474  13.948  14.736   6.902 -0.2255 -0.1703  0.2589
  989loPI   C3B14475  14.014  14.643   7.287 -0.0344 -0.1573  0.1140
  989loPI   C4B14476  14.142  14.813   7.691  0.3516  0.1971  0.0721
  990loPI    C114477   2.843   3.199   6.152  0.0648  0.3415 -0.1220
  990loPI    C214478   2.855   3.177   5.753 -0.2368 -0.1594 -0.1120
  990loPI    C314479   3.147   3.013   5.972 -0.0997  0.0671 -0.1218
  990loPI   PO414480   2.657   3.225   6.248 -0.0903 -0.1044 -0.2370
  990loPI   GL114481   2.446   3.522   6.425 -0.2389 -0.0037 -0.0437
  990loPI   GL214482   2.475   3.903   6.321  0.0332  0.1895 -0.4826
  990loPI   C1A14483   2.364   3.568   6.841 -0.2011 -0.0093  0.3385
  990loPI   C2A14484   2.338   3.842   7.272 -0.1413  0.1697  0.2066
  990loPI   C3A14485   2.348   3.984   7.768 -0.0476 -0.2399  0.1026
  990loPI   C4A14486   2.384   4.355   8.017  0.1407 -0.0437  0.0970
  990loPI   C5A14487   2.646   4.647   8.219 -0.2245  0.4196 -0.0189
  990loPI   C6A14488   3.060   4.725   8.322  0.0754  0.2867 -0.0126
  990loPI   C1B14489   2.243   4.168   6.550  0.2360  0.2413 -0.0659
  990loPI   C2B14490   2.300   4.266   6.969  0.1247 -0.0268 -0.0465
  990loPI   C3B14491   2.426   4.388   7.385  0.0975 -0.0463  0.0200
  990loPI   C4B14492   2.665   4.555   7.666  0.1697 -0.1168  0.0328
  991loPI    C114493   8.736  14.157   6.258  0.0111  0.0650  0.1270
  991loPI    C214494   9.134  14.128   6.223 -0.0203 -0.1083 -0.1091
  991loPI    C314495   8.909  14.198   5.899 -0.1764  0.0713  0.0363
  991loPI   PO414496   8.711  14.077   6.514  0.2514 -0.0044  0.0495
  991loPI   GL114497   8.818  14.002   6.902 -0.2309  0.0131 -0.1728
  991loPI   GL214498   8.783  14.380   6.904 -0.1459  0.1352 -0.0943
  991loPI   C1A14499   8.747  13.800   7.297  0.2116 -0.0081  0.3793
  991loPI   C2A14500   8.747  13.707   7.781  0.0080  0.0024  0.0664
  991loPI   C3A14501   8.677  13.589   8.185 -0.1007 -0.2734 -0.3067
  991loPI   C4A14502   8.798  13.798   8.611  0.2071  0.0263  0.2383
  991loPI   C5A14503   8.979  14.082   8.954 -0.2722 -0.0246  0.1532
  991loPI   C6A14504   8.993  14.214   9.344 -0.0872 -0.2854 -0.1580
  991loPI   C1B14505   8.979  14.311   7.325  0.0614 -0.0220  0.0267
  991loPI   C2B14506   8.932  14.169   7.711 -0.0210 -0.2130  0.2533
  991loPI   C3B14507   8.956  14.168   8.071  0.1472 -0.2105  0.0975
  991loPI   C4B14508   9.054  14.227   8.491 -0.0222  0.3448 -0.0736
  992loPI    C114509   9.039  10.936   6.283 -0.2413  0.1108  0.1106
  992loPI    C214510   8.737  10.987   6.025 -0.0891  0.0492 -0.0821
  992loPI    C314511   8.935  11.304   6.167  0.0627  0.0655 -0.3261
  992loPI   PO414512   9.024  10.693   6.462 -0.2735  0.3248  0.0319
  992loPI   GL114513   8.815  10.446   6.756  0.1629 -0.1073 -0.0399
  992loPI   GL214514   8.587  10.300   6.670  0.1412 -0.3255 -0.0911
  992loPI   C1A14515   8.887  10.398   7.171  0.4018  0.3093 -0.1614
  992loPI   C2A14516   8.964  10.507   7.598  0.0611  0.0398 -0.1198
  992loPI   C3A14517   9.087  10.593   7.987  0.1543 -0.1624  0.1563
  992loPI   C4A14518   9.141  10.696   8.417 -0.1550 -0.0583 -0.1471
  992loPI   C5A14519   9.297  10.779   8.796  0.0028  0.3333 -0.1724
  992loPI   C6A14520   9.469  10.944   9.181  0.3408  0.1601  0.1646
  992loPI   C1B14521   8.394  10.474   7.076  0.0663 -0.0687  0.0742
  992loPI   C2B14522   8.494  10.490   7.491  0.0978  0.1116 -0.1619
  992loPI   C3B14523   8.571  10.410   7.848  0.0658 -0.1948 -0.1367
  992loPI   C4B14524   8.636  10.504   8.249  0.2313  0.1679  0.2102
  993loPI    C114525   5.230   6.983   6.276  0.1569 -0.1510 -0.0593
  993loPI    C214526   5.365   7.334   6.413  0.0011 -0.0603 -0.1353
  993loPI    C314527   5.054   7.324   6.162  0.0501 -0.2489 -0.1899
  993loPI   PO414528   5.217   6.820   6.455 -0.1639 -0.2140 -0.1443
  993loPI   GL114529   5.252   6.828   6.954  0.1161  0.0032 -0.3222
  993loPI   GL214530   4.934   6.740   6.910  0.3887  0.1380 -0.0111
  993loPI   C1A14531   5.393   6.791   7.363 -0.0012 -0.0848  0.1004
  993loPI   C2A14532   5.483   6.693   7.764  0.0473 -0.0622 -0.0271
  993loPI   C3A14533   5.405   6.753   8.163 -0.0956 -0.2130  0.2649
  993loPI   C4A14534   5.424   7.024   8.559 -0.1243 -0.1565 -0.0600
  993loPI   C5A14535   5.567   7.355   8.776  0.0274 -0.0805 -0.3836
  993loPI   C6A14536   5.368   7.548   9.069 -0.0163  0.0504  0.0026
  993loPI   C1B14537   4.929   6.790   7.386  0.0490  0.3553  0.0560
  993loPI   C2B14538   4.986   6.748   7.831  0.3198 -0.1711 -0.2577
  993loPI   C3B14539   4.882   6.771   8.261 -0.0688  0.3144  0.2527
  993loPI   C4B14540   5.077   6.569   8.763 -0.1418  0.1039  0.2615
  994loPI    C114541   2.976  16.398   6.094 -0.0445 -0.0591  0.1018
  994loPI    C214542   2.611  16.349   5.939 -0.0153 -0.2487  0.0901
  994loPI    C314543   2.933  16.243   5.728  0.0633  0.1785 -0.0137
  994loPI   PO414544   2.864  16.362   6.363  0.1188  0.0710  0.3961
  994loPI   GL114545   3.049  16.684   6.604 -0.1470  0.2263 -0.0447
  994loPI   GL214546   3.122  16.366   6.781  0.1900 -0.1367  0.1809
  994loPI   C1A14547   2.883  16.710   7.060 -0.3091  0.0182 -0.0717
  994loPI   C2A14548   2.813  16.708   7.616 -0.0923 -0.2693 -0.2844
  994loPI   C3A14549   2.930  16.570   8.058 -0.0053  0.1708  0.0255
  994loPI   C4A14550   3.084  16.557   8.411  0.0596  0.1271 -0.1778
  994loPI   C5A14551   3.065  16.393   8.752  0.1003 -0.0476  0.0233
  994loPI   C6A14552   2.963  15.947   8.724  0.1844  0.0981 -0.0383
  994loPI   C1B14553   3.132  16.199   7.102  0.2893 -0.5153  0.0026
  994loPI   C2B14554   3.184  16.219   7.475  0.0005 -0.0740 -0.0068
  994loPI   C3B14555   3.268  16.182   7.950  0.0125  0.2455 -0.1852
  994loPI   C4B14556   3.313  16.070   8.342  0.0003  0.5235 -0.1147
  995loPI    C114557   1.797   3.044   5.718 -0.1690  0.1408  0.1341
  995loPI    C214558   2.057   3.266   5.510 -0.1075 -0.0718 -0.0198
  995loPI    C314559   1.673   3.376   5.533 -0.0869  0.0256 -0.1333
  995loPI   PO414560   1.846   3.048   5.976 -0.0396  0.1204  0.0029
  995loPI   GL114561   1.701   3.187   6.334 -0.0530 -0.1596 -0.1864
  995loPI   GL214562   1.795   3.084   6.594  0.0033  0.1809  0.0190
  995loPI   C1A14563   1.426   3.341   6.669  0.1174 -0.2465  0.0422
  995loPI   C2A14564   1.393   3.486   7.064 -0.0926  0.0463  0.0413
  995loPI   C3A14565   1.455   3.460   7.460  0.0172  0.0505 -0.2290
  995loPI   C4A14566   1.477   3.427   7.894  0.0371 -0.0943  0.0967
  995loPI   C5A14567   1.529   3.557   8.188 -0.3532 -0.0021 -0.1206
  995loPI   C6A14568   1.658   3.649   8.617 -0.2763  0.1250 -0.2158
  995loPI   C1B14569   1.753   3.171   7.200 -0.0703 -0.1410  0.0545
  995loPI   C2B14570   1.862   3.171   7.645  0.0218 -0.1439 -0.2154
  995loPI   C3B14571   1.806   3.006   8.052 -0.0840  0.0305 -0.3601
  995loPI   C4B14572   2.071   2.742   8.320 -0.2118 -0.2309 -0.2277
  996loPI    C114573   9.836   0.911   6.521 -0.2506  0.3635  0.0419
  996loPI    C214574  10.091   1.194   6.398  0.1219 -0.0796 -0.2363
  996loPI    C314575   9.813   1.052   6.148 -0.0389  0.0084 -0.1099
  996loPI   PO414576   9.782   1.124   6.792 -0.0093  0.0379 -0.0294
  996loPI   GL114577   9.806   1.085   7.191  0.0038 -0.3441  0.1057
  996loPI   GL214578   9.502   1.008   7.156 -0.1741  0.1317 -0.1491
  996loPI   C1A14579   9.711   1.144   7.620  0.2702  0.0312  0.1893
  996loPI   C2A14580   9.689   1.107   7.993 -0.1773 -0.1659  0.0476
  996loPI   C3A14581   9.692   1.365   8.301 -0.3620  0.0569  0.0724
  996loPI   C4A14582   9.715   1.735   8.520  0.1026  0.1866 -0.0821
  996loPI   C5A14583   9.441   1.839   8.742  0.1952 -0.1750 -0.1095
  996loPI   C6A14584   9.113   1.795   9.047  0.0852  0.2194 -0.1884
  996loPI   C1B14585   9.378   0.798   7.433  0.0337 -0.3587  0.2636
  996loPI   C2B14586   9.376   0.656   7.824 -0.0240 -0.0593  0.1158
  996loPI   C3B14587   9.459   0.676   8.203 -0.0451  0.0206 -0.0977
  996loPI   C4B14588   9.445   0.895   8.639 -0.0416 -0.1733 -0.0984
  997loPI    C114589   6.408   2.666   6.107 -0.1585 -0.2491  0.0495
  997loPI    C214590   6.057   2.713   5.921  0.0044  0.3916 -0.1234
  997loPI    C314591   6.390   2.655   5.707  0.0325 -0.0667  0.0340
  997loPI   PO414592   6.347   2.787   6.363  0.1198  0.1148  0.0812
  997loPI   GL114593   6.211   2.885   6.711  0.0818  0.3326 -0.0241
  997loPI   GL214594   6.257   3.201   6.840 -0.0958  0.0188 -0.2167
  997loPI   C1A14595   6.315   2.679   7.089 -0.4689 -0.0791  0.0981
  997loPI   C2A14596   6.250   2.751   7.451  0.0362  0.1200 -0.4243
  997loPI   C3A14597   6.231   2.692   7.831  0.1724  0.2475  0.1543
  997loPI   C4A14598   6.144   2.622   8.274  0.0907  0.2235 -0.1211
  997loPI   C5A14599   6.222   2.669   8.672  0.0403 -0.1321 -0.2026
  997loPI   C6A14600   6.223   2.426   9.025 -0.1589  0.1115  0.0885
  997loPI   C1B14601   6.041   3.125   7.176  0.2618  0.4661  0.0290
  997loPI   C2B14602   5.996   3.147   7.530  0.2718 -0.0978  0.0536
  997loPI   C3B14603   5.957   3.166   7.978 -0.0184  0.2025 -0.3169
  997loPI   C4B14604   5.837   3.127   8.441 -0.2330  0.2809 -0.2405
  998loPI    C114605  12.356   8.172   6.111  0.0601 -0.1344  0.1848
  998loPI    C214606  12.129   8.428   6.319  0.1533 -0.1762  0.3391
  998loPI    C314607  12.192   8.489   5.929 -0.1041 -0.1521  0.2995
  998loPI   PO414608  12.285   7.951   6.258 -0.4489 -0.2616 -0.3756
  998loPI   GL114609  12.418   7.799   6.703 -0.2657 -0.0676  0.2831
  998loPI   GL214610  12.742   7.907   6.877  0.0906  0.2235  0.1432
  998loPI   C1A14611  12.584   7.457   6.980  0.0396  0.0959  0.2335
  998loPI   C2A14612  12.664   7.291   7.355 -0.1009  0.2903  0.1297
  998loPI   C3A14613  12.700   7.272   7.754 -0.0673  0.2173 -0.3368
  998loPI   C4A14614  12.875   7.298   8.222  0.1531  0.3616  0.0002
  998loPI   C5A14615  12.815   7.154   8.606  0.1469  0.1502  0.2145
  998loPI   C6A14616  12.474   7.303   8.851  0.0771  0.1172 -0.0144
  998loPI   C1B14617  12.763   7.827   7.276 -0.3195  0.1166  0.2722
  998loPI   C2B14618  12.871   7.796   7.602  0.1057 -0.0537 -0.0619
  998loPI   C3B14619  12.826   7.759   8.060 -0.2393  0.1838  0.0545
  998loPI   C4B14620  12.923   7.835   8.468  0.0533  0.0507  0.0224
  999loPI    C114621   9.032   2.983   6.220  0.1263  0.1534  0.0829
  999loPI    C214622   9.383   3.111   6.076  0.1065 -0.0042 -0.1109
  999loPI    C314623   9.045   3.192   5.879  0.0591 -0.0616 -0.0538
  999loPI   PO414624   9.017   3.047   6.558 -0.0434  0.0477 -0.1954
  999loPI   GL114625   8.829   3.098   6.955  0.1476 -0.2815 -0.0614
  999loPI   GL214626   8.600   3.056   6.918  0.1495  0.1279  0.3905
  999loPI   C1A14627   8.987   3.146   7.304 -0.2207 -0.0663 -0.0994
  999loPI   C2A14628   9.145   3.225   7.616 -0.3182  0.1191 -0.0625
  999loPI   C3A14629   9.089   3.266   7.981  0.5290  0.0273 -0.0077
  999loPI   C4A14630   9.146   3.283   8.406  0.4963  0.2106  0.2350
  999loPI   C5A14631   9.115   3.409   8.811 -0.2085 -0.0780 -0.0546
  999loPI   C6A14632   8.838   3.328   9.162  0.0233 -0.0989  0.0196
  999loPI   C1B14633   8.479   2.902   7.380 -0.2305  0.0944 -0.2391
  999loPI   C2B14634   8.622   3.164   7.700  0.2829  0.2103  0.0869
  999loPI   C3B14635   8.592   3.197   8.186  0.0829 -0.1655 -0.0156
  999loPI   C4B14636   8.628   3.316   8.586 -0.0977 -0.1031 -0.1635
 1000loPI    C114637  16.020  16.100   6.027  0.0048 -0.1514 -0.3290
 1000loPI    C214638  16.161  16.472   6.059 -0.1318 -0.1145 -0.1413
 1000loPI    C314639  15.776  16.411   5.967 -0.2166 -0.2007  0.2520
 1000loPI   PO414640  16.075  16.035   6.238 -0.1106 -0.0200  0.1572
 1000loPI   GL114641  15.728  15.737   6.435  0.1092  0.1731 -0.0308
 1000loPI   GL214642  15.977  15.487   6.456  0.0016 -0.3922 -0.1166
 1000loPI   C1A14643  15.648  15.538   6.863 -0.0578 -0.2176  0.1302
 1000loPI   C2A14644  15.644  15.480   7.326  0.1759  0.2403  0.0090
 1000loPI   C3A14645  15.656  15.500   7.815 -0.1368 -0.2623 -0.1579
 1000loPI   C4A14646  15.708  15.391   8.203 -0.1473  0.1570 -0.0321
 1000loPI   C5A14647  15.856  15.742   8.599 -0.0177 -0.1265  0.2685
 1000loPI   C6A14648  15.738  15.941   8.925 -0.0880  0.2041 -0.0128
 1000loPI   C1B14649  16.156  15.736   6.768 -0.0157 -0.2738 -0.3641
 1000loPI   C2B14650  16.126  15.678   7.285  0.1646  0.2394  0.0760
 1000loPI   C3B14651  16.173  15.626   7.691 -0.2323 -0.1697  0.2246
 1000loPI   C4B14652  16.120  15.688   8.142  0.1234  0.3389 -0.2708
 1001loPI    C114653   3.655   7.455   6.431 -0.0021 -0.0218  0.0634
 1001loPI    C214654   3.629   7.391   6.037 -0.2114 -0.1543  0.0964
 1001loPI    C314655   3.709   7.758   6.176  0.1925 -0.1713 -0.0759
 1001loPI   PO414656   3.763   7.315   6.539  0.4070  0.2598 -0.0056
 1001loPI   GL114657   3.504   7.149   6.878  0.2628  0.1098 -0.0341
 1001loPI   GL214658   3.561   6.829   6.800  0.0662 -0.1494  0.0224
 1001loPI   C1A14659   3.383   7.164   7.359  0.0287 -0.3157  0.2156
 1001loPI   C2A14660   3.284   7.144   7.757  0.1093  0.2344  0.0452
 1001loPI   C3A14661   3.123   7.101   8.150  0.1011  0.0224  0.0682
 1001loPI   C4A14662   3.201   7.195   8.542 -0.1841 -0.0692  0.4773
 1001loPI   C5A14663   3.322   7.333   8.918 -0.0360 -0.0336 -0.1154
 1001loPI   C6A14664   3.722   7.256   9.178 -0.0790  0.2034 -0.1094
 1001loPI   C1B14665   3.790   6.820   7.228  0.0978  0.0852 -0.1199
 1001loPI   C2B14666   3.774   6.857   7.722 -0.0128 -0.3607 -0.4207
 1001loPI   C3B14667   3.578   6.923   8.109 -0.0969  0.2490 -0.1235
 1001loPI   C4B14668   3.688   6.937   8.512  0.0074 -0.0460 -0.0709
 1002loPI    C114669   8.614   9.133   6.198  0.1851  0.0739 -0.0200
 1002loPI    C214670   8.369   9.190   5.887  0.0542 -0.0270  0.0642
 1002loPI    C314671   8.708   9.400   5.914 -0.0752  0.1931  0.0032
 1002loPI   PO414672   8.470   9.176   6.437 -0.3812 -0.1164 -0.1014
 1002loPI   GL114673   8.132   8.949   6.640 -0.0930  0.2902  0.1053
 1002loPI   GL214674   8.322   9.022   6.879  0.0167 -0.1000  0.0187
 1002loPI   C1A14675   7.803   9.059   6.960  0.2176  0.4781 -0.1634
 1002loPI   C2A14676   7.836   9.054   7.434  0.0733  0.0119  0.0296
 1002loPI   C3A14677   7.775   9.127   7.834  0.1739  0.0881  0.0142
 1002loPI   C4A14678   7.913   9.200   8.294  0.0432 -0.3878 -0.2215
 1002loPI   C5A14679   8.014   9.189   8.714 -0.0824 -0.1712  0.1422
 1002loPI   C6A14680   8.097   9.431   8.986  0.0481 -0.1200 -0.0305
 1002loPI   C1B14681   8.325   9.028   7.268  0.0508 -0.1530 -0.1710
 1002loPI   C2B14682   8.234   9.085   7.726  0.0194  0.2701  0.4232
 1002loPI   C3B14683   8.411   9.045   8.099  0.0781  0.2165 -0.2036
 1002loPI   C4B14684   8.410   8.919   8.585 -0.2155  0.2114  0.1232
 1003loPI    C114685  10.582  10.153   6.177 -0.1604 -0.2557  0.1376
 1003loPI    C214686  10.664  10.491   5.980  0.2635 -0.2766  0.2688
 1003loPI    C314687  10.295  10.426   6.120  0.1287  0.0405  0.0726
 1003loPI   PO414688  10.825  10.067   6.270  0.1153 -0.0173  0.5614
 1003loPI   GL114689  11.069   9.970   6.641  0.0972  0.1934  0.1362
 1003loPI   GL214690  11.165  10.251   6.608  0.0668  0.2996  0.0774
 1003loPI   C1A14691  11.130   9.642   6.962 -0.0922 -0.1913  0.0707
 1003loPI   C2A14692  11.155   9.655   7.396 -0.1256 -0.0166 -0.0035
 1003loPI   C3A14693  11.240   9.580   7.842 -0.0934 -0.0739 -0.1827
 1003loPI   C4A14694  11.207   9.668   8.286 -0.0824 -0.3446 -0.0255
 1003loPI   C5A14695  11.453   9.622   8.641  0.1945  0.0938  0.3493
 1003loPI   C6A14696  11.690   9.956   8.907  0.1448 -0.1984 -0.0391
 1003loPI   C1B14697  11.262  10.175   7.064  0.0916 -0.1628 -0.0975
 1003loPI   C2B14698  11.306  10.116   7.556  0.2679 -0.1433  0.0123
 1003loPI   C3B14699  11.368  10.074   8.042  0.1064  0.0067 -0.0107
 1003loPI   C4B14700  11.597  10.026   8.388  0.0520 -0.1370 -0.1883
 1004loPI    C114701   1.889  13.813   5.689 -0.0824 -0.0877 -0.0197
 1004loPI    C214702   1.678  14.149   5.740  0.0667  0.0048 -0.0044
 1004loPI    C314703   1.981  14.141   5.480  0.0046 -0.1458 -0.0734
 1004loPI   PO414704   1.859  13.676   6.008  0.1064  0.2543 -0.1034
 1004loPI   GL114705   1.855  13.652   6.455  0.0108 -0.0380  0.1553
 1004loPI   GL214706   2.051  13.680   6.685  0.1260  0.1650 -0.1920
 1004loPI   C1A14707   1.605  13.852   6.782  0.1561  0.1110 -0.0247
 1004loPI   C2A14708   1.366  13.887   7.106  0.2424 -0.3589  0.1061
 1004loPI   C3A14709   1.389  13.710   7.596  0.0612  0.0659 -0.0226
 1004loPI   C4A14710   1.441  13.779   8.017 -0.2815  0.1013  0.0363
 1004loPI   C5A14711   1.228  13.992   8.299  0.0112  0.2202  0.0576
 1004loPI   C6A14712   0.893  14.162   8.469  0.0067  0.3480 -0.3500
 1004loPI   C1B14713   1.979  13.854   7.068 -0.3136  0.1263  0.0133
 1004loPI   C2B14714   1.875  13.934   7.462  0.1249  0.2325 -0.1247
 1004loPI   C3B14715   1.848  13.985   7.833 -0.1724  0.1455  0.2060
 1004loPI   C4B14716   1.811  13.878   8.294  0.0140  0.0919 -0.2414
 1005loPI    C114717   1.317   8.491   5.930  0.0471 -0.0196 -0.2273
 1005loPI    C214718   1.024   8.233   5.843 -0.0880  0.0640 -0.0306
 1005loPI    C314719   1.134   8.509   5.575 -0.3306  0.1635 -0.0294
 1005loPI   PO414720   1.263   8.588   6.101 -0.1527 -0.0684 -0.0461
 1005loPI   GL114721   1.050   8.666   6.445  0.3715  0.0405  0.1479
 1005loPI   GL214722   1.323   8.975   6.418 -0.0358  0.1282 -0.1771
 1005loPI   C1A14723   1.051   8.628   6.943 -0.0559 -0.2369  0.0660
 1005loPI   C2A14724   1.266   8.710   7.326  0.1061  0.0148 -0.0001
 1005loPI   C3A14725   1.402   8.805   7.710 -0.0060  0.0841  0.1247
 1005loPI   C4A14726   1.683   8.949   8.037 -0.2828 -0.0727 -0.1218
 1005loPI   C5A14727   1.997   9.109   8.254 -0.0645  0.0839  0.2044
 1005loPI   C6A14728   2.349   9.292   8.421 -0.0415 -0.1305 -0.0930
 1005loPI   C1B14729   1.474   8.683   6.760 -0.2285 -0.0855  0.1005
 1005loPI   C2B14730   1.869   8.736   7.071 -0.0863  0.0960 -0.2179
 1005loPI   C3B14731   2.136   8.523   7.118 -0.2159 -0.3034 -0.3019
 1005loPI   C4B14732   2.131   8.137   6.840 -0.1515  0.1217 -0.1788
 1006loPI    C114733  17.159   1.309   5.707  0.1822 -0.3719  0.1514
 1006loPI    C214734  17.435   1.223   5.430  0.2124 -0.1619  0.1145
 1006loPI    C314735  17.090   1.020   5.438  0.0645  0.0638 -0.3005
 1006loPI   PO414736  17.239   1.374   5.926 -0.3885  0.3033 -0.1113
 1006loPI   GL114737  17.364   1.402   6.311 -0.1012  0.0093  0.1161
 1006loPI   GL214738  17.508   1.066   6.343  0.0058 -0.0278  0.0169
 1006loPI   C1A14739  17.527   1.435   6.783 -0.0940 -0.1608  0.2790
 1006loPI   C2A14740  17.581   1.422   7.273  0.2047  0.1741 -0.0465
 1006loPI   C3A14741  17.556   1.351   7.659  0.1017  0.0089  0.2067
 1006loPI   C4A14742  17.589   1.363   8.059  0.0019 -0.2355 -0.2819
 1006loPI   C5A14743  17.559   1.499   8.394  0.1294  0.0586 -0.1894
 1006loPI   C6A14744  17.442   1.932   8.583 -0.0146  0.0877  0.0015
 1006loPI   C1B14745  17.478   0.964   6.846 -0.2743 -0.1226  0.3262
 1006loPI   C2B14746  17.488   0.837   7.265  0.0520 -0.0239 -0.1866
 1006loPI   C3B14747  17.523   0.835   7.706 -0.1163 -0.3491  0.3050
 1006loPI   C4B14748  17.513   0.862   8.107 -0.0512  0.1639 -0.0908
 1007loPI    C114749  12.490   5.887   5.915  0.1434 -0.1679  0.0480
 1007loPI    C214750  12.776   5.758   5.667 -0.0889 -0.1020 -0.2607
 1007loPI    C314751  12.391   5.713   5.569 -0.1914 -0.3070  0.2097
 1007loPI   PO414752  12.606   5.911   6.143 -0.1538  0.3883  0.0461
 1007loPI   GL114753  12.811   6.019   6.491 -0.1223 -0.0822 -0.4677
 1007loPI   GL214754  12.720   5.734   6.663 -0.1632  0.2522 -0.0603
 1007loPI   C1A14755  12.995   6.005   6.936 -0.0116  0.1477 -0.0147
 1007loPI   C2A14756  12.959   6.052   7.278 -0.2333 -0.1130  0.0055
 1007loPI   C3A14757  12.949   5.986   7.692 -0.2946 -0.1376  0.3081
 1007loPI   C4A14758  13.110   5.898   8.177 -0.6063  0.1683  0.2614
 1007loPI   C5A14759  13.143   5.883   8.676  0.1559  0.0883 -0.0326
 1007loPI   C6A14760  13.301   5.562   8.990 -0.0195 -0.3031 -0.1575
 1007loPI   C1B14761  12.558   5.787   7.138 -0.0034  0.0359 -0.0232
 1007loPI   C2B14762  12.598   5.726   7.525  0.2653  0.3854 -0.0311
 1007loPI   C3B14763  12.594   5.800   7.983 -0.0080 -0.0346  0.0822
 1007loPI   C4B14764  12.597   5.770   8.456  0.0389  0.3456  0.2999
 1008loPI    C114765  14.565  13.866   5.747  0.2827 -0.1201  0.0835
 1008loPI    C214766  14.784  13.969   5.429 -0.0496  0.1118 -0.0761
 1008loPI    C314767  14.437  13.776   5.379 -0.0348  0.0223  0.1556
 1008loPI   PO414768  14.743  13.772   5.867 -0.1219  0.2001 -0.1338
 1008loPI   GL114769  14.991  13.723   6.280  0.1146  0.0855 -0.2028
 1008loPI   GL214770  15.127  13.468   6.408  0.1305 -0.2114  0.3563
 1008loPI   C1A14771  15.249  13.901   6.648 -0.2875  0.0009 -0.1579
 1008loPI   C2A14772  15.341  13.877   6.995 -0.2203 -0.1633 -0.1893
 1008loPI   C3A14773  15.371  13.847   7.411 -0.2650 -0.0048  0.0886
 1008loPI   C4A14774  15.460  13.920   7.834 -0.0808 -0.1390 -0.2734
 1008loPI   C5A14775  15.377  13.976   8.280  0.1545 -0.0136 -0.0129
 1008loPI   C6A14776  15.207  14.032   8.763  0.0371 -0.1972  0.1136
 1008loPI   C1B14777  15.342  13.252   6.694  0.1194 -0.3501  0.2187
 1008loPI   C2B14778  15.370  13.310   7.094 -0.3396  0.1037  0.1627
 1008loPI   C3B14779  15.344  13.248   7.632  0.0962  0.0464  0.2167
 1008loPI   C4B14780  15.361  13.381   8.045  0.1939  0.0311 -0.3127
 1009loPI    C114781   4.093  11.598   6.319  0.1688 -0.3154 -0.1065
 1009loPI    C214782   4.247  11.597   5.949  0.1617  0.2347 -0.1193
 1009loPI    C314783   3.852  11.637   6.001  0.1846  0.3737 -0.0482
 1009loPI   PO414784   4.249  11.470   6.471  0.1820 -0.0333  0.1541
 1009loPI   GL114785   4.287  11.441   6.918  0.1425 -0.1013  0.0901
 1009loPI   GL214786   4.092  11.683   7.062  0.0402 -0.0542  0.2886
 1009loPI   C1A14787   4.102  11.252   7.305  0.0816  0.1203 -0.1283
 1009loPI   C2A14788   4.128  11.320   7.715 -0.0895 -0.0542  0.0962
 1009loPI   C3A14789   3.972  11.225   8.162 -0.4027 -0.4790 -0.1256
 1009loPI   C4A14790   3.641  11.157   8.488 -0.4978 -0.0438  0.1034
 1009loPI   C5A14791   3.533  11.520   8.704 -0.0847  0.1507 -0.1206
 1009loPI   C6A14792   3.367  11.604   9.140  0.2131 -0.0639 -0.1706
 1009loPI   C1B14793   3.854  11.664   7.415  0.1207 -0.1647  0.0695
 1009loPI   C2B14794   3.651  11.718   7.833  0.0785  0.1259  0.1854
 1009loPI   C3B14795   3.728  11.688   8.294  0.1830 -0.2541 -0.0518
 1009loPI   C4B14796   3.994  11.679   8.575  0.0713  0.1099  0.0051
 1010loPI    C114797  11.239  12.501   5.958  0.3061  0.0523  0.1745
 1010loPI    C214798  11.391  12.381   5.608  0.0397 -0.0475  0.0906
 1010loPI    C314799  11.584  12.655   5.826  0.1318  0.1282 -0.2055
 1010loPI   PO414800  11.192  12.345   6.130  0.1181 -0.2332  0.0810
 1010loPI   GL114801  11.388  12.223   6.487  0.1198  0.0440  0.0826
 1010loPI   GL214802  11.062  12.180   6.720 -0.0919  0.1281  0.0760
 1010loPI   C1A14803  11.456  12.348   6.894 -0.0528 -0.3079  0.5678
 1010loPI   C2A14804  11.456  12.312   7.379 -0.0111 -0.1115  0.2598
 1010loPI   C3A14805  11.593  12.217   7.796  0.0781 -0.2561  0.3218
 1010loPI   C4A14806  11.609  12.158   8.205 -0.0578  0.1074 -0.2088
 1010loPI   C5A14807  11.791  11.977   8.557 -0.0427 -0.4656  0.3648
 1010loPI   C6A14808  12.137  11.666   8.739  0.0725 -0.0908 -0.1871
 1010loPI   C1B14809  11.096  12.050   7.071  0.0732  0.0434  0.0986
 1010loPI   C2B14810  11.107  12.077   7.531  0.0442  0.1621 -0.3534
 1010loPI   C3B14811  11.169  11.994   7.952 -0.0277  0.0882  0.0126
 1010loPI   C4B14812  11.141  11.891   8.377 -0.2324 -0.2704 -0.2891
 1011loPI    C114813   0.534  12.116   5.813  0.1381  0.3126  0.3187
 1011loPI    C214814   0.919  12.213   5.763  0.2192 -0.1900 -0.1333
 1011loPI    C314815   0.820  11.845   5.884 -0.1235 -0.0673 -0.0297
 1011loPI   PO414816   0.370  12.279   5.970  0.0729 -0.3881  0.0592
 1011loPI   GL114817   0.395  12.383   6.386 -0.2105  0.0887  0.0226
 1011loPI   GL214818   0.442  12.722   6.642  0.3032  0.0183  0.1588
 1011loPI   C1A14819   0.302  12.229   6.867  0.0710  0.2209  0.1792
 1011loPI   C2A14820   0.319  12.336   7.303  0.1427  0.3974  0.0642
 1011loPI   C3A14821   0.299  12.384   7.745 -0.0477  0.3860  0.3457
 1011loPI   C4A14822   0.221  12.297   8.191 -0.0079  0.1310 -0.2131
 1011loPI   C5A14823  -0.071  12.242   8.515  0.2627 -0.2022  0.1120
 1011loPI   C6A14824  -0.449  12.126   8.593  0.0995  0.0796 -0.3826
 1011loPI   C1B14825   0.374  12.832   7.052  0.3721 -0.1390  0.0588
 1011loPI   C2B14826   0.409  12.803   7.486 -0.1163 -0.0242 -0.0841
 1011loPI   C3B14827   0.377  12.795   8.014  0.0951  0.0911  0.0745
 1011loPI   C4B14828   0.163  12.799   8.442 -0.0184  0.2366 -0.0773
 1012loPI    C114829   7.922   8.522   6.166 -0.0312  0.2345  0.1678
 1012loPI    C214830   8.134   8.847   6.069  0.1764  0.0450 -0.0292
 1012loPI    C314831   8.038   8.580   5.787 -0.0494 -0.0336  0.1187
 1012loPI   PO414832   7.956   8.538   6.416 -0.0712  0.3004  0.0422
 1012loPI   GL114833   7.748   8.469   6.781 -0.0914 -0.1333  0.1344
 1012loPI   GL214834   7.578   8.218   6.816 -0.3011  0.2391  0.0502
 1012loPI   C1A14835   7.657   8.574   7.198  0.0663  0.1422 -0.1399
 1012loPI   C2A14836   7.688   8.621   7.681  0.1027  0.0935 -0.2239
 1012loPI   C3A14837   7.625   8.709   8.129  0.0016 -0.2058 -0.4084
 1012loPI   C4A14838   7.645   8.806   8.541 -0.0964 -0.0900  0.0863
 1012loPI   C5A14839   8.018   8.700   8.882 -0.2434 -0.1179  0.1424
 1012loPI   C6A14840   8.357   8.808   9.122  0.4812  0.0234 -0.0507
 1012loPI   C1B14841   7.923   8.154   7.196  0.0814  0.0656 -0.1222
 1012loPI   C2B14842   7.873   8.186   7.646  0.1575 -0.0540 -0.2551
 1012loPI   C3B14843   7.840   8.196   8.171 -0.0607 -0.0218 -0.1104
 1012loPI   C4B14844   7.786   8.310   8.598  0.2272  0.2217 -0.1015
 1013loPI    C114845  15.039  10.849   5.832  0.0463 -0.0524 -0.0475
 1013loPI    C214846  15.200  11.211   5.889  0.0589 -0.0618 -0.0225
 1013loPI    C314847  15.306  10.993   5.572 -0.0178 -0.0054 -0.0874
 1013loPI   PO414848  15.115  10.680   6.128  0.1301  0.3987  0.2872
 1013loPI   GL114849  15.130  10.801   6.493  0.0434  0.2152 -0.1642
 1013loPI   GL214850  15.235  11.087   6.469  0.2250  0.0353  0.1927
 1013loPI   C1A14851  15.324  10.759   6.849 -0.0613  0.0202  0.0177
 1013loPI   C2A14852  15.319  10.776   7.252  0.1566 -0.2274 -0.1210
 1013loPI   C3A14853  15.506  10.774   7.603  0.0206  0.2773 -0.1950
 1013loPI   C4A14854  15.474  11.000   7.996  0.1649 -0.0091  0.2007
 1013loPI   C5A14855  15.541  11.037   8.412  0.2419  0.1670  0.1046
 1013loPI   C6A14856  15.334  10.864   8.724  0.0959  0.1209 -0.1468
 1013loPI   C1B14857  15.000  11.252   6.804 -0.2086  0.1438  0.0334
 1013loPI   C2B14858  15.020  11.203   7.288  0.0002 -0.2175  0.0198
 1013loPI   C3B14859  15.188  11.164   7.647  0.0840 -0.1200 -0.4917
 1013loPI   C4B14860  15.028  11.245   8.132  0.0077  0.2330  0.1291
 1014loPI    C114861   5.927  10.106   6.124 -0.1016 -0.2424 -0.0080
 1014loPI    C214862   5.617  10.256   5.921  0.0347  0.3702  0.2167
 1014loPI    C314863   5.964  10.189   5.734 -0.1002  0.0883  0.0602
 1014loPI   PO414864   5.975  10.204   6.326  0.2091 -0.0471  0.2523
 1014loPI   GL114865   5.761  10.199   6.714 -0.1292 -0.2731 -0.2291
 1014loPI   GL214866   5.661   9.861   6.819 -0.4719  0.0809  0.0389
 1014loPI   C1A14867   5.880  10.356   7.090  0.2112 -0.2754  0.1391
 1014loPI   C2A14868   5.986  10.408   7.540  0.3679 -0.2499  0.0924
 1014loPI   C3A14869   5.969  10.350   7.982 -0.1131  0.1145  0.4065
 1014loPI   C4A14870   5.983  10.352   8.362  0.0286  0.2746  0.2171
 1014loPI   C5A14871   5.948  10.440   8.779 -0.4078 -0.1865  0.2542
 1014loPI   C6A14872   5.940  10.729   9.143 -0.1769  0.0109  0.0576
 1014loPI   C1B14873   5.723   9.920   7.275 -0.1646 -0.4949 -0.0030
 1014loPI   C2B14874   5.737   9.924   7.700 -0.0881 -0.0213  0.0741
 1014loPI   C3B14875   5.691   9.937   8.113 -0.0796 -0.0684 -0.3684
 1014loPI   C4B14876   5.729   9.940   8.573 -0.1486  0.0505  0.0818
 1015loPI    C114877  12.694  12.258   5.840  0.0904  0.2263 -0.0263
 1015loPI    C214878  12.322  12.277   5.985  0.0556 -0.0795 -0.0683
 1015loPI    C314879  12.382  12.208   5.596  0.1565 -0.0402 -0.0601
 1015loPI   PO414880  12.796  12.181   6.007 -0.3318 -0.1502  0.1583
 1015loPI   GL114881  12.745  12.140   6.376  0.1072 -0.3719  0.0285
 1015loPI   GL214882  12.751  11.794   6.565  0.3332  0.1571 -0.1547
 1015loPI   C1A14883  12.825  12.367   6.673  0.1908 -0.2676  0.1692
 1015loPI   C2A14884  12.848  12.415   7.117  0.2705 -0.0884 -0.1227
 1015loPI   C3A14885  12.938  12.415   7.516 -0.1932 -0.0364 -0.0701
 1015loPI   C4A14886  12.849  12.343   7.891 -0.0497 -0.0083 -0.1087
 1015loPI   C5A14887  12.747  12.305   8.323  0.0097 -0.1327  0.0957
 1015loPI   C6A14888  12.484  12.144   8.722 -0.2865  0.0097 -0.1737
 1015loPI   C1B14889  12.804  11.823   7.054 -0.4345  0.0086  0.0502
 1015loPI   C2B14890  12.938  11.843   7.471 -0.0800 -0.1856  0.0645
 1015loPI   C3B14891  12.875  11.831   7.936 -0.5146 -0.0752 -0.2026
 1015loPI   C4B14892  13.004  11.887   8.436 -0.2270  0.0953  0.1495
 1016loPI    C114893  14.515  14.683   6.052  0.1611  0.1918 -0.4162
 1016loPI    C214894  14.270  14.917   6.265  0.1940 -0.3460  0.2500
 1016loPI    C314895  14.122  14.681   5.978  0.0643 -0.0466  0.0646
 1016loPI   PO414896  14.826  14.706   6.214 -0.5191  0.0047  0.1553
 1016loPI   GL114897  15.058  14.904   6.455  0.3575 -0.3638 -0.0376
 1016loPI   GL214898  14.765  15.035   6.567  0.1931 -0.0426 -0.0933
 1016loPI   C1A14899  15.282  14.929   6.813 -0.1403 -0.5297  0.0869
 1016loPI   C2A14900  15.583  14.938   7.158 -0.0656 -0.0737 -0.1871
 1016loPI   C3A14901  15.525  14.921   7.492  0.1055 -0.1216 -0.0774
 1016loPI   C4A14902  15.637  14.889   7.964 -0.0665 -0.0969 -0.2354
 1016loPI   C5A14903  15.633  14.923   8.381  0.0976  0.1964  0.1618
 1016loPI   C6A14904  15.362  14.901   8.725  0.3149 -0.3478 -0.3634
 1016loPI   C1B14905  14.778  15.078   7.032  0.2180  0.1883 -0.2727
 1016loPI   C2B14906  14.772  15.114   7.515  0.0292  0.1355 -0.0042
 1016loPI   C3B14907  14.739  14.999   7.828 -0.3433  0.1636 -0.1975
 1016loPI   C4B14908  14.421  14.903   8.172 -0.1610 -0.1826  0.2002
 1017loPI    C114909   0.344   1.698   5.668 -0.0193  0.1395 -0.0837
 1017loPI    C214910   0.421   1.953   5.369  0.0624 -0.1203 -0.2885
 1017loPI    C314911   0.098   1.718   5.354  0.1813 -0.2868 -0.2773
 1017loPI   PO414912   0.531   1.788   5.841  0.1274  0.0031 -0.2208
 1017loPI   GL114913   0.491   1.761   6.218 -0.3216 -0.0616 -0.1492
 1017loPI   GL214914   0.613   1.555   6.404 -0.2113  0.2860  0.0011
 1017loPI   C1A14915   0.270   1.945   6.534  0.0184 -0.0280  0.0567
 1017loPI   C2A14916   0.306   1.911   7.005 -0.0077  0.1100 -0.0060
 1017loPI   C3A14917   0.347   1.934   7.465  0.1313  0.1949  0.2017
 1017loPI   C4A14918   0.321   1.835   7.905 -0.2531  0.3198  0.2502
 1017loPI   C5A14919   0.577   1.931   8.300 -0.0981  0.1793 -0.0625
 1017loPI   C6A14920   0.817   1.648   8.447  0.1400 -0.0753  0.0475
 1017loPI   C1B14921   0.731   1.724   6.767  0.1759 -0.4538 -0.0815
 1017loPI   C2B14922   0.739   1.713   7.254  0.1891 -0.0036  0.0497
 1017loPI   C3B14923   0.742   1.626   7.591 -0.0888  0.1052  0.1212
 1017loPI   C4B14924   0.770   1.586   7.987  0.2067  0.0352  0.0519
 1018loPI    C114925  16.795   4.695   5.775 -0.0085  0.1729  0.2978
 1018loPI    C214926  16.917   4.925   5.472  0.1056 -0.1438  0.0979
 1018loPI    C314927  16.576   4.719   5.440  0.1542 -0.2335  0.1559
 1018loPI   PO414928  16.863   4.760   5.989  0.2596 -0.0880 -0.1858
 1018loPI   GL114929  17.074   4.670   6.388  0.1532  0.1795 -0.0776
 1018loPI   GL214930  17.128   4.992   6.330 -0.1894  0.0655 -0.1182
 1018loPI   C1A14931  16.866   4.751   6.815  0.0618 -0.0184  0.0503
 1018loPI   C2A14932  16.939   4.775   7.296 -0.0896 -0.2230 -0.0466
 1018loPI   C3A14933  16.951   4.639   7.697 -0.2073  0.1244 -0.2128
 1018loPI   C4A14934  17.014   4.662   8.132 -0.1310  0.0460 -0.0729
 1018loPI   C5A14935  16.911   4.470   8.471 -0.2146 -0.1236 -0.2301
 1018loPI   C6A14936  16.645   4.219   8.752 -0.1108  0.0627 -0.1484
 1018loPI   C1B14937  17.327   5.005   6.793 -0.2643 -0.2333 -0.1137
 1018loPI   C2B14938  17.390   5.000   7.210  0.2815 -0.0118  0.0709
 1018loPI   C3B14939  17.384   4.887   7.513 -0.1282  0.1427 -0.0789
 1018loPI   C4B14940  17.444   4.901   7.895 -0.1469  0.0426  0.2429
 1019loPI    C114941   1.155   3.645   5.560 -0.3026  0.0330 -0.1159
 1019loPI    C214942   1.023   3.283   5.452 -0.1315 -0.0629 -0.0094
 1019loPI    C314943   0.937   3.603   5.227 -0.0668 -0.2078 -0.2441
 1019loPI   PO414944   1.063   3.619   5.850  0.0622 -0.0699 -0.1236
 1019loPI   GL114945   1.078   3.797   6.196  0.3256  0.0662 -0.0246
 1019loPI   GL214946   1.267   3.569   6.292 -0.1021  0.1221 -0.1957
 1019loPI   C1A14947   0.868   3.805   6.521 -0.3277  0.2461 -0.0206
 1019loPI   C2A14948   0.890   3.946   6.876 -0.0885  0.1125 -0.1489
 1019loPI   C3A14949   0.980   3.826   7.274  0.0242 -0.0495  0.1087
 1019loPI   C4A14950   1.024   3.786   7.730  0.1612 -0.2551 -0.5011
 1019loPI   C5A14951   1.055   3.755   8.083 -0.4567  0.0460 -0.2261
 1019loPI   C6A14952   1.139   3.571   8.506 -0.1492  0.0278 -0.1809
 1019loPI   C1B14953   1.336   3.897   6.602 -0.1543 -0.0271  0.0584
 1019loPI   C2B14954   1.413   3.991   7.050 -0.1403 -0.2532 -0.0864
 1019loPI   C3B14955   1.468   4.000   7.525 -0.3448 -0.0339  0.2022
 1019loPI   C4B14956   1.485   4.001   8.016 -0.3158 -0.0065 -0.1258
 1020loPI    C114957   7.771   3.365   6.299 -0.1522  0.1957 -0.1617
 1020loPI    C214958   7.662   3.088   6.032  0.1990 -0.0036 -0.1042
 1020loPI    C314959   7.715   3.468   5.917 -0.4312  0.0793 -0.1545
 1020loPI   PO414960   7.698   3.212   6.513  0.0496 -0.1558  0.2147
 1020loPI   GL114961   7.559   3.321   6.886 -0.1185 -0.2393  0.1440
 1020loPI   GL214962   7.377   3.597   6.994 -0.0161  0.6667 -0.0052
 1020loPI   C1A14963   7.526   3.190   7.294  0.2178  0.0785  0.1009
 1020loPI   C2A14964   7.658   3.065   7.761 -0.0414  0.2456  0.2040
 1020loPI   C3A14965   7.617   3.143   8.199 -0.0196  0.0065  0.0748
 1020loPI   C4A14966   7.484   3.212   8.532 -0.1547 -0.1289 -0.1025
 1020loPI   C5A14967   7.440   3.314   8.949 -0.0609  0.1860 -0.0378
 1020loPI   C6A14968   7.625   3.589   9.150 -0.1965 -0.5537 -0.2349
 1020loPI   C1B14969   7.238   3.639   7.407  0.1876 -0.1971  0.3958
 1020loPI   C2B14970   7.266   3.656   7.827 -0.1258 -0.1637  0.0427
 1020loPI   C3B14971   7.238   3.638   8.236  0.1141  0.1658 -0.1318
 1020loPI   C4B14972   7.292   3.673   8.684 -0.3465 -0.0324 -0.0848
 1021loPI    C114973  15.540   9.798   5.735 -0.2965 -0.0370 -0.3272
 1021loPI    C214974  15.778   9.490   5.645  0.0209  0.1028  0.0054
 1021loPI    C314975  15.829   9.842   5.462 -0.0302  0.0915 -0.0310
 1021loPI   PO414976  15.587   9.841   5.994  0.0463  0.2328 -0.1894
 1021loPI   GL114977  15.540   9.978   6.319 -0.3132  0.1342 -0.1054
 1021loPI   GL214978  15.907  10.009   6.335 -0.0727  0.1418 -0.0346
 1021loPI   C1A14979  15.356   9.913   6.731 -0.0164 -0.1978  0.0693
 1021loPI   C2A14980  15.326   9.803   7.135  0.0630 -0.2719  0.1940
 1021loPI   C3A14981  15.420   9.831   7.618  0.0459 -0.2193  0.1507
 1021loPI   C4A14982  15.560   9.940   7.918 -0.1694  0.1549 -0.0693
 1021loPI   C5A14983  15.731   9.919   8.235  0.1395  0.0048 -0.1782
 1021loPI   C6A14984  15.706   9.919   8.695 -0.0843 -0.2007  0.0380
 1021loPI   C1B14985  15.913   9.871   6.682  0.0065 -0.1544 -0.1154
 1021loPI   C2B14986  15.790   9.891   7.090  0.0975  0.2520  0.1495
 1021loPI   C3B14987  15.894   9.980   7.464 -0.0397  0.3069  0.0554
 1021loPI   C4B14988  15.949  10.166   7.826  0.0629 -0.0270 -0.1004
 1022loPI    C114989  14.029  13.431   5.959  0.3264  0.2972  0.1171
 1022loPI    C214990  14.044  13.800   5.806 -0.3138  0.3149  0.0708
 1022loPI    C314991  14.004  13.485   5.563  0.0430  0.2247  0.1232
 1022loPI   PO414992  13.885  13.467   6.166  0.2279  0.0443  0.0279
 1022loPI   GL114993  13.977  13.360   6.504 -0.1031  0.3795  0.2177
 1022loPI   GL214994  14.044  13.703   6.586  0.2163 -0.1838  0.1445
 1022loPI   C1A14995  13.992  13.204   6.934 -0.2053  0.1846 -0.2612
 1022loPI   C2A14996  13.981  13.355   7.333  0.0014  0.0186 -0.1220
 1022loPI   C3A14997  14.066  13.339   7.694  0.1703 -0.0696 -0.1948
 1022loPI   C4A14998  13.859  13.271   8.072 -0.2809 -0.2351  0.1159
 1022loPI   C5A14999  13.888  13.296   8.476  0.1384  0.0360 -0.2118
 1022loPI   C6A15000  14.289  13.256   8.664  0.0485 -0.0224 -0.0737
 1022loPI   C1B15001  14.186  13.759   6.977  0.1926  0.2083  0.0961
 1022loPI   C2B15002  14.138  13.859   7.462  0.3019 -0.1764 -0.1660
 1022loPI   C3B15003  14.090  13.788   7.874  0.3903  0.0306  0.3621
 1022loPI   C4B15004  14.043  13.714   8.247  0.2832  0.2425 -0.0235
 1023loPI    C115005   5.665  17.226   6.272  0.1825  0.1820  0.1425
 1023loPI    C215006   5.481  17.522   6.075 -0.0178 -0.1688 -0.2114
 1023loPI    C315007   5.838  17.391   5.952  0.0345 -0.1296 -0.1032
 1023loPI   PO415008   5.542  17.291   6.596  0.0569  0.1843 -0.0113
 1023loPI   GL115009   5.410  17.492   6.911 -0.1149 -0.1013  0.2454
 1023loPI   GL215010   5.728  17.614   7.048 -0.0064 -0.1564  0.1902
 1023loPI   C1A15011   5.417  17.204   7.221 -0.0378 -0.1012 -0.1080
 1023loPI   C2A15012   5.296  17.095   7.707 -0.1858 -0.1352  0.0023
 1023loPI   C3A15013   5.208  17.106   8.123 -0.3042 -0.0665 -0.1218
 1023loPI   C4A15014   5.199  17.354   8.409 -0.0277 -0.1001 -0.1798
 1023loPI   C5A15015   4.937  17.176   8.709 -0.2183  0.1757  0.0646
 1023loPI   C6A15016   4.998  17.196   9.209 -0.2256  0.3577  0.2076
 1023loPI   C1B15017   5.606  17.585   7.493 -0.1876 -0.0638  0.2773
 1023loPI   C2B15018   5.513  17.564   7.859 -0.0488 -0.0366 -0.1086
 1023loPI   C3B15019   5.540  17.781   8.215  0.0957  0.1250  0.1637
 1023loPI   C4B15020   5.445  17.740   8.683 -0.2658  0.1414 -0.0105
 1024loPI    C115021  15.342  17.195   6.063  0.1555  0.1414 -0.0257
 1024loPI    C215022  15.521  17.519   5.910  0.1049  0.0790 -0.2194
 1024loPI    C315023  15.122  17.504   5.935  0.1140  0.1028 -0.0474
 1024loPI   PO415024  15.506  17.123   6.409  0.1485  0.0912  0.1005
 1024loPI   GL115025  15.512  16.949   6.899 -0.2016 -0.0864 -0.1367
 1024loPI   GL215026  15.688  16.654   6.738 -0.0969  0.0199 -0.0244
 1024loPI   C1A15027  15.448  16.779   7.298  0.0582  0.0930 -0.1687
 1024loPI   C2A15028  15.349  16.762   7.700 -0.0451 -0.3295 -0.0154
 1024loPI   C3A15029  15.275  16.766   8.182 -0.2905  0.0288 -0.0537
 1024loPI   C4A15030  15.405  16.975   8.605 -0.0590 -0.0784  0.0162
 1024loPI   C5A15031  15.741  17.312   8.760 -0.2049  0.0147  0.1144
 1024loPI   C6A15032  16.197  17.488   8.728 -0.0754 -0.2133  0.2315
 1024loPI   C1B15033  15.903  16.532   7.144  0.1286 -0.1227 -0.0061
 1024loPI   C2B15034  15.732  16.463   7.536 -0.0678  0.0445  0.0325
 1024loPI   C3B15035  15.647  16.502   7.937 -0.1813  0.1130 -0.1589
 1024loPI   C4B15036  15.765  16.589   8.345  0.2539  0.0654 -0.2728
 1025loPI    C115037   2.586   2.809   5.915  0.1420  0.0244  0.0158
 1025loPI    C215038   2.329   3.112   5.870  0.1598  0.0188 -0.1299
 1025loPI    C315039   2.488   2.935   5.548  0.0931 -0.1938 -0.0481
 1025loPI   PO415040   2.521   2.715   6.129  0.3578  0.2066 -0.0306
 1025loPI   GL115041   2.537   2.565   6.526 -0.2253  0.1768 -0.0543
 1025loPI   GL215042   2.199   2.643   6.687 -0.1603 -0.4388 -0.1494
 1025loPI   C1A15043   2.717   2.633   6.905 -0.1685 -0.4454 -0.0785
 1025loPI   C2A15044   2.907   2.597   7.328 -0.0456  0.0416 -0.1800
 1025loPI   C3A15045   3.021   2.718   7.758 -0.1443  0.2649 -0.1526
 1025loPI   C4A15046   3.164   2.609   8.086  0.0041  0.0709  0.0802
 1025loPI   C5A15047   3.305   2.499   8.527  0.0524 -0.1108 -0.1201
 1025loPI   C6A15048   3.620   2.496   8.863 -0.1696 -0.0951 -0.0816
 1025loPI   C1B15049   2.119   3.007   6.975  0.0554 -0.0601 -0.0674
 1025loPI   C2B15050   2.250   3.360   7.313  0.0984  0.0119  0.0944
 1025loPI   C3B15051   2.463   3.510   7.665 -0.3846  0.2003 -0.1341
 1025loPI   C4B15052   2.464   3.637   8.083 -0.1628 -0.1601  0.0411
 1026loPI    C115053  13.715   7.999   5.764  0.0389 -0.1717  0.0935
 1026loPI    C215054  13.855   8.321   5.572  0.0879 -0.1357  0.1890
 1026loPI    C315055  13.524   8.139   5.442 -0.0995  0.1216  0.2977
 1026loPI   PO415056  13.671   8.096   5.974  0.0020  0.1904  0.1175
 1026loPI   GL115057  13.577   8.140   6.289  0.0410 -0.0906  0.2311
 1026loPI   GL215058  13.739   8.432   6.416 -0.0354  0.1023  0.1462
 1026loPI   C1A15059  13.402   8.071   6.700  0.2772 -0.0057  0.0784
 1026loPI   C2A15060  13.219   7.977   7.124 -0.3055 -0.3219 -0.2744
 1026loPI   C3A15061  13.315   8.033   7.542 -0.3826 -0.0733 -0.1600
 1026loPI   C4A15062  13.289   7.955   7.986  0.0210 -0.0078  0.5083
 1026loPI   C5A15063  13.451   8.015   8.370  0.0821  0.0913 -0.0353
 1026loPI   C6A15064  13.173   8.274   8.643  0.0839  0.0283 -0.0001
 1026loPI   C1B15065  13.734   8.331   6.896  0.2114 -0.1634  0.0842
 1026loPI   C2B15066  13.631   8.310   7.285 -0.3159  0.2141  0.0244
 1026loPI   C3B15067  13.759   8.223   7.645  0.2213  0.0555 -0.1678
 1026loPI   C4B15068  13.802   8.166   8.077 -0.0390 -0.0590 -0.1132
 1027loPI    C115069   1.384  11.763   5.905 -0.4715 -0.0448  0.2687
 1027loPI    C215070   1.372  12.051   5.628  0.2563 -0.1117  0.1481
 1027loPI    C315071   1.225  11.688   5.546  0.0033  0.0126  0.0394
 1027loPI   PO415072   1.256  11.809   6.112 -0.0172  0.0779  0.1181
 1027loPI   GL115073   1.143  11.742   6.528 -0.1677 -0.0865  0.2613
 1027loPI   GL215074   1.362  11.505   6.522 -0.0815 -0.1488  0.0194
 1027loPI   C1A15075   0.896  11.423   6.825  0.0339  0.1958  0.0120
 1027loPI   C2A15076   0.711  11.380   7.213  0.1152  0.1474 -0.1005
 1027loPI   C3A15077   0.698  11.437   7.610 -0.1271  0.1731  0.5548
 1027loPI   C4A15078   0.488  11.475   7.971 -0.2084  0.4156  0.0237
 1027loPI   C5A15079   0.338  11.458   8.281  0.0768  0.2431  0.2336
 1027loPI   C6A15080  -0.002  11.370   8.558  0.2090 -0.0561 -0.1777
 1027loPI   C1B15081   1.308  11.568   7.003 -0.2082  0.2288  0.1574
 1027loPI   C2B15082   1.206  11.589   7.375 -0.0713  0.1960 -0.1077
 1027loPI   C3B15083   1.126  11.621   7.890  0.0881  0.0072 -0.2153
 1027loPI   C4B15084   0.899  11.452   8.249  0.0080  0.2550  0.0903
 1028loPI    C115085   4.694  14.560   6.419  0.1387 -0.1268  0.2328
 1028loPI    C215086   4.553  14.656   6.057 -0.0458 -0.0764  0.3169
 1028loPI    C315087   4.831  14.886   6.231  0.0601 -0.1136  0.1981
 1028loPI   PO415088   4.477  14.511   6.515 -0.4654  0.0517  0.0619
 1028loPI   GL115089   4.421  14.650   6.882  0.0048  0.2909  0.0868
 1028loPI   GL215090   4.146  14.512   6.955  0.0467 -0.4024  0.4594
 1028loPI   C1A15091   4.645  14.819   7.166 -0.1098  0.0110 -0.0152
 1028loPI   C2A15092   4.653  14.912   7.582  0.3783 -0.1074 -0.0506
 1028loPI   C3A15093   4.767  14.920   7.963 -0.1473  0.1683  0.0300
 1028loPI   C4A15094   4.880  14.959   8.403 -0.1412 -0.1492  0.3112
 1028loPI   C5A15095   4.767  15.285   8.731  0.2888 -0.0034 -0.0205
 1028loPI   C6A15096   4.906  15.720   8.693  0.0724  0.1314 -0.4057
 1028loPI   C1B15097   4.168  14.713   7.329 -0.0436  0.3166  0.0261
 1028loPI   C2B15098   4.129  14.876   7.770 -0.0096  0.1182  0.0821
 1028loPI   C3B15099   3.968  14.839   8.252 -0.0847  0.0902 -0.2087
 1028loPI   C4B15100   3.749  14.892   8.647 -0.5925 -0.2325  0.1645
 1029loPI    C115101  16.710   5.963   5.689 -0.0706  0.0459 -0.0803
 1029loPI    C215102  16.930   6.192   5.446 -0.0786  0.0983 -0.0384
 1029loPI    C315103  16.703   5.900   5.294  0.0420  0.0252 -0.0794
 1029loPI   PO415104  16.630   6.154   5.857 -0.0371 -0.2405 -0.2651
 1029loPI   GL115105  16.517   6.203   6.288 -0.0178  0.0281  0.0840
 1029loPI   GL215106  16.770   5.973   6.284  0.2434 -0.1608 -0.0229
 1029loPI   C1A15107  16.577   6.086   6.764 -0.2137 -0.2005  0.0883
 1029loPI   C2A15108  16.563   6.049   7.209  0.2071  0.2371 -0.1122
 1029loPI   C3A15109  16.569   6.005   7.634 -0.2566  0.0514 -0.3079
 1029loPI   C4A15110  16.602   5.827   8.058 -0.2411  0.0137 -0.1195
 1029loPI   C5A15111  16.236   5.760   8.381 -0.0824 -0.1318  0.2212
 1029loPI   C6A15112  15.994   5.834   8.724 -0.0870  0.3295  0.1187
 1029loPI   C1B15113  16.564   5.632   6.476  0.0159  0.2882  0.3444
 1029loPI   C2B15114  16.553   5.518   6.936 -0.0516  0.0789 -0.0243
 1029loPI   C3B15115  16.478   5.599   7.381 -0.0211 -0.1894 -0.1289
 1029loPI   C4B15116  16.510   5.422   7.844 -0.0866 -0.0860  0.0494
 1030loPI    C115117  14.583  10.840   5.998 -0.0740 -0.1138  0.0386
 1030loPI    C215118  14.803  11.086   6.225  0.1101 -0.2601  0.0210
 1030loPI    C315119  14.668  11.209   5.869  0.1192 -0.1516  0.0549
 1030loPI   PO415120  14.429  10.739   6.164  0.1277  0.0085 -0.0195
 1030loPI   GL115121  14.632  10.588   6.553 -0.0994  0.2229  0.0921
 1030loPI   GL215122  14.410  10.519   6.829 -0.2840  0.0717 -0.1529
 1030loPI   C1A15123  14.813  10.785   6.955  0.0985  0.2942 -0.0475
 1030loPI   C2A15124  14.888  10.730   7.492 -0.0626 -0.0981  0.0920
 1030loPI   C3A15125  14.982  10.637   7.926 -0.0356 -0.1151  0.0029
 1030loPI   C4A15126  15.051  10.693   8.302  0.1080 -0.0560 -0.1605
 1030loPI   C5A15127  15.167  10.409   8.596  0.0177  0.2979  0.2579
 1030loPI   C6A15128  15.208  10.046   8.885 -0.2407 -0.0104  0.2408
 1030loPI   C1B15129  14.481  10.531   7.337 -0.0668 -0.2982  0.0161
 1030loPI   C2B15130  14.513  10.536   7.769 -0.1304 -0.1964  0.1439
 1030loPI   C3B15131  14.492  10.432   8.178 -0.1655 -0.4916 -0.1296
 1030loPI   C4B15132  14.263  10.185   8.422  0.0256  0.0798  0.3384
 1031loPI    C115133  10.447   2.037   6.444  0.0053 -0.1585 -0.0289
 1031loPI    C215134  10.692   1.727   6.385  0.1815 -0.0604  0.1741
 1031loPI    C315135  10.297   1.677   6.358  0.2235 -0.1867 -0.3085
 1031loPI   PO415136  10.472   2.165   6.697  0.4240 -0.0524 -0.0039
 1031loPI   GL115137  10.400   2.223   7.142 -0.1850 -0.0839  0.2431
 1031loPI   GL215138  10.634   2.036   7.245  0.0090  0.0693 -0.5100
 1031loPI   C1A15139  10.225   2.413   7.465 -0.0049  0.0100 -0.1737
 1031loPI   C2A15140  10.296   2.390   7.888 -0.0877  0.2669 -0.0187
 1031loPI   C3A15141  10.279   2.387   8.293 -0.1994 -0.1236 -0.2736
 1031loPI   C4A15142  10.274   2.452   8.745  0.2281  0.0729 -0.1475
 1031loPI   C5A15143  10.325   2.260   9.184  0.0536  0.0473  0.5519
 1031loPI   C6A15144  10.382   1.814   9.403 -0.0183  0.1906  0.1100
 1031loPI   C1B15145  10.741   1.990   7.691  0.1118  0.0169 -0.1843
 1031loPI   C2B15146  10.760   2.030   8.105  0.3920  0.0511 -0.1319
 1031loPI   C3B15147  10.884   2.007   8.489 -0.0569 -0.1791  0.0198
 1031loPI   C4B15148  10.831   2.265   8.923  0.0287 -0.0209  0.0409
 1032loPI    C115149   8.588  16.057   6.383 -0.0573  0.1917 -0.0366
 1032loPI    C215150   8.855  16.028   6.086 -0.1873 -0.1502 -0.1253
 1032loPI    C315151   8.579  16.317   6.079  0.0451  0.0753 -0.1405
 1032loPI   PO415152   8.749  15.857   6.651  0.2247  0.0184  0.0715
 1032loPI   GL115153   8.515  15.701   6.951  0.1907 -0.0674  0.0754
 1032loPI   GL215154   8.276  15.961   7.224  0.1772  0.0875  0.1362
 1032loPI   C1A15155   8.538  15.559   7.345  0.1603 -0.0740 -0.4915
 1032loPI   C2A15156   8.624  15.506   7.722  0.1983  0.0811 -0.3615
 1032loPI   C3A15157   8.838  15.633   8.075 -0.0955  0.3661  0.1802
 1032loPI   C4A15158   8.881  15.672   8.544 -0.1215  0.1170  0.0173
 1032loPI   C5A15159   8.947  15.617   9.013  0.0117 -0.0416  0.1866
 1032loPI   C6A15160   9.336  15.729   9.207 -0.3301 -0.1319 -0.0412
 1032loPI   C1B15161   8.285  15.929   7.683  0.0091 -0.3926  0.1839
 1032loPI   C2B15162   8.376  15.705   8.090  0.2044  0.2874 -0.0384
 1032loPI   C3B15163   8.485  15.382   8.351 -0.0388 -0.2163 -0.1307
 1032loPI   C4B15164   8.620  15.303   8.862 -0.0726 -0.0179 -0.3139
 1033loPI    C115165   2.205   3.666   5.767  0.1267  0.0571  0.0176
 1033loPI    C215166   1.883   3.796   5.569  0.0865 -0.1960 -0.0872
 1033loPI    C315167   2.249   3.859   5.420  0.0895  0.1114  0.0430
 1033loPI   PO415168   2.162   3.622   6.061 -0.1430  0.0892  0.0817
 1033loPI   GL115169   1.960   3.598   6.428  0.0984  0.1103 -0.2251
 1033loPI   GL215170   1.739   3.848   6.406  0.1849 -0.0236 -0.0100
 1033loPI   C1A15171   1.856   3.528   6.867 -0.0154 -0.0697 -0.1805
 1033loPI   C2A15172   1.845   3.706   7.269  0.0011 -0.0334  0.0633
 1033loPI   C3A15173   1.972   3.674   7.661 -0.1056 -0.1104 -0.0363
 1033loPI   C4A15174   2.019   3.458   8.003 -0.0729  0.1152 -0.2031
 1033loPI   C5A15175   1.995   3.191   8.448  0.0458  0.0388  0.0858
 1033loPI   C6A15176   1.863   3.005   8.816  0.0379  0.1023 -0.1837
 1033loPI   C1B15177   1.882   4.010   6.880 -0.1510 -0.2082  0.2685
 1033loPI   C2B15178   1.859   4.187   7.317 -0.2215 -0.4249  0.4134
 1033loPI   C3B15179   1.901   4.202   7.799  0.3796 -0.2440  0.0834
 1033loPI   C4B15180   2.062   4.077   8.208  0.1785 -0.0514  0.0405
 1034loPI    C115181   9.307  16.080   6.322  0.0594 -0.0164  0.0939
 1034loPI    C215182   9.376  16.259   5.971  0.0515 -0.1313  0.0333
 1034loPI    C315183   9.254  16.475   6.285 -0.2924 -0.0801 -0.1300
 1034loPI   PO415184   9.460  15.924   6.423  0.5944 -0.1246 -0.2062
 1034loPI   GL115185   9.594  15.873   6.919  0.2529 -0.2220 -0.0780
 1034loPI   GL215186   9.806  15.542   6.996  0.0125  0.0616 -0.1324
 1034loPI   C1A15187   9.797  15.937   7.324 -0.3929  0.1691  0.0668
 1034loPI   C2A15188   9.717  15.921   7.754  0.1241  0.2356 -0.0242
 1034loPI   C3A15189   9.712  15.816   8.235  0.0515  0.0664 -0.0026
 1034loPI   C4A15190   9.900  15.847   8.641 -0.3509 -0.0471 -0.1115
 1034loPI   C5A15191   9.778  15.971   9.057 -0.0448  0.2136  0.0722
 1034loPI   C6A15192   9.690  16.026   9.463  0.3094  0.0618  0.0229
 1034loPI   C1B15193   9.743  15.510   7.479  0.0249 -0.0518  0.0429
 1034loPI   C2B15194   9.761  15.448   7.915 -0.0060 -0.1569  0.0123
 1034loPI   C3B15195   9.670  15.376   8.423  0.2272 -0.2283 -0.0426
 1034loPI   C4B15196   9.372  15.679   8.651  0.0937 -0.2093 -0.1898
 1035loPI    C115197  12.078   8.996   5.777  0.1208 -0.2153  0.0377
 1035loPI    C215198  12.011   9.182   5.429 -0.0323 -0.0822  0.1369
 1035loPI    C315199  11.951   8.788   5.460  0.1532 -0.1253 -0.0347
 1035loPI   PO415200  12.112   9.255   5.895  0.1570 -0.0272 -0.0455
 1035loPI   GL115201  12.155   9.436   6.350 -0.3358  0.0305 -0.1545
 1035loPI   GL215202  11.998   9.373   6.595 -0.0654 -0.0293  0.1224
 1035loPI   C1A15203  12.469   9.691   6.615 -0.1683  0.2240 -0.1286
 1035loPI   C2A15204  12.544   9.748   6.995 -0.1239  0.2531 -0.2287
 1035loPI   C3A15205  12.659   9.681   7.521 -0.0512  0.0756 -0.1300
 1035loPI   C4A15206  12.683   9.776   7.911  0.0225 -0.0813 -0.0361
 1035loPI   C5A15207  12.698   9.646   8.261  0.0222  0.1327 -0.1709
 1035loPI   C6A15208  12.988   9.483   8.638  0.2472 -0.1728  0.3781
 1035loPI   C1B15209  11.912   9.571   6.959 -0.3269  0.0141  0.2176
 1035loPI   C2B15210  12.116   9.584   7.353  0.2285 -0.0179  0.1094
 1035loPI   C3B15211  12.243   9.531   7.761  0.1252 -0.1853  0.3067
 1035loPI   C4B15212  12.238   9.455   8.220  0.0805  0.1593  0.0421
 1036loPI    C115213   5.854   5.994   6.014  0.1724  0.0020 -0.1392
 1036loPI    C215214   5.535   5.870   6.221  0.1454 -0.1212 -0.2533
 1036loPI    C315215   5.487   6.042   5.863  0.1844  0.1982 -0.1086
 1036loPI   PO415216   6.042   5.885   6.255  0.2990  0.3413 -0.0974
 1036loPI   GL115217   5.774   5.891   6.667 -0.1188 -0.0135  0.2016
 1036loPI   GL215218   6.058   6.144   6.653 -0.1053 -0.2672  0.1497
 1036loPI   C1A15219   5.914   5.827   7.119 -0.0186 -0.4386 -0.0942
 1036loPI   C2A15220   5.890   5.819   7.532 -0.1021  0.0183 -0.0999
 1036loPI   C3A15221   5.853   5.835   7.947  0.2793  0.0414 -0.2383
 1036loPI   C4A15222   5.956   5.839   8.354  0.1187  0.0922  0.2294
 1036loPI   C5A15223   5.937   5.763   8.866 -0.0132 -0.0310  0.0167
 1036loPI   C6A15224   5.787   6.083   9.165 -0.1377  0.1730  0.1279
 1036loPI   C1B15225   6.156   6.300   7.088  0.3046  0.2553  0.1510
 1036loPI   C2B15226   6.136   6.234   7.483  0.2726  0.1963  0.0852
 1036loPI   C3B15227   6.173   6.287   7.846 -0.0750  0.0073  0.1406
 1036loPI   C4B15228   6.219   6.310   8.262 -0.4136  0.0320  0.2451
 1037loPI    C115229  13.431   9.053   5.717  0.2529 -0.0607  0.0606
 1037loPI    C215230  13.158   8.772   5.796  0.1982 -0.0505 -0.0883
 1037loPI    C315231  13.431   8.710   5.511  0.1068  0.0979 -0.2097
 1037loPI   PO415232  13.497   9.087   5.958 -0.0081  0.2778  0.0175
 1037loPI   GL115233  13.573   8.962   6.388 -0.0508 -0.2710  0.0526
 1037loPI   GL215234  13.329   9.171   6.504 -0.0722  0.0635  0.0964
 1037loPI   C1A15235  13.748   8.843   6.824  0.1941  0.0423  0.2441
 1037loPI   C2A15236  13.810   8.802   7.195  0.1489  0.5130 -0.0268
 1037loPI   C3A15237  13.845   8.700   7.651  0.3972 -0.1392  0.1705
 1037loPI   C4A15238  13.901   8.752   8.110 -0.1179 -0.1357 -0.2829
 1037loPI   C5A15239  14.129   8.700   8.551  0.1514 -0.2155  0.2761
 1037loPI   C6A15240  14.392   8.821   8.902  0.2400 -0.1726  0.0636
 1037loPI   C1B15241  13.352   9.195   6.880  0.4441  0.0815  0.2006
 1037loPI   C2B15242  13.459   9.155   7.259  0.0023 -0.0232 -0.2310
 1037loPI   C3B15243  13.479   9.070   7.689 -0.1108  0.0986  0.3448
 1037loPI   C4B15244  13.465   8.969   7.977 -0.0016 -0.2041 -0.2043
 1038loPI    C115245  10.926   4.041   6.482 -0.1724 -0.1314 -0.2805
 1038loPI    C215246  10.668   4.342   6.538 -0.0545 -0.0664 -0.0749
 1038loPI    C315247  11.059   4.418   6.499 -0.0126 -0.1988  0.0729
 1038loPI   PO415248  10.948   3.889   6.625 -0.0241  0.0412  0.0185
 1038loPI   GL115249  10.777   3.556   6.894 -0.0906  0.1077  0.1122
 1038loPI   GL215250  10.449   3.610   7.007  0.1490  0.2201  0.2595
 1038loPI   C1A15251  10.893   3.636   7.322  0.2483 -0.2861  0.0328
 1038loPI   C2A15252  10.948   3.576   7.721 -0.0383 -0.0004 -0.0644
 1038loPI   C3A15253  10.991   3.528   8.107  0.0667  0.0619 -0.2947
 1038loPI   C4A15254  10.895   3.687   8.530 -0.0593 -0.0343 -0.0103
 1038loPI   C5A15255  10.608   3.771   8.819 -0.2910  0.2118 -0.2724
 1038loPI   C6A15256  10.620   3.591   9.212  0.1021 -0.0954  0.1121
 1038loPI   C1B15257  10.430   3.608   7.332  0.4664 -0.4948  0.0789
 1038loPI   C2B15258  10.519   3.911   7.557 -0.0393  0.0709 -0.1313
 1038loPI   C3B15259  10.566   3.843   7.937 -0.0850  0.0261  0.0998
 1038loPI   C4B15260  10.495   3.941   8.384  0.0631 -0.1505 -0.1034
 1039loPI    C115261   1.693   5.366   5.773  0.0108  0.0296 -0.0932
 1039loPI    C215262   1.517   5.652   5.557  0.0863  0.1509  0.0044
 1039loPI    C315263   1.861   5.490   5.432  0.0965  0.1752  0.0009
 1039loPI   PO415264   1.802   5.512   6.062 -0.2211  0.2045  0.2274
 1039loPI   GL115265   1.992   5.371   6.438  0.1350  0.5257 -0.0585
 1039loPI   GL215266   2.155   5.612   6.497 -0.3927 -0.2142  0.0724
 1039loPI   C1A15267   2.141   5.168   6.787  0.0542 -0.0311  0.4631
 1039loPI   C2A15268   2.146   5.191   7.228  0.1567  0.1748  0.0181
 1039loPI   C3A15269   2.073   5.286   7.694  0.1328 -0.2136 -0.0972
 1039loPI   C4A15270   1.919   5.168   8.000  0.1281 -0.1043 -0.0418
 1039loPI   C5A15271   1.917   5.083   8.342 -0.0370  0.1670 -0.3123
 1039loPI   C6A15272   2.103   4.912   8.770  0.3769  0.0861  0.2837
 1039loPI   C1B15273   2.167   5.700   6.938  0.1319 -0.0160  0.1640
 1039loPI   C2B15274   2.226   5.811   7.323 -0.0052  0.2896 -0.1942
 1039loPI   C3B15275   2.113   5.755   7.842  0.1283 -0.2284  0.0228
 1039loPI   C4B15276   1.966   5.648   8.166  0.1376 -0.0897 -0.0750
 1040loPI    C115277   6.470  10.910   5.954 -0.0836 -0.2338 -0.2861
 1040loPI    C215278   6.775  10.659   5.892  0.0426 -0.1455 -0.0375
 1040loPI    C315279   6.760  11.008   5.697  0.2120 -0.0576  0.1043
 1040loPI   PO415280   6.490  10.884   6.350 -0.0391  0.0124 -0.0208
 1040loPI   GL115281   6.777  11.270   6.642  0.0533  0.1459 -0.1510
 1040loPI   GL215282   6.778  10.861   6.770  0.1390 -0.0907  0.0381
 1040loPI   C1A15283   6.455  11.233   6.964  0.1381  0.0601  0.1455
 1040loPI   C2A15284   6.376  11.315   7.396  0.1514 -0.2154  0.0285
 1040loPI   C3A15285   6.410  11.360   7.765  0.5607  0.0515  0.1885
 1040loPI   C4A15286   6.407  11.087   8.158 -0.1608 -0.0381 -0.1578
 1040loPI   C5A15287   6.310  10.805   8.543 -0.2060 -0.3368  0.1185
 1040loPI   C6A15288   6.482  10.653   8.866 -0.1544 -0.0784  0.1977
 1040loPI   C1B15289   6.696  10.821   7.232  0.1016 -0.2507  0.1553
 1040loPI   C2B15290   6.681  10.875   7.672 -0.0631 -0.0961  0.0623
 1040loPI   C3B15291   6.711  10.733   8.072 -0.1260 -0.0164 -0.0775
 1040loPI   C4B15292   6.840  10.865   8.484  0.1021  0.1964  0.0789
 1041loPI    C115293  11.529   3.117   6.345  0.1664 -0.1003 -0.0611
 1041loPI    C215294  11.842   3.361   6.396  0.0819 -0.0235  0.0958
 1041loPI    C315295  11.700   3.292   6.029  0.1230  0.1430  0.0480
 1041loPI   PO415296  11.563   2.948   6.464 -0.0670 -0.0167  0.0683
 1041loPI   GL115297  11.514   2.897   6.848  0.2651  0.1888 -0.3627
 1041loPI   GL215298  11.222   2.726   7.030 -0.1154  0.2059 -0.2502
 1041loPI   C1A15299  11.650   3.005   7.241 -0.2387  0.1541 -0.3755
 1041loPI   C2A15300  11.801   2.884   7.605 -0.1649 -0.1436 -0.3277
 1041loPI   C3A15301  11.802   2.890   8.051 -0.2138 -0.0127  0.0374
 1041loPI   C4A15302  11.800   3.042   8.394 -0.2249 -0.4645  0.2605
 1041loPI   C5A15303  11.868   3.133   8.733 -0.0412 -0.1494 -0.1797
 1041loPI   C6A15304  12.162   2.920   9.013  0.0997  0.0455 -0.3989
 1041loPI   C1B15305  11.295   2.699   7.477 -0.1942 -0.1472 -0.1544
 1041loPI   C2B15306  11.321   2.706   7.952 -0.1520 -0.0753 -0.1247
 1041loPI   C3B15307  11.389   2.750   8.331 -0.1554 -0.1027  0.0674
 1041loPI   C4B15308  11.264   2.644   8.743 -0.2500 -0.0825  0.1743
 1042loPI    C115309  11.574  11.606   6.020 -0.0084  0.2362  0.0176
 1042loPI    C215310  11.806  11.300   6.133 -0.0603  0.2248  0.0943
 1042loPI    C315311  11.800  11.416   5.750 -0.1310  0.0525  0.0420
 1042loPI   PO415312  11.515  11.719   6.265 -0.1586  0.0364 -0.1930
 1042loPI   GL115313  11.413  11.676   6.602  0.0885  0.4846  0.0530
 1042loPI   GL215314  11.740  11.438   6.588  0.0067  0.0209 -0.1775
 1042loPI   C1A15315  11.499  11.726   6.980 -0.2138 -0.0114  0.0683
 1042loPI   C2A15316  11.438  11.739   7.385 -0.2912 -0.2114  0.1005
 1042loPI   C3A15317  11.498  11.702   7.763  0.1173 -0.1636 -0.0417
 1042loPI   C4A15318  11.572  11.662   8.210 -0.2772 -0.0715  0.0511
 1042loPI   C5A15319  11.610  11.527   8.596  0.2128 -0.2733 -0.0680
 1042loPI   C6A15320  11.883  11.202   8.822 -0.0511 -0.2322  0.3278
 1042loPI   C1B15321  11.898  11.410   7.007 -0.0203 -0.3283  0.2288
 1042loPI   C2B15322  11.883  11.386   7.464  0.2131 -0.1135  0.1746
 1042loPI   C3B15323  11.914  11.319   7.920 -0.0166 -0.1189  0.0337
 1042loPI   C4B15324  11.986  11.447   8.272 -0.1619  0.4546  0.2169
 1043loPI    C115325   9.725   5.644   6.388 -0.0892  0.0385  0.0451
 1043loPI    C215326   9.944   5.834   6.113  0.0623 -0.0882  0.0770
 1043loPI    C315327   9.677   5.559   6.000 -0.1303  0.1137  0.0334
 1043loPI   PO415328   9.883   5.616   6.610  0.1459 -0.0959  0.0676
 1043loPI   GL115329  10.040   5.813   7.038  0.1807  0.2577 -0.2036
 1043loPI   GL215330  10.183   6.056   7.029 -0.1760 -0.1390 -0.0856
 1043loPI   C1A15331   9.866   5.642   7.403  0.1008 -0.4276  0.3352
 1043loPI   C2A15332   9.853   5.655   7.856 -0.0769  0.0014  0.1802
 1043loPI   C3A15333   9.914   5.604   8.275 -0.2148 -0.1640 -0.0636
 1043loPI   C4A15334   9.805   5.594   8.661 -0.0255 -0.0017  0.0005
 1043loPI   C5A15335   9.924   5.835   8.958  0.2641 -0.0584  0.1331
 1043loPI   C6A15336   9.923   6.090   9.296  0.0682  0.1906  0.0585
 1043loPI   C1B15337  10.433   6.154   7.377 -0.0206 -0.0529  0.2465
 1043loPI   C2B15338  10.420   6.269   7.715 -0.0322 -0.0235  0.0462
 1043loPI   C3B15339  10.438   6.344   8.136 -0.2031  0.0885 -0.2227
 1043loPI   C4B15340  10.493   6.178   8.498  0.2195  0.1384 -0.4690
 1044loPI    C115341   7.753  13.865   6.313  0.1021 -0.2641  0.1902
 1044loPI    C215342   7.709  13.470   6.266  0.1911 -0.2316 -0.1979
 1044loPI    C315343   7.694  13.713   5.948 -0.0758  0.1023  0.0617
 1044loPI   PO415344   7.707  13.877   6.595 -0.1361  0.0574  0.0653
 1044loPI   GL115345   7.895  13.642   6.970  0.2345  0.1096 -0.1069
 1044loPI   GL215346   8.124  13.531   7.129  0.0163 -0.0062 -0.0864
 1044loPI   C1A15347   7.679  13.552   7.385 -0.1654  0.1701  0.3066
 1044loPI   C2A15348   7.700  13.500   7.788 -0.0634 -0.0904 -0.1077
 1044loPI   C3A15349   7.639  13.537   8.122  0.0841  0.0256  0.1457
 1044loPI   C4A15350   7.715  13.346   8.453 -0.3357 -0.0619 -0.1277
 1044loPI   C5A15351   7.593  13.583   8.863  0.0919  0.0554  0.0541
 1044loPI   C6A15352   7.554  14.081   8.985  0.0119  0.1825  0.0628
 1044loPI   C1B15353   8.164  13.615   7.559  0.1556 -0.2059  0.0386
 1044loPI   C2B15354   8.254  13.607   7.923 -0.3452  0.1658  0.1093
 1044loPI   C3B15355   8.160  13.614   8.328 -0.0440 -0.1192  0.1909
 1044loPI   C4B15356   8.102  13.446   8.703  0.0348 -0.0229 -0.0200
 1045loPI    C115357   9.409   7.745   6.060 -0.0868  0.0429 -0.1974
 1045loPI    C215358   9.284   7.543   5.738  0.1185 -0.1027 -0.1881
 1045loPI    C315359   9.578   7.811   5.703 -0.0394  0.0751 -0.1690
 1045loPI   PO415360   9.189   7.773   6.268  0.0559 -0.1884 -0.0192
 1045loPI   GL115361   9.149   7.560   6.549  0.0845 -0.0933  0.0552
 1045loPI   GL215362   9.000   7.242   6.575  0.0851  0.0117  0.5285
 1045loPI   C1A15363   9.268   7.692   7.014 -0.0469 -0.0247 -0.0723
 1045loPI   C2A15364   9.211   7.754   7.509 -0.2165 -0.1166 -0.1901
 1045loPI   C3A15365   9.125   7.813   7.992 -0.0239  0.0462  0.0647
 1045loPI   C4A15366   9.078   7.676   8.339 -0.0860  0.2032  0.0154
 1045loPI   C5A15367   8.837   7.463   8.662 -0.0010 -0.2380 -0.0534
 1045loPI   C6A15368   8.623   7.156   9.052  0.0151  0.0896 -0.1699
 1045loPI   C1B15369   9.103   7.188   7.007  0.1934 -0.4551  0.1433
 1045loPI   C2B15370   9.102   7.216   7.452 -0.0290 -0.0369  0.0137
 1045loPI   C3B15371   9.130   7.335   7.851 -0.0667 -0.1187  0.0546
 1045loPI   C4B15372   9.140   7.174   8.323  0.0645 -0.0710  0.2838
 1046loPI    C115373  13.358   3.080   6.090  0.1374  0.0679  0.0740
 1046loPI    C215374  13.060   2.815   6.120  0.0921  0.1101 -0.0012
 1046loPI    C315375  13.128   3.002   5.772  0.1854  0.1252  0.0248
 1046loPI   PO415376  13.498   2.980   6.303 -0.1515 -0.1608 -0.1966
 1046loPI   GL115377  13.639   3.134   6.710 -0.1650 -0.0220  0.2041
 1046loPI   GL215378  14.008   3.082   6.736  0.1041  0.3733  0.1478
 1046loPI   C1A15379  13.621   2.897   7.077 -0.0431 -0.4010 -0.3139
 1046loPI   C2A15380  13.580   2.834   7.542  0.0540 -0.1801  0.0930
 1046loPI   C3A15381  13.581   2.774   7.988 -0.1060 -0.0948  0.2430
 1046loPI   C4A15382  13.549   2.644   8.291 -0.1161  0.0777 -0.0054
 1046loPI   C5A15383  13.488   2.535   8.766 -0.3302  0.0099  0.2130
 1046loPI   C6A15384  13.545   2.806   9.068 -0.0445 -0.0454  0.1065
 1046loPI   C1B15385  14.057   2.998   7.190  0.2352  0.0166 -0.1209
 1046loPI   C2B15386  14.028   3.056   7.679 -0.0693 -0.0398 -0.1870
 1046loPI   C3B15387  14.066   2.954   8.071 -0.0564 -0.2075  0.0009
 1046loPI   C4B15388  13.969   2.895   8.539 -0.1564 -0.0093  0.0933
 1047loPI    C115389  15.654  12.745   5.797 -0.0860 -0.2302 -0.0537
 1047loPI    C215390  15.468  12.836   5.455 -0.2211 -0.1923  0.0293
 1047loPI    C315391  15.775  12.580   5.453  0.0300  0.1026 -0.1767
 1047loPI   PO415392  15.677  13.087   5.852  0.1885 -0.4002 -0.0232
 1047loPI   GL115393  15.849  13.317   6.215 -0.3027 -0.1722  0.0230
 1047loPI   GL215394  15.691  13.555   6.392 -0.1951 -0.1084 -0.0523
 1047loPI   C1A15395  15.793  13.002   6.610 -0.0454 -0.1798 -0.2709
 1047loPI   C2A15396  15.844  13.054   7.102  0.1899 -0.2278  0.2677
 1047loPI   C3A15397  15.850  13.085   7.582  0.1048  0.1050  0.2670
 1047loPI   C4A15398  15.795  13.044   8.009 -0.0838 -0.3429  0.0741
 1047loPI   C5A15399  15.751  12.923   8.401 -0.0405  0.2344  0.0565
 1047loPI   C6A15400  15.809  13.136   8.850 -0.0511 -0.2900 -0.1135
 1047loPI   C1B15401  15.744  13.538   6.827  0.1208  0.2843  0.0551
 1047loPI   C2B15402  16.027  13.528   7.108  0.0283 -0.0656 -0.3764
 1047loPI   C3B15403  15.975  13.594   7.594 -0.1585  0.0403 -0.0390
 1047loPI   C4B15404  15.803  13.549   8.005  0.2887  0.1551  0.1640
 1048loPI    C115405   6.933   6.219   6.170  0.0934 -0.2389  0.0647
 1048loPI    C215406   7.203   6.205   5.875  0.1373 -0.0141  0.0928
 1048loPI    C315407   6.972   6.529   5.920 -0.2164 -0.2481  0.0010
 1048loPI   PO415408   7.001   6.195   6.358 -0.0940 -0.0208 -0.2008
 1048loPI   GL115409   7.008   6.111   6.798  0.0044  0.0079  0.2122
 1048loPI   GL215410   6.831   5.886   6.924 -0.2302  0.1538 -0.3066
 1048loPI   C1A15411   6.976   6.372   7.216 -0.0006 -0.0394  0.0007
 1048loPI   C2A15412   6.716   6.254   7.540 -0.1555  0.1662  0.1104
 1048loPI   C3A15413   6.697   6.274   8.011  0.0692 -0.1858 -0.3011
 1048loPI   C4A15414   6.686   6.381   8.445  0.0821 -0.0212  0.0189
 1048loPI   C5A15415   6.569   6.426   8.829 -0.0779 -0.0691 -0.1320
 1048loPI   C6A15416   6.855   6.263   9.138 -0.0812 -0.0152  0.0233
 1048loPI   C1B15417   6.983   5.888   7.360 -0.2829  0.0942 -0.0541
 1048loPI   C2B15418   6.991   5.879   7.862 -0.3007 -0.1922 -0.2853
 1048loPI   C3B15419   6.885   5.882   8.307 -0.0201 -0.3001  0.1322
 1048loPI   C4B15420   6.880   5.970   8.737 -0.2102  0.0818  0.0256
 1049loPI    C115421   6.903   7.714   5.961 -0.0918 -0.0289 -0.0013
 1049loPI    C215422   6.835   7.855   6.329 -0.1003 -0.3426  0.1202
 1049loPI    C315423   6.707   8.060   6.010  0.0434  0.0099  0.2838
 1049loPI   PO415424   6.991   7.495   6.048  0.0574  0.0210  0.4466
 1049loPI   GL115425   6.986   7.409   6.474  0.3024 -0.0529  0.1415
 1049loPI   GL215426   6.861   7.156   6.505  0.1489  0.2009  0.2434
 1049loPI   C1A15427   6.933   7.654   6.916 -0.4001 -0.1533 -0.2702
 1049loPI   C2A15428   6.998   7.710   7.399  0.3382  0.2508  0.0459
 1049loPI   C3A15429   6.947   7.769   7.829 -0.2904 -0.4497 -0.0734
 1049loPI   C4A15430   7.066   7.831   8.239 -0.1290 -0.6077  0.0874
 1049loPI   C5A15431   7.062   7.909   8.702 -0.0814 -0.0397  0.3402
 1049loPI   C6A15432   7.318   7.930   9.081 -0.1884  0.0567 -0.1521
 1049loPI   C1B15433   6.752   7.224   6.926 -0.1619  0.1096  0.1463
 1049loPI   C2B15434   6.670   7.325   7.334  0.1177 -0.2685  0.2613
 1049loPI   C3B15435   6.635   7.261   7.795 -0.0096  0.0682 -0.1309
 1049loPI   C4B15436   6.737   7.189   8.134 -0.1689  0.1311  0.0517
 1050loPI    C115437   0.126  15.633   5.783 -0.1857  0.1322  0.1414
 1050loPI    C215438   0.180  15.868   6.102  0.3271  0.2006  0.0133
 1050loPI    C315439   0.295  15.993   5.740  0.1694 -0.0603 -0.1298
 1050loPI   PO415440   0.142  15.407   5.919  0.2874 -0.2796 -0.2663
 1050loPI   GL115441   0.271  15.312   6.284 -0.0439  0.1549 -0.0660
 1050loPI   GL215442   0.023  15.447   6.456 -0.1387  0.1122 -0.1613
 1050loPI   C1A15443   0.535  15.190   6.636 -0.1145 -0.2576  0.0411
 1050loPI   C2A15444   0.742  14.991   6.956  0.0392 -0.0874 -0.0976
 1050loPI   C3A15445   0.714  14.993   7.482  0.0027  0.1983  0.0185
 1050loPI   C4A15446   0.690  14.868   7.908 -0.0961 -0.0742  0.2938
 1050loPI   C5A15447   0.861  14.891   8.231  0.2539  0.4669 -0.3797
 1050loPI   C6A15448   0.802  14.998   8.641  0.1839 -0.0482  0.1213
 1050loPI   C1B15449   0.069  15.328   6.772 -0.1121  0.2440  0.1428
 1050loPI   C2B15450   0.252  15.304   7.091 -0.0273 -0.0203 -0.2013
 1050loPI   C3B15451   0.188  15.276   7.512 -0.0803 -0.0497 -0.0934
 1050loPI   C4B15452   0.294  15.159   7.871  0.4520  0.1404  0.1340
 1051loPI    C115453  11.194   6.305   6.354 -0.1086  0.0559  0.0694
 1051loPI    C215454  11.001   6.590   6.149  0.0653  0.1141 -0.0155
 1051loPI    C315455  11.356   6.456   6.020  0.0284 -0.0751  0.0755
 1051loPI   PO415456  11.225   6.317   6.637 -0.3355 -0.1119  0.0279
 1051loPI   GL115457  11.416   6.480   6.930 -0.3532  0.3306  0.0531
 1051loPI   GL215458  11.656   6.292   7.008 -0.1359 -0.1044 -0.2040
 1051loPI   C1A15459  11.618   6.677   7.293 -0.0178 -0.0846 -0.2215
 1051loPI   C2A15460  11.661   6.694   7.668 -0.1255  0.1040  0.2662
 1051loPI   C3A15461  11.807   6.899   8.003  0.2885  0.1434  0.0319
 1051loPI   C4A15462  11.825   6.767   8.390  0.2299  0.0802  0.0682
 1051loPI   C5A15463  11.943   6.648   8.780 -0.0287  0.2958  0.1708
 1051loPI   C6A15464  12.299   6.383   9.038 -0.0536 -0.0036 -0.1221
 1051loPI   C1B15465  11.765   6.212   7.541 -0.0030 -0.0022  0.0836
 1051loPI   C2B15466  11.745   6.305   8.037  0.0001 -0.0351  0.1972
 1051loPI   C3B15467  11.759   6.307   8.482  0.0277 -0.2622 -0.1617
 1051loPI   C4B15468  11.828   6.225   8.950 -0.0378 -0.0467 -0.3244
 1052loPI    C115469   7.238   3.510   6.520 -0.0872  0.2166  0.1735
 1052loPI    C215470   7.355   3.717   6.199  0.3833 -0.1845  0.0738
 1052loPI    C315471   7.246   3.333   6.162 -0.2808 -0.0310  0.2876
 1052loPI   PO415472   7.108   3.781   6.643 -0.2457 -0.0790  0.3263
 1052loPI   GL115473   7.306   4.079   6.926 -0.0268  0.0726  0.1083
 1052loPI   GL215474   6.973   4.169   6.878  0.0460  0.0120 -0.0331
 1052loPI   C1A15475   7.520   4.016   7.264 -0.0983  0.3134  0.2437
 1052loPI   C2A15476   7.480   4.073   7.688 -0.1142 -0.0413  0.0509
 1052loPI   C3A15477   7.544   3.998   8.089  0.3554 -0.0686 -0.1988
 1052loPI   C4A15478   7.464   4.084   8.480 -0.0170 -0.0218 -0.1453
 1052loPI   C5A15479   7.564   4.215   8.870 -0.1155 -0.1749 -0.0130
 1052loPI   C6A15480   7.414   4.006   9.363  0.2213  0.2321 -0.2791
 1052loPI   C1B15481   6.980   4.115   7.369  0.0144  0.1132 -0.1788
 1052loPI   C2B15482   6.928   4.043   7.826  0.0399  0.0197  0.0699
 1052loPI   C3B15483   7.006   4.057   8.266 -0.0073 -0.0207 -0.3663
 1052loPI   C4B15484   7.044   4.067   8.821  0.2047 -0.0034 -0.1301
 1053loPI    C115485  14.816  17.192   6.175 -0.1859  0.1486  0.1061
 1053loPI    C215486  14.898  16.865   5.961  0.1470  0.1434  0.2363
 1053loPI    C315487  14.524  17.004   5.977  0.0613 -0.0392 -0.0866
 1053loPI   PO415488  14.917  17.137   6.363  0.0816  0.0620  0.2125
 1053loPI   GL115489  15.123  17.171   6.721  0.2314 -0.0713 -0.0359
 1053loPI   GL215490  15.058  16.808   6.700 -0.0829  0.0861 -0.1700
 1053loPI   C1A15491  15.153  17.158   7.228  0.2200 -0.0106 -0.1197
 1053loPI   C2A15492  15.002  17.091   7.607  0.1340  0.0433 -0.0529
 1053loPI   C3A15493  14.832  17.162   8.018 -0.1922 -0.0932 -0.2377
 1053loPI   C4A15494  14.962  17.084   8.428  0.3608  0.2850  0.3085
 1053loPI   C5A15495  14.796  16.996   8.811 -0.1098 -0.1164 -0.1155
 1053loPI   C6A15496  14.513  16.613   8.863 -0.0063  0.3032  0.4236
 1053loPI   C1B15497  14.939  16.683   7.042  0.2308  0.1296 -0.0616
 1053loPI   C2B15498  14.916  16.630   7.473  0.1330  0.1173  0.2203
 1053loPI   C3B15499  14.780  16.532   7.956 -0.1099  0.0840 -0.1618
 1053loPI   C4B15500  14.763  16.511   8.431 -0.0031 -0.0617 -0.2094
 1054loPI    C115501   7.989   4.284   6.297  0.0140 -0.3187  0.3744
 1054loPI    C215502   7.813   3.954   6.156  0.1147 -0.2426  0.0611
 1054loPI    C315503   8.126   4.111   5.963 -0.0379  0.1324  0.1105
 1054loPI   PO415504   7.958   4.309   6.620  0.2144  0.0674  0.1299
 1054loPI   GL115505   7.945   4.012   6.962  0.0461 -0.0948  0.3133
 1054loPI   GL215506   7.892   3.684   7.053 -0.1637  0.0706  0.1190
 1054loPI   C1A15507   8.011   4.090   7.485 -0.1736  0.0602  0.1152
 1054loPI   C2A15508   7.965   3.987   7.841  0.5569  0.2736 -0.0146
 1054loPI   C3A15509   8.037   4.129   8.295 -0.2387 -0.0157 -0.1327
 1054loPI   C4A15510   7.994   4.339   8.709 -0.0660  0.2625 -0.0165
 1054loPI   C5A15511   8.101   4.626   9.083  0.1096 -0.1155  0.0089
 1054loPI   C6A15512   8.341   4.376   9.480  0.3002  0.0850  0.0734
 1054loPI   C1B15513   7.739   3.584   7.493 -0.0751  0.2360  0.1219
 1054loPI   C2B15514   7.816   3.522   7.889 -0.0958  0.1589 -0.4690
 1054loPI   C3B15515   7.759   3.596   8.358 -0.0521  0.0360  0.1571
 1054loPI   C4B15516   7.844   3.767   8.730 -0.0476 -0.2088  0.0607
 1055loPI    C115517  13.615   4.296   6.029 -0.0244 -0.0253 -0.0309
 1055loPI    C215518  13.559   4.554   5.728 -0.1654  0.0314  0.0430
 1055loPI    C315519  13.795   4.235   5.678  0.0365  0.1921 -0.0389
 1055loPI   PO415520  13.682   4.447   6.216  0.1738 -0.2861 -0.0148
 1055loPI   GL115521  13.445   4.414   6.622  0.0356  0.1174  0.2061
 1055loPI   GL215522  13.262   4.606   6.733 -0.0345  0.0416  0.0899
 1055loPI   C1A15523  13.680   4.311   7.064  0.1922 -0.2416  0.1391
 1055loPI   C2A15524  13.661   4.355   7.590 -0.1027  0.1209  0.1847
 1055loPI   C3A15525  13.743   4.361   8.022  0.1887  0.2224  0.0773
 1055loPI   C4A15526  13.772   4.418   8.448  0.1184  0.1166 -0.0612
 1055loPI   C5A15527  13.864   4.262   8.889 -0.0224 -0.0424  0.1853
 1055loPI   C6A15528  14.067   4.166   9.279 -0.0807 -0.0457 -0.0058
 1055loPI   C1B15529  13.220   4.582   7.143  0.1098 -0.0465  0.1305
 1055loPI   C2B15530  13.283   4.657   7.546  0.1296 -0.0241  0.1157
 1055loPI   C3B15531  13.357   4.690   7.905 -0.1821  0.1141  0.0260
 1055loPI   C4B15532  13.327   4.685   8.345 -0.0078 -0.0251  0.1417
 1056loPI    C115533   8.826  12.696   6.396 -0.1610 -0.1274 -0.0053
 1056loPI    C215534   9.111  12.621   6.124 -0.1091  0.2137 -0.0488
 1056loPI    C315535   8.747  12.740   6.006 -0.1568  0.1387  0.0219
 1056loPI   PO415536   8.926  12.677   6.589 -0.1084  0.4109  0.3412
 1056loPI   GL115537   8.944  12.528   7.053 -0.2391 -0.1656 -0.1195
 1056loPI   GL215538   8.742  12.753   7.111 -0.2398 -0.1010 -0.0557
 1056loPI   C1A15539   9.073  12.553   7.520 -0.2595  0.1328 -0.1646
 1056loPI   C2A15540   8.942  12.531   7.942  0.2138  0.0113 -0.1021
 1056loPI   C3A15541   8.820  12.671   8.319 -0.2588 -0.0877  0.1330
 1056loPI   C4A15542   8.602  13.036   8.407  0.0501 -0.0201 -0.2233
 1056loPI   C5A15543   8.579  13.325   8.829  0.3446 -0.1367  0.0114
 1056loPI   C6A15544   8.627  13.244   9.266  0.3142 -0.0332  0.0293
 1056loPI   C1B15545   8.863  12.966   7.400 -0.0796 -0.0793 -0.2921
 1056loPI   C2B15546   9.022  13.268   7.588 -0.2552 -0.0516  0.0695
 1056loPI   C3B15547   9.108  13.317   8.089  0.2435 -0.0138 -0.0773
 1056loPI   C4B15548   9.055  13.389   8.477 -0.2603 -0.0529  0.2110
 1057loPI    C115549   4.684   8.061   6.384 -0.1839  0.2230 -0.1180
 1057loPI    C215550   4.471   8.223   6.086 -0.4784  0.0104 -0.0273
 1057loPI    C315551   4.618   7.853   6.049 -0.0091  0.2009 -0.1396
 1057loPI   PO415552   4.789   8.265   6.481  0.1077 -0.1679  0.0194
 1057loPI   GL115553   4.655   8.395   6.854  0.1741  0.2333  0.4029
 1057loPI   GL215554   4.910   8.548   7.051 -0.2224  0.2597  0.0796
 1057loPI   C1A15555   4.629   8.126   7.271 -0.0808 -0.2638 -0.3424
 1057loPI   C2A15556   4.673   8.120   7.662 -0.0381 -0.0693 -0.2461
 1057loPI   C3A15557   4.652   8.227   8.091  0.0740  0.0304  0.1152
 1057loPI   C4A15558   4.290   8.217   8.414  0.1206  0.2287  0.1742
 1057loPI   C5A15559   3.983   8.217   8.747  0.4430  0.2888 -0.1105
 1057loPI   C6A15560   3.744   7.930   9.035  0.1997 -0.1137 -0.1358
 1057loPI   C1B15561   4.844   8.595   7.494  0.3485  0.2928 -0.0330
 1057loPI   C2B15562   4.943   8.587   7.956  0.5319 -0.2941  0.3904
 1057loPI   C3B15563   4.919   8.773   8.385 -0.0997  0.2362 -0.4349
 1057loPI   C4B15564   4.741   8.891   8.768  0.2055  0.1995 -0.2086
 1058loPI    C115565  14.088   4.098   6.058 -0.0521  0.0460  0.0644
 1058loPI    C215566  14.245   4.388   5.832 -0.1612  0.0754  0.0255
 1058loPI    C315567  14.330   4.005   5.754 -0.1650  0.0875 -0.0388
 1058loPI   PO415568  14.173   4.164   6.293  0.1067 -0.0073 -0.0305
 1058loPI   GL115569  14.518   4.283   6.629  0.0770 -0.0396 -0.3123
 1058loPI   GL215570  14.477   4.608   6.738  0.1077  0.0546  0.0247
 1058loPI   C1A15571  14.622   4.238   7.125 -0.1390 -0.0274 -0.1649
 1058loPI   C2A15572  14.674   4.207   7.588 -0.0558 -0.0690 -0.1985
 1058loPI   C3A15573  14.600   4.116   7.949 -0.3391 -0.0461  0.2399
 1058loPI   C4A15574  14.542   4.152   8.443  0.1655  0.1924  0.0628
 1058loPI   C5A15575  14.565   4.417   8.855  0.3359 -0.1947 -0.2012
 1058loPI   C6A15576  14.722   4.762   9.036  0.0497  0.3446 -0.2832
 1058loPI   C1B15577  14.715   4.694   7.033 -0.0087  0.0744  0.1475
 1058loPI   C2B15578  14.711   4.771   7.433 -0.0452  0.0340  0.3203
 1058loPI   C3B15579  14.698   4.739   7.884 -0.1626 -0.3878 -0.0343
 1058loPI   C4B15580  14.637   4.674   8.322  0.2919 -0.1356 -0.2540
 1059loPI    C115581   8.882   4.691   6.230 -0.0155 -0.0375  0.1116
 1059loPI    C215582   9.057   4.966   5.999 -0.3292 -0.0116 -0.1016
 1059loPI    C315583   8.867   4.656   5.832  0.1369 -0.4407  0.1361
 1059loPI   PO415584   8.783   4.658   6.425 -0.0802  0.0159  0.3069
 1059loPI   GL115585   8.711   4.801   6.844 -0.1844  0.2503 -0.1168
 1059loPI   GL215586   9.006   4.780   6.997  0.0342 -0.1262  0.3816
 1059loPI   C1A15587   8.605   4.837   7.257 -0.1180 -0.3069  0.1435
 1059loPI   C2A15588   8.628   4.972   7.618 -0.2956 -0.2190  0.1053
 1059loPI   C3A15589   8.599   4.948   8.007 -0.3084  0.0159 -0.1237
 1059loPI   C4A15590   8.586   5.032   8.400 -0.0757 -0.1102  0.0262
 1059loPI   C5A15591   8.540   5.120   8.761  0.1820  0.0946  0.2267
 1059loPI   C6A15592   8.235   5.335   9.047  0.1680  0.1968  0.1115
 1059loPI   C1B15593   9.092   4.882   7.397  0.3495 -0.2084 -0.3209
 1059loPI   C2B15594   9.180   5.005   7.857 -0.1802  0.0025 -0.0357
 1059loPI   C3B15595   9.056   5.098   8.207  0.1485  0.0174  0.0845
 1059loPI   C4B15596   9.005   5.245   8.683  0.1561 -0.1404  0.2163
 1060loPI    C115597  12.814   0.863   6.087 -0.1131 -0.0264 -0.0298
 1060loPI    C215598  12.783   0.573   5.814  0.1237 -0.0793 -0.0026
 1060loPI    C315599  12.881   0.944   5.701 -0.0357 -0.0417 -0.0197
 1060loPI   PO415600  12.941   0.787   6.233 -0.1004  0.0399  0.1699
 1060loPI   GL115601  12.994   0.678   6.599  0.0088 -0.1391 -0.1517
 1060loPI   GL215602  12.756   0.572   6.785  0.1266 -0.3649  0.1264
 1060loPI   C1A15603  13.244   0.685   7.013  0.2507 -0.2224  0.0280
 1060loPI   C2A15604  13.266   0.626   7.487 -0.0625  0.3062  0.1509
 1060loPI   C3A15605  13.176   0.610   7.925 -0.2860 -0.1086  0.1115
 1060loPI   C4A15606  13.277   0.601   8.371  0.2123 -0.0169  0.2603
 1060loPI   C5A15607  13.459   0.689   8.849  0.0367  0.0758  0.0159
 1060loPI   C6A15608  13.671   0.556   9.231  0.0772  0.1059  0.2559
 1060loPI   C1B15609  12.765   0.453   7.288  0.1870  0.0366  0.1209
 1060loPI   C2B15610  12.761   0.506   7.729 -0.0804  0.0835  0.0563
 1060loPI   C3B15611  12.742   0.308   8.177  0.0510 -0.2425  0.2087
 1060loPI   C4B15612  12.631   0.167   8.586  0.1027 -0.1175 -0.1510
 1061loPI    C115613   1.231   3.047   6.284 -0.0150 -0.0875 -0.1813
 1061loPI    C215614   1.003   2.991   5.960 -0.1307 -0.0753 -0.1024
 1061loPI    C315615   1.323   3.230   5.940 -0.2319  0.0566 -0.1647
 1061loPI   PO415616   1.419   2.773   6.399  0.0325  0.0244  0.1692
 1061loPI   GL115617   1.680   2.629   6.815  0.2651  0.2153  0.1227
 1061loPI   GL215618   1.469   2.890   6.915  0.0485  0.0659  0.1995
 1061loPI   C1A15619   1.680   2.452   7.325 -0.0760  0.0069  0.2256
 1061loPI   C2A15620   1.684   2.074   7.663  0.2926 -0.1656  0.1224
 1061loPI   C3A15621   1.855   1.825   7.989 -0.0138  0.0189 -0.1995
 1061loPI   C4A15622   1.895   1.652   8.412 -0.0315 -0.2125  0.2554
 1061loPI   C5A15623   1.599   1.677   8.687  0.2265  0.0738  0.2514
 1061loPI   C6A15624   1.320   1.322   8.985 -0.3744 -0.0520 -0.1592
 1061loPI   C1B15625   1.348   2.927   7.306 -0.2085  0.0155  0.0219
 1061loPI   C2B15626   1.401   2.916   7.743  0.2801 -0.0372  0.0993
 1061loPI   C3B15627   1.231   3.026   8.103  0.1356 -0.0793 -0.0178
 1061loPI   C4B15628   1.014   2.883   8.429  0.3147  0.2821 -0.0095
 1062loPI    C115629   7.572   8.866   5.980 -0.0604  0.1658  0.0719
 1062loPI    C215630   7.253   8.641   5.894 -0.0186  0.1251  0.0223
 1062loPI    C315631   7.491   8.770   5.600  0.0875  0.0408  0.0708
 1062loPI   PO415632   7.525   9.172   6.165 -0.1558  0.2169  0.1906
 1062loPI   GL115633   7.360   9.335   6.554  0.0627 -0.1674  0.0160
 1062loPI   GL215634   7.665   9.367   6.608 -0.1048 -0.0645 -0.0734
 1062loPI   C1A15635   7.331   9.045   6.883 -0.2557  0.0324 -0.1968
 1062loPI   C2A15636   7.317   9.041   7.276 -0.1051  0.1583  0.2659
 1062loPI   C3A15637   7.289   9.040   7.737  0.2089 -0.0172 -0.0664
 1062loPI   C4A15638   7.317   9.112   8.264 -0.2126  0.2416  0.1277
 1062loPI   C5A15639   7.208   9.048   8.692 -0.2192 -0.1879 -0.2492
 1062loPI   C6A15640   6.892   8.810   8.980  0.2317  0.0714 -0.2655
 1062loPI   C1B15641   7.480   9.489   7.013  0.0442  0.1568 -0.0525
 1062loPI   C2B15642   7.515   9.433   7.413 -0.1987 -0.0585 -0.0190
 1062loPI   C3B15643   7.491   9.587   7.785  0.1771 -0.3652  0.1846
 1062loPI   C4B15644   7.551   9.518   8.191 -0.3149  0.1469  0.1411
 1063loPI    C115645  15.954  14.141   6.006 -0.3091 -0.3253 -0.0571
 1063loPI    C215646  15.649  14.097   5.752 -0.2944  0.1752 -0.1726
 1063loPI    C315647  15.991  14.262   5.627 -0.1918  0.1799  0.1074
 1063loPI   PO415648  15.951  13.905   6.126  0.0066  0.0334 -0.0422
 1063loPI   GL115649  16.135  13.712   6.551 -0.2204  0.4223  0.0942
 1063loPI   GL215650  16.161  13.434   6.654 -0.0262 -0.0837 -0.2860
 1063loPI   C1A15651  16.457  13.803   6.930 -0.2539  0.1924  0.0033
 1063loPI   C2A15652  16.489  13.761   7.349  0.0560  0.1572  0.1792
 1063loPI   C3A15653  16.435  13.830   7.739  0.3202  0.1798 -0.0809
 1063loPI   C4A15654  16.431  13.682   8.245  0.0327 -0.0693 -0.0376
 1063loPI   C5A15655  16.471  13.377   8.652 -0.3433  0.0805  0.2424
 1063loPI   C6A15656  16.586  12.930   8.839  0.0846 -0.1675  0.0234
 1063loPI   C1B15657  16.467  13.292   7.014  0.0587  0.0321 -0.3585
 1063loPI   C2B15658  16.380  13.237   7.450  0.3261 -0.1328 -0.3600
 1063loPI   C3B15659  16.282  13.349   7.921 -0.1198  0.3564  0.0746
 1063loPI   C4B15660  16.095  13.366   8.322 -0.0273 -0.1663 -0.0788
 1064loPI    C115661  10.021  12.931   6.217 -0.1431  0.0202 -0.1412
 1064loPI    C215662  10.028  13.209   5.929  0.0886  0.1312 -0.0311
 1064loPI    C315663  10.009  12.821   5.832 -0.1582  0.1799 -0.1869
 1064loPI   PO415664   9.878  12.956   6.364 -0.1232 -0.0140  0.0079
 1064loPI   GL115665   9.665  13.182   6.787 -0.5573 -0.1830  0.1831
 1064loPI   GL215666   9.468  13.382   6.743 -0.0546  0.0699 -0.2236
 1064loPI   C1A15667   9.850  13.059   7.223  0.0707 -0.0123  0.1197
 1064loPI   C2A15668   9.842  12.905   7.633 -0.1292  0.0366  0.1576
 1064loPI   C3A15669   9.762  12.657   8.073 -0.2343 -0.3642  0.0228
 1064loPI   C4A15670   9.875  12.561   8.379 -0.1215 -0.0619  0.0431
 1064loPI   C5A15671   9.953  12.519   8.781 -0.0169 -0.0635 -0.1565
 1064loPI   C6A15672   9.685  12.695   9.085  0.1997  0.1087  0.2649
 1064loPI   C1B15673   9.460  13.400   7.147  0.0919 -0.0969  0.3046
 1064loPI   C2B15674   9.566  13.281   7.596 -0.0800  0.0406 -0.1709
 1064loPI   C3B15675   9.581  13.283   7.973  0.2679  0.2471 -0.1474
 1064loPI   C4B15676   9.540  13.322   8.375 -0.0595 -0.2195 -0.2017
 1065loPI    C115677   8.364  16.501   6.494 -0.0889  0.1256  0.0404
 1065loPI    C215678   8.016  16.343   6.375 -0.0240 -0.0652  0.1019
 1065loPI    C315679   8.203  16.610   6.144 -0.0498 -0.2058 -0.0843
 1065loPI   PO415680   8.378  16.427   6.732  0.0346 -0.1963  0.1112
 1065loPI   GL115681   8.608  16.341   7.005  0.1618 -0.0724 -0.4093
 1065loPI   GL215682   8.903  16.431   7.083  0.0683  0.0189  0.0737
 1065loPI   C1A15683   8.432  16.455   7.426 -0.0257  0.0920 -0.0907
 1065loPI   C2A15684   8.267  16.622   7.759  0.0796  0.0241 -0.0469
 1065loPI   C3A15685   8.174  16.716   8.172 -0.0365 -0.3475  0.1459
 1065loPI   C4A15686   8.004  16.543   8.499  0.0231  0.0600  0.0086
 1065loPI   C5A15687   8.056  16.140   8.737  0.0473  0.1707 -0.1123
 1065loPI   C6A15688   8.161  15.724   8.808 -0.3789 -0.0754 -0.1017
 1065loPI   C1B15689   9.058  16.508   7.477 -0.0054  0.2121  0.3458
 1065loPI   C2B15690   9.212  16.512   7.855  0.1010 -0.1320  0.3993
 1065loPI   C3B15691   9.091  16.605   8.294  0.3628 -0.0146 -0.1693
 1065loPI   C4B15692   8.986  16.607   8.654  0.0674 -0.0286  0.0892
 1066loPI    C115693   6.499  12.605   6.328  0.1786  0.0628 -0.0440
 1066loPI    C215694   6.384  12.337   6.054  0.3868 -0.0035 -0.0679
 1066loPI    C315695   6.373  12.728   5.968  0.1363 -0.0059 -0.0528
 1066loPI   PO415696   6.401  12.530   6.513  0.0320 -0.2641  0.2850
 1066loPI   GL115697   6.604  12.498   6.858 -0.1481  0.0348 -0.0828
 1066loPI   GL215698   6.454  12.153   6.926 -0.0640 -0.0514 -0.1412
 1066loPI   C1A15699   6.597  12.652   7.342  0.2224 -0.1197  0.1174
 1066loPI   C2A15700   6.719  12.637   7.779 -0.4538 -0.0758 -0.1859
 1066loPI   C3A15701   6.529  12.698   8.168 -0.0004  0.2564 -0.1156
 1066loPI   C4A15702   6.479  12.672   8.641  0.0758 -0.0172 -0.2178
 1066loPI   C5A15703   6.361  12.792   8.982  0.2537 -0.3012  0.0965
 1066loPI   C6A15704   5.981  12.592   9.054 -0.1709 -0.2568  0.1910
 1066loPI   C1B15705   6.411  12.188   7.376  0.0908 -0.0281 -0.0608
 1066loPI   C2B15706   6.400  12.200   7.824  0.0234 -0.1835 -0.2420
 1066loPI   C3B15707   6.396  12.251   8.220 -0.0153  0.2437  0.0454
 1066loPI   C4B15708   6.107  11.978   8.410 -0.0965  0.0563  0.0521
 1067loPI    C115709   3.466  16.737   6.091  0.1216 -0.0385  0.0198
 1067loPI    C215710   3.352  16.962   5.781  0.0490 -0.0018  0.0728
 1067loPI    C315711   3.726  16.819   5.798  0.0636  0.0251 -0.0141
 1067loPI   PO415712   3.291  16.887   6.272  0.2184  0.0456  0.2761
 1067loPI   GL115713   3.284  17.110   6.575  0.0470 -0.3120 -0.2061
 1067loPI   GL215714   3.598  17.189   6.737  0.0817  0.0140  0.1278
 1067loPI   C1A15715   3.144  17.133   7.043  0.0178 -0.2503  0.1139
 1067loPI   C2A15716   3.068  17.128   7.410  0.1217  0.0918 -0.2877
 1067loPI   C3A15717   3.037  17.168   7.796 -0.0280  0.2565  0.2744
 1067loPI   C4A15718   3.092  17.061   8.185 -0.2894  0.2975  0.1097
 1067loPI   C5A15719   3.168  16.981   8.751  0.0656 -0.2268  0.1167
 1067loPI   C6A15720   3.549  17.018   8.987  0.2086  0.0100  0.1448
 1067loPI   C1B15721   3.679  16.969   7.226  0.0231 -0.1140 -0.2362
 1067loPI   C2B15722   3.704  17.073   7.646  0.0535  0.0409  0.0108
 1067loPI   C3B15723   3.601  17.069   8.067  0.2961  0.0545  0.1546
 1067loPI   C4B15724   3.699  16.869   8.537 -0.1037  0.3540 -0.0646
 1068loPI    C115725   4.722  12.310   6.364 -0.2997  0.0153 -0.0932
 1068loPI    C215726   5.020  12.142   6.156 -0.2620 -0.0623  0.0224
 1068loPI    C315727   4.721  12.327   5.964 -0.1659 -0.0284 -0.0959
 1068loPI   PO415728   4.816  12.100   6.615 -0.2582  0.1111 -0.1222
 1068loPI   GL115729   4.944  12.250   6.972 -0.1890 -0.0407 -0.0532
 1068loPI   GL215730   4.743  12.469   6.988 -0.0138 -0.1050 -0.2940
 1068loPI   C1A15731   5.036  12.546   7.424 -0.0798  0.0765  0.1153
 1068loPI   C2A15732   4.994  12.608   7.895 -0.1950 -0.0173 -0.1278
 1068loPI   C3A15733   4.918  12.607   8.270 -0.2535  0.1765 -0.1550
 1068loPI   C4A15734   4.756  12.528   8.631 -0.1569  0.0153  0.1155
 1068loPI   C5A15735   4.772  12.645   9.036  0.1023  0.2450 -0.0063
 1068loPI   C6A15736   5.015  12.435   9.364 -0.2939 -0.2883  0.0307
 1068loPI   C1B15737   4.527  12.547   7.485  0.3250  0.2407  0.1871
 1068loPI   C2B15738   4.390  12.509   7.866 -0.0228 -0.1403 -0.0911
 1068loPI   C3B15739   4.342  12.561   8.354  0.2676  0.0638  0.1702
 1068loPI   C4B15740   4.325  12.627   8.859  0.0606 -0.0911 -0.0272
 1069loPI    C115741  14.114  11.737   5.913  0.2846  0.1142 -0.0398
 1069loPI    C215742  14.298  11.459   5.692 -0.1307 -0.1150 -0.1059
 1069loPI    C315743  14.215  11.817   5.534  0.0191 -0.1027 -0.1586
 1069loPI   PO415744  14.001  11.595   6.049 -0.2768  0.0652  0.0863
 1069loPI   GL115745  14.087  11.693   6.450 -0.3062 -0.0190  0.2143
 1069loPI   GL215746  14.146  11.977   6.405 -0.0806  0.2574  0.0148
 1069loPI   C1A15747  14.068  11.438   6.786 -0.0858 -0.0357  0.0066
 1069loPI   C2A15748  14.038  11.378   7.201  0.0613 -0.0996 -0.1849
 1069loPI   C3A15749  14.038  11.372   7.642  0.2200 -0.0699 -0.0303
 1069loPI   C4A15750  14.247  11.458   8.061  0.3290 -0.1136  0.2086
 1069loPI   C5A15751  14.495  11.439   8.348 -0.1494 -0.0295 -0.2560
 1069loPI   C6A15752  14.844  11.422   8.598 -0.0519 -0.2722 -0.1327
 1069loPI   C1B15753  14.176  11.947   6.861  0.0397 -0.0113 -0.2118
 1069loPI   C2B15754  14.129  11.879   7.308  0.0363  0.0753 -0.1760
 1069loPI   C3B15755  14.203  11.882   7.735  0.2695 -0.0647 -0.2058
 1069loPI   C4B15756  14.307  11.930   8.109  0.0426 -0.2351  0.0019
 1070loPI    C115757   8.812   2.128   6.222  0.2877  0.1122  0.1518
 1070loPI    C215758   8.943   2.506   6.243  0.0003  0.2211  0.0414
 1070loPI    C315759   8.586   2.427   6.080  0.1197 -0.1145 -0.0664
 1070loPI   PO415760   8.837   2.076   6.478  0.0744  0.0351 -0.0597
 1070loPI   GL115761   8.801   2.163   6.850  0.1196  0.3485  0.0865
 1070loPI   GL215762   9.012   1.909   6.970 -0.0022 -0.0429  0.1600
 1070loPI   C1A15763   8.744   2.442   7.091 -0.0233  0.0341  0.0660
 1070loPI   C2A15764   8.903   2.553   7.415  0.0618 -0.1995  0.1363
 1070loPI   C3A15765   8.910   2.760   7.702  0.0203  0.2650 -0.1997
 1070loPI   C4A15766   8.834   2.803   8.061  0.2300  0.0835  0.1330
 1070loPI   C5A15767   8.887   2.855   8.527 -0.0150  0.2686 -0.2965
 1070loPI   C6A15768   8.677   2.674   8.923  0.0044 -0.0367  0.1640
 1070loPI   C1B15769   9.130   1.816   7.407  0.1386 -0.1820  0.4098
 1070loPI   C2B15770   9.193   1.854   7.776  0.0145  0.2124 -0.0292
 1070loPI   C3B15771   9.175   1.854   8.242  0.0669 -0.0993 -0.2650
 1070loPI   C4B15772   8.947   1.934   8.503  0.2114  0.1105 -0.0293
 1071loPI    C115773  13.359  14.621   5.484 -0.0950 -0.0946 -0.2055
 1071loPI    C215774  13.734  14.509   5.401 -0.0643 -0.1269 -0.0278
 1071loPI    C315775  13.579  14.836   5.229  0.0997 -0.0232  0.0193
 1071loPI   PO415776  13.394  14.568   5.776  0.4295 -0.1487 -0.0232
 1071loPI   GL115777  13.384  14.577   6.250  0.0954 -0.0069 -0.0010
 1071loPI   GL215778  13.688  14.585   6.409  0.1779 -0.0855  0.0063
 1071loPI   C1A15779  13.389  14.935   6.599  0.0065  0.3901 -0.0790
 1071loPI   C2A15780  13.181  15.030   7.034  0.0254 -0.2316 -0.2002
 1071loPI   C3A15781  13.282  15.062   7.539 -0.0058  0.0593  0.1935
 1071loPI   C4A15782  13.285  15.067   7.980  0.3996 -0.1171 -0.2932
 1071loPI   C5A15783  13.339  14.959   8.355 -0.1883 -0.1528 -0.3661
 1071loPI   C6A15784  13.433  14.858   8.815  0.0492  0.1915  0.0325
 1071loPI   C1B15785  13.510  14.483   6.850  0.0973  0.2260  0.0161
 1071loPI   C2B15786  13.526  14.696   7.252  0.1467  0.2338  0.1590
 1071loPI   C3B15787  13.636  14.670   7.726  0.0643 -0.3960  0.3442
 1071loPI   C4B15788  13.718  14.690   8.077 -0.3978  0.1737  0.1352
 1072loPI    C115789   7.443  10.066   5.980  0.0361 -0.0820  0.0265
 1072loPI    C215790   7.128   9.942   5.767  0.1126 -0.2784  0.0261
 1072loPI    C315791   7.496   9.816   5.673  0.2032  0.0162 -0.0257
 1072loPI   PO415792   7.311  10.109   6.232 -0.2377  0.1594  0.1658
 1072loPI   GL115793   7.188  10.280   6.676  0.3626 -0.3368  0.1762
 1072loPI   GL215794   6.986  10.446   6.894  0.3967 -0.0523 -0.3116
 1072loPI   C1A15795   7.167   9.979   7.087  0.1987  0.3221  0.1351
 1072loPI   C2A15796   7.173   9.951   7.528  0.1699 -0.0118 -0.2686
 1072loPI   C3A15797   7.273   9.926   8.037  0.0082 -0.1575 -0.2395
 1072loPI   C4A15798   7.305  10.015   8.434  0.0187 -0.0316 -0.0233
 1072loPI   C5A15799   7.334  10.028   8.842  0.1101  0.2121 -0.4589
 1072loPI   C6A15800   7.147   9.976   9.285 -0.0353  0.1161  0.1168
 1072loPI   C1B15801   6.974  10.386   7.302  0.1354 -0.1619 -0.1160
 1072loPI   C2B15802   7.016  10.424   7.773  0.2481  0.1522 -0.4337
 1072loPI   C3B15803   6.969  10.385   8.263 -0.3094 -0.0593  0.1215
 1072loPI   C4B15804   6.956  10.335   8.737  0.0286 -0.0624 -0.0262
 1073loPI    C115805  16.101   2.365   6.093 -0.3641 -0.1186  0.0996
 1073loPI    C215806  16.157   2.485   5.715  0.1986  0.0589  0.2295
 1073loPI    C315807  16.287   2.125   5.832 -0.1518 -0.0775  0.2109
 1073loPI   PO415808  16.166   2.651   6.157 -0.1031  0.0500 -0.0730
 1073loPI   GL115809  16.130   2.584   6.558  0.2275 -0.1415 -0.0491
 1073loPI   GL215810  16.431   2.682   6.575 -0.4197  0.1745 -0.0725
 1073loPI   C1A15811  16.152   2.397   6.949  0.0115  0.2004  0.0949
 1073loPI   C2A15812  16.047   2.310   7.283  0.2065  0.1015 -0.0607
 1073loPI   C3A15813  15.975   2.254   7.629 -0.1764  0.0950  0.1399
 1073loPI   C4A15814  16.206   2.371   7.952  0.0662 -0.2547  0.2154
 1073loPI   C5A15815  16.355   2.236   8.218  0.1290 -0.2941 -0.2058
 1073loPI   C6A15816  16.445   2.370   8.738 -0.0221 -0.4100  0.2253
 1073loPI   C1B15817  16.657   2.687   6.931 -0.0734  0.1780 -0.1921
 1073loPI   C2B15818  16.789   2.613   7.332 -0.1106  0.0569 -0.1886
 1073loPI   C3B15819  16.761   2.577   7.800 -0.0313  0.0931 -0.0505
 1073loPI   C4B15820  16.728   2.524   8.346 -0.0545  0.6307  0.2269
 1074loPI    C115821   7.323  11.231   6.337  0.1251 -0.0899 -0.0860
 1074loPI    C215822   6.993  11.130   6.135 -0.0456 -0.0320  0.1596
 1074loPI    C315823   7.293  11.317   5.947 -0.1909 -0.0005 -0.0447
 1074loPI   PO415824   7.244  11.007   6.629  0.0284 -0.0258 -0.0763
 1074loPI   GL115825   7.091  11.091   7.056 -0.0947  0.0869 -0.1443
 1074loPI   GL215826   7.159  10.820   7.080  0.2375  0.0294  0.1538
 1074loPI   C1A15827   6.924  11.280   7.447 -0.1711 -0.1004 -0.0231
 1074loPI   C2A15828   6.861  11.248   7.900 -0.0878 -0.1555 -0.2662
 1074loPI   C3A15829   6.771  11.356   8.333  0.2091 -0.1997 -0.1568
 1074loPI   C4A15830   6.590  11.213   8.751 -0.0075 -0.2345  0.0650
 1074loPI   C5A15831   6.100  11.128   8.902 -0.0222  0.0609  0.1100
 1074loPI   C6A15832   5.941  11.310   9.231  0.0812 -0.1298  0.3309
 1074loPI   C1B15833   7.187  10.836   7.440  0.2214 -0.0406  0.1587
 1074loPI   C2B15834   7.213  10.869   7.891 -0.0302 -0.0232  0.0869
 1074loPI   C3B15835   7.333  10.753   8.251 -0.0226 -0.2961 -0.0194
 1074loPI   C4B15836   7.302  10.684   8.698  0.1259 -0.2811 -0.0398
 1075loPI    C115837   6.252  17.097   6.153 -0.1123 -0.2962  0.0744
 1075loPI    C215838   5.971  16.867   5.985 -0.1247 -0.1800 -0.0651
 1075loPI    C315839   6.188  17.116   5.759 -0.1871  0.0265  0.0999
 1075loPI   PO415840   6.401  16.969   6.315 -0.1248  0.3224 -0.5287
 1075loPI   GL115841   6.711  17.113   6.627 -0.1052  0.0738  0.0757
 1075loPI   GL215842   6.843  17.389   6.859 -0.1650 -0.2048 -0.0794
 1075loPI   C1A15843   6.374  17.081   7.037 -0.0221  0.0194 -0.0040
 1075loPI   C2A15844   6.522  17.016   7.423 -0.0960 -0.0573 -0.0545
 1075loPI   C3A15845   6.471  16.980   7.912  0.1881  0.3346 -0.0023
 1075loPI   C4A15846   6.236  17.102   8.242 -0.1463 -0.0944 -0.0503
 1075loPI   C5A15847   6.033  17.051   8.630 -0.0199 -0.2560 -0.1635
 1075loPI   C6A15848   5.998  17.209   9.011  0.0736  0.0058  0.0871
 1075loPI   C1B15849   6.685  17.479   7.301 -0.1299  0.2721  0.0934
 1075loPI   C2B15850   6.561  17.418   7.687 -0.1098  0.3486 -0.0055
 1075loPI   C3B15851   6.558  17.510   8.059  0.0637  0.1480  0.2184
 1075loPI   C4B15852   6.792  17.727   8.288  0.1701  0.1111 -0.0111
 1076loPI    C115853   3.345  13.725   6.262 -0.1414 -0.3205  0.0274
 1076loPI    C215854   3.156  13.552   5.955 -0.0099 -0.0648 -0.2014
 1076loPI    C315855   3.505  13.738   5.896  0.0210 -0.0200  0.1059
 1076loPI   PO415856   3.278  13.611   6.442 -0.0893  0.4433  0.4361
 1076loPI   GL115857   2.983  13.603   6.690  0.0219  0.0725 -0.1736
 1076loPI   GL215858   3.265  13.777   6.939 -0.0914  0.0426 -0.0511
 1076loPI   C1A15859   2.972  13.412   7.102 -0.1086  0.0411 -0.1039
 1076loPI   C2A15860   2.785  13.277   7.565  0.1642 -0.1064 -0.1492
 1076loPI   C3A15861   2.763  13.267   8.097 -0.0316 -0.2065  0.0793
 1076loPI   C4A15862   2.662  13.569   8.431 -0.1604  0.0915 -0.1575
 1076loPI   C5A15863   2.737  13.713   8.811 -0.0280  0.4268  0.0936
 1076loPI   C6A15864   2.509  14.048   8.983  0.4073 -0.0064  0.4863
 1076loPI   C1B15865   3.325  13.589   7.367 -0.3155 -0.2495 -0.0739
 1076loPI   C2B15866   3.217  13.566   7.840  0.0292  0.1465 -0.1212
 1076loPI   C3B15867   3.215  13.475   8.336  0.1641 -0.0162  0.2437
 1076loPI   C4B15868   3.234  13.146   8.704  0.2718 -0.1012  0.0709
 1077loPI    C115869  13.150  14.999   6.090 -0.1182  0.1470 -0.1198
 1077loPI    C215870  13.044  15.197   6.421  0.1077  0.0095  0.0379
 1077loPI    C315871  13.345  15.332   6.194  0.2636 -0.1499  0.1470
 1077loPI   PO415872  12.856  14.768   6.195  0.0869  0.1398 -0.1135
 1077loPI   GL115873  12.712  14.827   6.626  0.1411  0.1075  0.1075
 1077loPI   GL215874  12.939  14.550   6.684  0.2306 -0.0672  0.1629
 1077loPI   C1A15875  12.681  14.881   7.104 -0.1937  0.2104 -0.0609
 1077loPI   C2A15876  12.800  14.834   7.417 -0.0456 -0.0581  0.1815
 1077loPI   C3A15877  12.734  14.787   7.735 -0.4370 -0.2593  0.1202
 1077loPI   C4A15878  12.924  14.758   8.122 -0.0937  0.3145 -0.1271
 1077loPI   C5A15879  12.943  14.659   8.613  0.1010 -0.1895  0.1159
 1077loPI   C6A15880  13.160  14.329   8.908 -0.0365 -0.1281  0.1596
 1077loPI   C1B15881  13.098  14.509   7.098  0.1869 -0.2315 -0.4557
 1077loPI   C2B15882  13.191  14.428   7.496 -0.2124 -0.1850  0.1070
 1077loPI   C3B15883  13.232  14.412   7.879  0.2866  0.1246 -0.2017
 1077loPI   C4B15884  13.280  14.427   8.301  0.2129  0.0276 -0.1523
 1078loPI    C115885   8.319   8.181   5.960  0.1696  0.0374 -0.1311
 1078loPI    C215886   7.946   8.040   5.927  0.0739  0.2236  0.1228
 1078loPI    C315887   8.234   7.901   5.687 -0.1050 -0.0984  0.0883
 1078loPI   PO415888   8.351   8.201   6.227  0.2225 -0.2736 -0.4162
 1078loPI   GL115889   8.407   8.092   6.637  0.3067  0.1387  0.2803
 1078loPI   GL215890   8.237   8.314   6.755 -0.1942 -0.1328  0.0341
 1078loPI   C1A15891   8.430   8.031   7.096  0.0190 -0.1267 -0.2605
 1078loPI   C2A15892   8.373   8.180   7.569  0.0059  0.0296 -0.2913
 1078loPI   C3A15893   8.256   8.054   7.950 -0.1717 -0.1279  0.1756
 1078loPI   C4A15894   8.293   8.157   8.410  0.0359 -0.0678  0.0786
 1078loPI   C5A15895   8.303   7.935   8.777  0.1503 -0.0083  0.0248
 1078loPI   C6A15896   8.559   7.835   9.057  0.0711 -0.0262 -0.3086
 1078loPI   C1B15897   8.169   8.639   7.100 -0.1910  0.1709  0.1481
 1078loPI   C2B15898   8.142   8.632   7.490 -0.2143 -0.2293  0.0996
 1078loPI   C3B15899   8.162   8.581   7.905  0.3260 -0.0542 -0.1933
 1078loPI   C4B15900   8.123   8.666   8.337 -0.3469  0.0951 -0.1165
 1079loPI    C115901   4.866  16.354   5.974  0.1260 -0.0515  0.0056
 1079loPI    C215902   4.692  16.510   5.649 -0.2381 -0.0818  0.1804
 1079loPI    C315903   5.088  16.457   5.658 -0.1615  0.3956 -0.0613
 1079loPI   PO415904   4.677  16.357   6.133 -0.0324 -0.0317  0.1201
 1079loPI   GL115905   4.819  16.345   6.555  0.1766 -0.2655 -0.0262
 1079loPI   GL215906   4.991  16.563   6.711  0.0019  0.2496 -0.0580
 1079loPI   C1A15907   4.805  16.172   7.028 -0.1037 -0.1152  0.0892
 1079loPI   C2A15908   4.759  16.198   7.501 -0.0567  0.0709  0.2885
 1079loPI   C3A15909   4.775  16.251   7.869  0.0476  0.0125  0.4490
 1079loPI   C4A15910   4.888  16.080   8.322 -0.3410 -0.2262  0.0217
 1079loPI   C5A15911   4.859  16.224   8.764  0.0159  0.1908  0.1198
 1079loPI   C6A15912   4.960  16.654   8.963 -0.0278 -0.1433 -0.1053
 1079loPI   C1B15913   4.951  16.639   7.137 -0.4198 -0.0250 -0.0496
 1079loPI   C2B15914   4.989  16.634   7.558 -0.0132 -0.1726 -0.1593
 1079loPI   C3B15915   5.079  16.630   8.073 -0.0681  0.0473  0.1566
 1079loPI   C4B15916   5.120  16.690   8.465  0.0793 -0.3860 -0.7174
 1080POPI    C115917   4.278   9.880   6.428 -0.0864  0.0598 -0.1935
 1080POPI    C215918   4.480   9.903   6.084  0.1943  0.0617 -0.0314
 1080POPI    C315919   4.630  10.070   6.415 -0.0346 -0.0103  0.1107
 1080POPI   PO415920   4.147   9.706   6.565 -0.0855 -0.1495  0.3690
 1080POPI   GL115921   4.122   9.518   6.906 -0.0365 -0.1902 -0.0758
 1080POPI   GL215922   4.255   9.346   6.980  0.0835  0.3768  0.1923
 1080POPI   C1A15923   4.197   9.464   7.426 -0.0452 -0.0740  0.1344
 1080POPI   D2A15924   4.203   9.426   7.847 -0.0362 -0.0566  0.3106
 1080POPI   C3A15925   4.084   9.603   8.179 -0.2301  0.4383  0.1348
 1080POPI   C4A15926   4.237   9.536   8.623 -0.2488 -0.0562 -0.0912
 1080POPI   C1B15927   4.543   9.069   7.264  0.2576  0.2907 -0.0199
 1080POPI   C2B15928   4.595   9.063   7.725  0.0185 -0.2484 -0.1590
 1080POPI   C3B15929   4.509   9.165   8.132  0.1841 -0.0366  0.0217
 1080POPI   C4B15930   4.707   9.318   8.536  0.1043  0.2609 -0.1480
 1081POPI    C115931   8.990   8.753   6.023 -0.0760 -0.3037 -0.1871
 1081POPI    C215932   8.603   8.672   5.963 -0.1471 -0.1028 -0.0116
 1081POPI    C315933   8.793   8.932   5.725 -0.1239 -0.1870 -0.0859
 1081POPI   PO415934   8.964   8.755   6.306 -0.2542 -0.2215  0.4473
 1081POPI   GL115935   8.880   8.971   6.795 -0.0246  0.1617  0.0869
 1081POPI   GL215936   9.197   8.744   6.726 -0.2222 -0.2328 -0.0724
 1081POPI   C1A15937   8.858   9.059   7.219 -0.0834  0.0880 -0.0362
 1081POPI   D2A15938   8.934   9.245   7.508  0.2427 -0.1390 -0.1309
 1081POPI   C3A15939   8.849   9.139   7.846  0.0715  0.2114  0.0541
 1081POPI   C4A15940   8.891   9.118   8.317 -0.0376 -0.0507  0.0869
 1081POPI   C1B15941   9.212   8.719   7.194  0.3300 -0.3198 -0.1122
 1081POPI   C2B15942   9.218   8.799   7.651  0.0760 -0.3765  0.1289
 1081POPI   C3B15943   9.304   8.803   8.174 -0.1022 -0.1091 -0.1641
 1081POPI   C4B15944   9.363   8.798   8.630 -0.1142  0.0016 -0.2236
 1082POPI    C115945   9.103  13.102   6.130 -0.0964  0.1171  0.0291
 1082POPI    C215946   8.732  13.239   6.072 -0.1431 -0.0619 -0.1023
 1082POPI    C315947   8.967  13.157   5.758  0.0494  0.1593 -0.0186
 1082POPI   PO415948   9.089  13.219   6.428 -0.0703  0.3795  0.2850
 1082POPI   GL115949   9.072  13.083   6.764 -0.0859 -0.0650  0.2176
 1082POPI   GL215950   9.244  12.911   6.939  0.0532  0.3238 -0.1202
 1082POPI   C1A15951   9.016  13.353   7.092 -0.3743  0.0082 -0.0150
 1082POPI   D2A15952   8.553  13.383   7.402 -0.1095 -0.1359 -0.0589
 1082POPI   C3A15953   8.499  13.181   7.786 -0.1347  0.2598 -0.1338
 1082POPI   C4A15954   8.749  12.993   7.979 -0.2659  0.2673  0.0931
 1082POPI   C1B15955   9.355  12.954   7.344  0.2412 -0.0325  0.1690
 1082POPI   C2B15956   9.344  12.864   7.824  0.2025 -0.0359 -0.0943
 1082POPI   C3B15957   9.305  12.872   8.303  0.0359  0.2030 -0.3539
 1082POPI   C4B15958   9.321  12.542   8.634  0.2283 -0.0062 -0.2365
 1083POPI    C115959   9.921   4.059   6.411 -0.1993 -0.0609  0.2090
 1083POPI    C215960   9.911   3.680   6.282  0.3130 -0.0070 -0.0153
 1083POPI    C315961   9.735   3.969   6.068  0.3133 -0.0552 -0.0811
 1083POPI   PO415962   9.869   4.051   6.648 -0.2774 -0.0877 -0.0773
 1083POPI   GL115963   9.719   4.186   6.985 -0.3126  0.2479  0.0790
 1083POPI   GL215964   9.946   4.323   7.179 -0.1813  0.1875 -0.0572
 1083POPI   C1A15965   9.612   4.012   7.395 -0.1884 -0.0632  0.1142
 1083POPI   D2A15966   9.631   4.007   7.887 -0.1136  0.1214 -0.0528
 1083POPI   C3A15967   9.635   4.107   8.311 -0.0535  0.2004  0.0912
 1083POPI   C4A15968   9.636   4.050   8.734 -0.2557  0.2589  0.2248
 1083POPI   C1B15969  10.030   4.204   7.635  0.1909  0.1240 -0.1299
 1083POPI   C2B15970  10.121   4.161   8.079  0.0319  0.2002 -0.3237
 1083POPI   C3B15971  10.128   4.328   8.442  0.0987  0.1069 -0.0022
 1083POPI   C4B15972   9.758   4.513   8.560  0.2185  0.0502  0.2435
 1084POPI    C115973   3.533  12.987   6.450 -0.2187 -0.3349 -0.1858
 1084POPI    C215974   3.716  12.957   6.096  0.2855  0.3780 -0.0067
 1084POPI    C315975   3.473  13.266   6.170 -0.0075  0.1057  0.1949
 1084POPI   PO415976   3.684  12.933   6.581 -0.4206  0.3805  0.0628
 1084POPI   GL115977   3.860  12.945   6.970  0.1108 -0.0445 -0.3063
 1084POPI   GL215978   4.113  13.145   6.878  0.0874  0.0403  0.3044
 1084POPI   C1A15979   3.518  13.126   7.197 -0.1090 -0.3251  0.3890
 1084POPI   D2A15980   3.497  13.137   7.571  0.0598 -0.0214 -0.0676
 1084POPI   C3A15981   3.191  13.077   7.870 -0.1679  0.1734 -0.1849
 1084POPI   C4A15982   3.092  12.955   8.257 -0.0844 -0.2263 -0.2043
 1084POPI   C1B15983   4.055  13.441   7.197 -0.2818  0.0477  0.1227
 1084POPI   C2B15984   3.794  13.562   7.567  0.3826  0.0922  0.2277
 1084POPI   C3B15985   3.687  13.561   7.954 -0.0067  0.2176 -0.1365
 1084POPI   C4B15986   3.822  13.499   8.382 -0.0137  0.0212 -0.0502
 1085POPI    C115987   8.544  16.967   6.388  0.0639 -0.0506 -0.0092
 1085POPI    C215988   8.783  17.181   6.149 -0.1752  0.1753 -0.0511
 1085POPI    C315989   8.796  16.782   6.139  0.1875  0.1837 -0.0622
 1085POPI   PO415990   8.609  17.069   6.631  0.2624 -0.1944  0.1118
 1085POPI   GL115991   8.775  16.917   7.002  0.0898  0.0832 -0.1615
 1085POPI   GL215992   8.487  16.797   7.008 -0.0127 -0.2880  0.3170
 1085POPI   C1A15993   8.668  16.829   7.546  0.1139  0.2242  0.0241
 1085POPI   D2A15994   8.572  16.920   7.968 -0.2511 -0.1220 -0.1531
 1085POPI   C3A15995   8.670  17.002   8.362 -0.2234  0.2609 -0.2284
 1085POPI   C4A15996   8.692  16.954   8.839  0.1283 -0.0581 -0.1869
 1085POPI   C1B15997   8.247  16.989   7.343  0.1128 -0.1209  0.1593
 1085POPI   C2B15998   8.169  17.098   7.749 -0.1166 -0.1275  0.1702
 1085POPI   C3B15999   8.141  17.184   8.130  0.0195  0.0641  0.1123
 1085POPI   C4B16000   8.194  17.054   8.652 -0.1991 -0.3323  0.0415
 1086POPI    C116001   7.281  11.856   6.353  0.0913 -0.3344 -0.1466
 1086POPI    C216002   6.968  11.624   6.262  0.0058 -0.1559 -0.3123
 1086POPI    C316003   7.111  11.883   5.992 -0.0679  0.1754 -0.0415
 1086POPI   PO416004   7.252  11.932   6.525 -0.0462 -0.2132 -0.2900
 1086POPI   GL116005   7.037  11.950   6.928 -0.0671 -0.1354 -0.1466
 1086POPI   GL216006   7.383  11.900   7.003 -0.2688  0.1720 -0.2689
 1086POPI   C1A16007   6.940  12.187   7.312 -0.2695  0.0242 -0.0457
 1086POPI   D2A16008   7.075  12.165   7.754 -0.1685  0.1447  0.0368
 1086POPI   C3A16009   6.909  12.209   8.087  0.0464  0.0113 -0.0179
 1086POPI   C4A16010   6.837  12.234   8.552 -0.2026  0.0433  0.0950
 1086POPI   C1B16011   7.253  11.752   7.409  0.0146  0.0445  0.1284
 1086POPI   C2B16012   7.113  11.664   7.811 -0.0717 -0.0205  0.4669
 1086POPI   C3B16013   7.134  11.779   8.217  0.3180  0.3281  0.0486
 1086POPI   C4B16014   7.053  11.793   8.674 -0.1975  0.3086 -0.0763
 1087POPI    C116015   7.037   2.145   6.408 -0.0860  0.1683  0.0649
 1087POPI    C216016   6.923   2.528   6.389 -0.1209  0.1542 -0.0118
 1087POPI    C316017   7.312   2.435   6.391 -0.1119  0.1922  0.0537
 1087POPI   PO416018   6.936   2.067   6.562 -0.0130 -0.3915 -0.1097
 1087POPI   GL116019   6.971   2.379   6.903  0.1751 -0.1073 -0.0895
 1087POPI   GL216020   7.287   2.188   6.941  0.2044  0.0341  0.0324
 1087POPI   C1A16021   6.722   2.234   7.190  0.1449 -0.1560  0.0315
 1087POPI   D2A16022   6.625   2.272   7.686  0.2141 -0.0028  0.2246
 1087POPI   C3A16023   6.640   2.153   8.077 -0.2617 -0.0250  0.0830
 1087POPI   C4A16024   6.586   2.259   8.551 -0.1206 -0.0111 -0.0703
 1087POPI   C1B16025   7.272   2.088   7.340  0.2193 -0.2448 -0.1698
 1087POPI   C2B16026   7.233   1.978   7.689  0.0535 -0.2541  0.1162
 1087POPI   C3B16027   7.131   2.219   8.058 -0.1902 -0.2118  0.1262
 1087POPI   C4B16028   7.055   2.276   8.540 -0.2523  0.3841  0.0404
 1088POPI    C116029   4.305  15.499   6.126 -0.1212  0.2442 -0.2353
 1088POPI    C216030   4.617  15.291   5.987 -0.0089  0.2909 -0.0578
 1088POPI    C316031   4.380  15.490   5.733 -0.0642  0.0230 -0.2206
 1088POPI   PO416032   4.330  15.516   6.394 -0.0964 -0.0315 -0.1141
 1088POPI   GL116033   4.383  15.675   6.852 -0.3079  0.0738 -0.0073
 1088POPI   GL216034   4.251  16.039   6.771 -0.1160 -0.1330  0.0479
 1088POPI   C1A16035   4.508  15.789   7.247 -0.0719 -0.2195  0.1424
 1088POPI   D2A16036   4.510  15.851   7.621  0.2630 -0.0599 -0.0870
 1088POPI   C3A16037   4.649  15.667   7.996  0.1809  0.2069 -0.2530
 1088POPI   C4A16038   4.857  15.436   8.217  0.0318  0.0419  0.2971
 1088POPI   C1B16039   4.263  16.213   7.241 -0.1805  0.1150 -0.0213
 1088POPI   C2B16040   4.222  16.255   7.709 -0.0472 -0.4175  0.1379
 1088POPI   C3B16041   4.346  16.155   8.104 -0.0045  0.0562  0.0644
 1088POPI   C4B16042   4.371  16.054   8.553 -0.4240  0.0706  0.0012
 1089POPI    C116043   4.044   4.840   5.940  0.2916 -0.0496 -0.1396
 1089POPI    C216044   3.976   5.070   5.620  0.3375  0.0549 -0.0749
 1089POPI    C316045   3.991   4.672   5.581 -0.2337  0.0284 -0.1060
 1089POPI   PO416046   3.956   4.973   6.118  0.0312  0.1136  0.1375
 1089POPI   GL116047   3.921   5.071   6.660  0.0661  0.0723 -0.2559
 1089POPI   GL216048   3.830   4.723   6.725 -0.1745 -0.1504  0.1912
 1089POPI   C1A16049   4.256   5.352   6.925 -0.0624  0.2532  0.0693
 1089POPI   D2A16050   4.093   5.465   7.295 -0.1118  0.1101 -0.0271
 1089POPI   C3A16051   4.124   5.373   7.723  0.1052  0.0310 -0.2827
 1089POPI   C4A16052   4.109   5.327   8.100 -0.1957 -0.0257  0.0965
 1089POPI   C1B16053   3.916   4.957   7.167  0.0157 -0.1407  0.0124
 1089POPI   C2B16054   3.928   4.934   7.651 -0.1535  0.2322  0.1414
 1089POPI   C3B16055   3.973   4.874   8.183 -0.2993 -0.0351 -0.5186
 1089POPI   C4B16056   4.059   5.206   8.584 -0.0752 -0.0306 -0.1009
 1090POPI    C116057  10.906   0.440   6.534 -0.0761  0.2316 -0.0961
 1090POPI    C216058  10.667   0.487   6.217 -0.0492  0.1267 -0.1322
 1090POPI    C316059  11.033   0.332   6.170 -0.0233  0.1652 -0.0583
 1090POPI   PO416060  10.676   0.574   6.758 -0.2924 -0.3385 -0.1805
 1090POPI   GL116061  10.626   0.821   7.200  0.1173  0.1010 -0.1125
 1090POPI   GL216062  10.824   1.035   7.200  0.3108 -0.1805 -0.0051
 1090POPI   C1A16063  10.695   0.887   7.669 -0.0524 -0.0406 -0.0217
 1090POPI   D2A16064  10.634   0.973   8.039  0.1132 -0.2847  0.3009
 1090POPI   C3A16065  10.593   1.065   8.447 -0.3825  0.2074 -0.0998
 1090POPI   C4A16066  10.531   0.994   8.872 -0.3473  0.1488  0.1506
 1090POPI   C1B16067  11.002   1.214   7.511 -0.0846 -0.0146 -0.1019
 1090POPI   C2B16068  11.097   1.178   7.956  0.1225  0.2094  0.1416
 1090POPI   C3B16069  11.121   1.061   8.314 -0.1592 -0.1798  0.2189
 1090POPI   C4B16070  11.050   1.161   8.707 -0.1057  0.0169  0.1858
 1091POPI    C116071  13.979   6.367   5.888  0.0238  0.0758 -0.4173
 1091POPI    C216072  14.273   6.112   5.794  0.1305  0.0514 -0.0341
 1091POPI    C316073  13.901   5.977   5.850  0.1754 -0.0136  0.1118
 1091POPI   PO416074  14.123   6.477   6.080  0.0093  0.1124  0.0891
 1091POPI   GL116075  14.329   6.705   6.342 -0.0314  0.0313 -0.3683
 1091POPI   GL216076  14.299   6.491   6.583 -0.2150 -0.0761  0.3134
 1091POPI   C1A16077  14.381   7.031   6.668  0.0624  0.1084  0.1324
 1091POPI   D2A16078  14.453   7.090   6.955 -0.0669  0.0878 -0.1956
 1091POPI   C3A16079  14.598   7.083   7.375  0.2735  0.3203  0.1867
 1091POPI   C4A16080  14.515   7.057   7.806  0.0751  0.0422  0.1126
 1091POPI   C1B16081  14.367   6.517   7.002 -0.0897  0.0936  0.1807
 1091POPI   C2B16082  14.434   6.572   7.391  0.1190  0.2844 -0.2339
 1091POPI   C3B16083  14.486   6.583   7.850  0.3741  0.0300  0.0641
 1091POPI   C4B16084  14.515   6.562   8.300 -0.1862  0.1588  0.0775
 1092POPI    C116085  15.867   6.830   5.770 -0.0911  0.2847  0.1803
 1092POPI    C216086  15.528   6.801   5.559 -0.0472  0.2637  0.1119
 1092POPI    C316087  15.875   6.869   5.372  0.0072  0.1410  0.1672
 1092POPI   PO416088  15.824   6.945   5.903 -0.2643 -0.1624  0.0586
 1092POPI   GL116089  16.086   6.811   6.293  0.1456  0.0287  0.0282
 1092POPI   GL216090  15.781   6.722   6.424 -0.1500  0.2751 -0.0209
 1092POPI   C1A16091  16.206   6.760   6.758  0.0960  0.2488  0.1060
 1092POPI   D2A16092  16.273   6.944   7.099  0.0014  0.2619 -0.2144
 1092POPI   C3A16093  16.320   6.874   7.538  0.0180 -0.3875 -0.5215
 1092POPI   C4A16094  16.360   6.763   7.885 -0.3086 -0.3882 -0.2275
 1092POPI   C1B16095  15.707   6.705   6.896  0.0386 -0.0541  0.2941
 1092POPI   C2B16096  15.866   6.674   7.239  0.0811  0.0949 -0.1322
 1092POPI   C3B16097  15.847   6.723   7.685 -0.1952  0.2404 -0.4826
 1092POPI   C4B16098  15.802   6.712   8.099  0.0807  0.1499  0.1451
 1093POPI    C116099   5.070  15.838   6.106 -0.2683  0.1287  0.3351
 1093POPI    C216100   4.716  15.825   5.921 -0.0987  0.3781 -0.0187
 1093POPI    C316101   5.046  15.912   5.714  0.2223 -0.1782  0.2386
 1093POPI   PO416102   5.062  15.828   6.344  0.2733 -0.0396 -0.2260
 1093POPI   GL116103   4.908  15.717   6.833 -0.2284  0.2522  0.1570
 1093POPI   GL216104   5.208  15.575   6.739 -0.0509 -0.1212  0.0801
 1093POPI   C1A16105   5.060  15.763   7.275  0.1765  0.3642 -0.1084
 1093POPI   D2A16106   4.996  15.808   7.672 -0.4824 -0.2060 -0.1711
 1093POPI   C3A16107   5.193  15.760   8.073  0.1664  0.3121  0.2282
 1093POPI   C4A16108   5.319  15.599   8.415 -0.2246 -0.0099 -0.0243
 1093POPI   C1B16109   5.375  15.368   7.172 -0.0924  0.2587 -0.0707
 1093POPI   C2B16110   5.480  15.221   7.491 -0.1210 -0.1313  0.0847
 1093POPI   C3B16111   5.759  14.859   7.683  0.0017 -0.1141  0.0654
 1093POPI   C4B16112   5.755  14.769   8.143  0.0872  0.0705 -0.0840
 1094POPI    C116113   1.237  13.176   5.782  0.0665 -0.2091  0.0381
 1094POPI    C216114   1.636  13.184   5.754  0.0609  0.1134  0.0046
 1094POPI    C316115   1.412  13.208   5.423  0.0126  0.2481  0.0468
 1094POPI   PO416116   1.268  12.920   5.972 -0.1514  0.1150 -0.0838
 1094POPI   GL116117   1.211  12.781   6.411  0.1652  0.0003 -0.1318
 1094POPI   GL216118   0.959  12.879   6.531 -0.1026  0.0218  0.1340
 1094POPI   C1A16119   0.906  12.411   6.650  0.1684 -0.0076 -0.0532
 1094POPI   D2A16120   0.769  12.486   7.098  0.3555  0.0304 -0.0222
 1094POPI   C3A16121   0.808  12.427   7.585  0.1017  0.1606 -0.0605
 1094POPI   C4A16122   0.864  12.402   8.062 -0.1648  0.3604  0.5554
 1094POPI   C1B16123   0.897  13.004   6.923  0.1516  0.1694 -0.3888
 1094POPI   C2B16124   0.841  13.147   7.286 -0.0107  0.1555  0.1102
 1094POPI   C3B16125   0.764  13.096   7.680  0.1660 -0.1213 -0.0108
 1094POPI   C4B16126   0.918  13.017   8.121  0.0807  0.2265 -0.0048
 1095POPI    C116127   4.192   0.445   5.873  0.0707 -0.0151  0.1603
 1095POPI    C216128   4.037   0.733   5.642  0.1217 -0.2172 -0.1317
 1095POPI    C316129   4.365   0.805   5.858 -0.0189  0.0228  0.0062
 1095POPI   PO416130   3.889   0.376   6.026 -0.1300  0.3073  0.0448
 1095POPI   GL116131   3.824   0.364   6.495 -0.5056  0.0279 -0.2213
 1095POPI   GL216132   4.098   0.134   6.540 -0.1035 -0.0575 -0.2693
 1095POPI   C1A16133   3.471   0.405   6.763 -0.1347  0.2324  0.0229
 1095POPI   D2A16134   3.482   0.205   7.148 -0.3893 -0.3125  0.2368
 1095POPI   C3A16135   3.376   0.233   7.542  0.1573 -0.1173 -0.0971
 1095POPI   C4A16136   3.441   0.319   7.933  0.0087 -0.1007 -0.2295
 1095POPI   C1B16137   3.988   0.234   6.968  0.1214 -0.1666  0.0857
 1095POPI   C2B16138   3.940   0.219   7.450  0.3080  0.0369 -0.0079
 1095POPI   C3B16139   3.946   0.329   7.791  0.1043 -0.1921  0.0019
 1095POPI   C4B16140   3.957   0.242   8.196  0.1061  0.2863 -0.1830
 1096POPI    C116141   9.527   4.485   6.608  0.2199 -0.0356 -0.0330
 1096POPI    C216142   9.307   4.766   6.428  0.0269 -0.1524  0.0182
 1096POPI    C316143   9.358   4.411   6.253 -0.0110 -0.2030  0.1090
 1096POPI   PO416144   9.783   4.606   6.706 -0.1792 -0.3073 -0.1132
 1096POPI   GL116145   9.888   4.787   7.003  0.2196  0.0017 -0.1007
 1096POPI   GL216146  10.239   4.808   7.041  0.2355  0.3368  0.1680
 1096POPI   C1A16147  10.061   4.719   7.499  0.2573 -0.0125  0.1559
 1096POPI   D2A16148  10.046   4.623   7.968  0.0060 -0.0394  0.2271
 1096POPI   C3A16149  10.201   4.770   8.208  0.3504  0.0867 -0.0631
 1096POPI   C4A16150  10.222   4.775   8.561 -0.3341  0.2635 -0.0712
 1096POPI   C1B16151  10.517   4.875   7.251 -0.0865  0.3523  0.0169
 1096POPI   C2B16152  10.616   4.883   7.576  0.0714  0.0849 -0.4061
 1096POPI   C3B16153  10.655   4.919   8.058 -0.0307  0.1656 -0.1153
 1096POPI   C4B16154  10.656   4.963   8.417  0.1275  0.3199  0.3416
 1097POPI    C116155   2.833   8.941   6.232  0.0949 -0.0470 -0.0598
 1097POPI    C216156   2.582   9.016   6.535  0.1728  0.1092 -0.0326
 1097POPI    C316157   2.580   8.658   6.357 -0.0934  0.1204 -0.0554
 1097POPI   PO416158   3.051   9.071   6.284 -0.1883 -0.2861 -0.1022
 1097POPI   GL116159   3.060   9.112   6.769  0.0377  0.4544  0.0929
 1097POPI   GL216160   2.985   8.797   6.745  0.2511  0.3956 -0.1765
 1097POPI   C1A16161   3.191   9.119   7.213  0.2551  0.2112 -0.2582
 1097POPI   D2A16162   3.554   9.229   7.377 -0.2212 -0.2056  0.1376
 1097POPI   C3A16163   3.682   9.283   7.878  0.0861 -0.0121 -0.0340
 1097POPI   C4A16164   3.498   9.259   8.270  0.0655 -0.3054  0.0076
 1097POPI   C1B16165   3.049   8.638   7.107 -0.2750  0.0481  0.2924
 1097POPI   C2B16166   2.820   8.486   7.393 -0.1165 -0.1298 -0.0031
 1097POPI   C3B16167   2.334   8.647   7.568  0.2052 -0.1835  0.1898
 1097POPI   C4B16168   1.960   8.817   7.624 -0.1694 -0.2232 -0.2034
 1098POPI    C116169   4.529  11.092   6.408  0.0176 -0.0193  0.1075
 1098POPI    C216170   4.714  10.949   6.084 -0.1962 -0.1799  0.0543
 1098POPI    C316171   4.632  11.340   6.111  0.0002 -0.1341  0.0050
 1098POPI   PO416172   4.657  11.000   6.624 -0.1349 -0.0300  0.0226
 1098POPI   GL116173   4.690  10.685   6.955  0.2755  0.2427 -0.1029
 1098POPI   GL216174   4.404  10.891   7.057  0.2291 -0.0856 -0.1705
 1098POPI   C1A16175   4.856  10.657   7.396  0.3926 -0.1066  0.0024
 1098POPI   D2A16176   5.011  10.930   7.616  0.1085 -0.0713 -0.1761
 1098POPI   C3A16177   4.767  11.229   7.854 -0.0369  0.2463 -0.0603
 1098POPI   C4A16178   4.432  11.134   8.169 -0.1913 -0.1225  0.1798
 1098POPI   C1B16179   4.425  10.886   7.549  0.2184 -0.1971  0.0402
 1098POPI   C2B16180   4.582  10.751   7.912 -0.0512  0.0128  0.1039
 1098POPI   C3B16181   4.615  10.719   8.335 -0.2476  0.1832  0.1688
 1098POPI   C4B16182   4.816  10.925   8.615  0.1605  0.1174 -0.1364
 1099POPI    C116183   1.410  13.646   5.735 -0.2388 -0.2019  0.0704
 1099POPI    C216184   1.113  13.914   5.728  0.0302  0.1002 -0.0264
 1099POPI    C316185   1.170  13.670   5.416 -0.1014  0.0554 -0.0160
 1099POPI   PO416186   1.358  13.568   6.010  0.0117  0.2574  0.0568
 1099POPI   GL116187   1.369  13.626   6.393 -0.0077 -0.0065  0.0014
 1099POPI   GL216188   1.317  13.405   6.678 -0.2234  0.1158  0.1103
 1099POPI   C1A16189   1.123  13.883   6.678  0.0770  0.0651 -0.1683
 1099POPI   D2A16190   0.994  14.206   6.934  0.3464  0.1453  0.1787
 1099POPI   C3A16191   1.007  14.154   7.406  0.2001  0.4713 -0.1588
 1099POPI   C4A16192   1.080  14.081   7.839 -0.3181  0.2656  0.0110
 1099POPI   C1B16193   1.308  13.315   7.121  0.0637 -0.0364  0.2190
 1099POPI   C2B16194   1.303  13.179   7.595  0.0706 -0.2005  0.0090
 1099POPI   C3B16195   1.312  13.223   7.931 -0.0365 -0.0567  0.0180
 1099POPI   C4B16196   1.327  13.103   8.355 -0.0627 -0.3008 -0.2685
 1100POPI    C116197   2.283  12.093   6.209 -0.1475 -0.1904  0.1539
 1100POPI    C216198   2.174  12.427   6.400 -0.0291 -0.0060 -0.0944
 1100POPI    C316199   2.065  12.370   6.020  0.0521 -0.1961 -0.0901
 1100POPI   PO416200   2.469  12.018   6.262 -0.2380  0.1658  0.0957
 1100POPI   GL116201   2.706  11.968   6.754  0.2043  0.1455  0.0006
 1100POPI   GL216202   2.985  11.849   6.827  0.1487  0.0730  0.5136
 1100POPI   C1A16203   2.664  11.957   7.224  0.0293 -0.1282  0.2523
 1100POPI   D2A16204   2.478  11.924   7.602  0.1321  0.1601  0.1516
 1100POPI   C3A16205   2.656  11.696   8.003  0.3097  0.3368  0.0576
 1100POPI   C4A16206   2.788  11.571   8.368 -0.2202 -0.1558  0.1129
 1100POPI   C1B16207   2.970  11.529   7.056 -0.0202  0.1108  0.2770
 1100POPI   C2B16208   2.887  11.579   7.425  0.0376  0.1131 -0.1293
 1100POPI   C3B16209   3.196  11.491   7.835 -0.1934 -0.1402  0.1155
 1100POPI   C4B16210   3.291  11.405   8.276  0.1978 -0.3867 -0.0316
 1101POPI    C116211   0.519   6.035   5.889 -0.0636  0.0059 -0.0537
 1101POPI    C216212   0.233   6.109   5.619 -0.0794 -0.0381 -0.0492
 1101POPI    C316213   0.578   6.311   5.606 -0.1221  0.0359 -0.0368
 1101POPI   PO416214   0.289   5.819   6.008 -0.4028 -0.0348  0.0737
 1101POPI   GL116215   0.167   5.475   6.116  0.2602  0.1100 -0.1579
 1101POPI   GL216216  -0.108   5.525   6.215  0.1923  0.1636 -0.1376
 1101POPI   C1A16217   0.209   5.447   6.566 -0.0715 -0.2722  0.2202
 1101POPI   D2A16218   0.101   5.476   6.998 -0.1111 -0.0207  0.0079
 1101POPI   C3A16219   0.198   5.442   7.432  0.0243 -0.0486 -0.1936
 1101POPI   C4A16220   0.222   5.431   7.864  0.0100  0.0973 -0.1368
 1101POPI   C1B16221  -0.115   5.787   6.582 -0.1723 -0.0305 -0.1943
 1101POPI   C2B16222  -0.279   5.794   7.024 -0.0756 -0.1809 -0.1047
 1101POPI   C3B16223  -0.274   5.661   7.500  0.0579  0.2393  0.1627
 1101POPI   C4B16224  -0.255   5.642   7.903 -0.1309  0.0249 -0.3070
 1102POPI    C116225  11.815  16.720   6.388 -0.0990  0.0690  0.0637
 1102POPI    C216226  11.757  17.079   6.555  0.1995  0.1239  0.0540
 1102POPI    C316227  11.896  17.053   6.181 -0.1566 -0.0016 -0.0730
 1102POPI   PO416228  11.687  16.474   6.598 -0.0840  0.0281 -0.0975
 1102POPI   GL116229  11.723  16.533   6.954  0.2481  0.1551  0.1079
 1102POPI   GL216230  11.750  16.790   6.976 -0.0280 -0.0281  0.1596
 1102POPI   C1A16231  11.664  16.347   7.350 -0.1300 -0.1567  0.4144
 1102POPI   D2A16232  11.662  16.205   7.761 -0.1212  0.1424 -0.0403
 1102POPI   C3A16233  11.644  16.276   8.189 -0.0736 -0.1545  0.0929
 1102POPI   C4A16234  11.699  16.104   8.563  0.0753  0.0386 -0.0703
 1102POPI   C1B16235  11.748  16.840   7.376 -0.0371 -0.1428  0.1544
 1102POPI   C2B16236  11.704  16.739   7.850 -0.2090 -0.1593 -0.0262
 1102POPI   C3B16237  11.715  16.755   8.359  0.0255 -0.2092 -0.1459
 1102POPI   C4B16238  11.740  16.540   8.750 -0.3209 -0.2450 -0.1248
 1103POPI    C116239   3.384   1.450   6.123 -0.1760  0.0679 -0.1559
 1103POPI    C216240   3.717   1.548   5.923  0.0346 -0.3049  0.0026
 1103POPI    C316241   3.396   1.417   5.724  0.0440 -0.1231 -0.1354
 1103POPI   PO416242   3.441   1.384   6.394  0.0145  0.1354 -0.3256
 1103POPI   GL116243   3.603   1.276   6.767 -0.3415 -0.0936  0.1180
 1103POPI   GL216244   3.284   1.131   6.866 -0.3377  0.2051 -0.2982
 1103POPI   C1A16245   3.719   1.367   7.128 -0.2248 -0.1927 -0.0267
 1103POPI   D2A16246   3.505   1.137   7.468 -0.2165  0.1288 -0.0464
 1103POPI   C3A16247   3.468   1.258   7.915 -0.1316 -0.0446 -0.0452
 1103POPI   C4A16248   3.170   1.233   8.183 -0.1053 -0.1253  0.1975
 1103POPI   C1B16249   3.331   0.701   7.133  0.6107 -0.0333 -0.1546
 1103POPI   C2B16250   3.192   0.748   7.535  0.0701 -0.2187 -0.1249
 1103POPI   C3B16251   3.022   0.853   7.899  0.4211  0.0388 -0.2759
 1103POPI   C4B16252   3.105   0.655   8.235 -0.1733  0.1309 -0.1058
 1104POPI    C116253   3.992   4.414   6.297  0.1184 -0.1989  0.1751
 1104POPI    C216254   4.131   4.313   5.936 -0.0152  0.1234  0.0297
 1104POPI    C316255   3.743   4.397   5.985 -0.0183 -0.0231  0.2729
 1104POPI   PO416256   4.184   4.598   6.381 -0.1667 -0.2312 -0.1613
 1104POPI   GL116257   4.320   4.680   6.708 -0.2626 -0.2044 -0.3801
 1104POPI   GL216258   4.502   4.507   6.806  0.1412  0.0237 -0.0016
 1104POPI   C1A16259   4.406   4.875   7.070  0.0648 -0.0805  0.0866
 1104POPI   D2A16260   4.407   5.109   7.428  0.0113 -0.0570  0.0041
 1104POPI   C3A16261   4.440   4.916   7.831  0.2251 -0.2788  0.1532
 1104POPI   C4A16262   4.443   4.966   8.296  0.1842 -0.1038  0.0988
 1104POPI   C1B16263   4.675   4.423   7.247 -0.0189 -0.0537 -0.0199
 1104POPI   C2B16264   4.723   4.480   7.668 -0.1131  0.4176  0.1131
 1104POPI   C3B16265   4.667   4.476   8.117 -0.2539  0.2031 -0.0581
 1104POPI   C4B16266   4.561   4.514   8.521 -0.1597  0.3004 -0.1052
 1105POPI    C116267  16.192  14.738   5.844  0.0136 -0.1254  0.0795
 1105POPI    C216268  16.393  14.592   5.531 -0.0601  0.0742 -0.0632
 1105POPI    C316269  16.490  14.950   5.682 -0.2473  0.1314 -0.0757
 1105POPI   PO416270  16.266  14.602   6.047  0.2760  0.2238  0.2515
 1105POPI   GL116271  16.186  14.415   6.419  0.1792 -0.1722  0.4144
 1105POPI   GL216272  16.274  14.183   6.522  0.0576  0.0628  0.0675
 1105POPI   C1A16273  16.031  14.476   6.813  0.3197 -0.2729 -0.1384
 1105POPI   D2A16274  15.957  14.579   7.250  0.1671 -0.3242 -0.0498
 1105POPI   C3A16275  16.125  14.605   7.634 -0.1640  0.2002  0.1588
 1105POPI   C4A16276  16.118  14.617   8.013 -0.0257  0.2362 -0.2108
 1105POPI   C1B16277  16.458  14.286   6.889  0.0372  0.1088  0.3749
 1105POPI   C2B16278  16.449  14.274   7.323  0.0361 -0.1590  0.0478
 1105POPI   C3B16279  16.558  14.277   7.852  0.1031  0.1178 -0.1987
 1105POPI   C4B16280  16.489  14.288   8.249 -0.0052  0.4076 -0.0195
 1106POPI    C116281   3.253   8.619   6.287 -0.0908 -0.0712  0.1484
 1106POPI    C216282   3.161   8.658   5.900  0.0739 -0.0031  0.1153
 1106POPI    C316283   3.539   8.584   6.009 -0.0281 -0.3516  0.2447
 1106POPI   PO416284   3.031   8.428   6.369 -0.1430 -0.1766 -0.0712
 1106POPI   GL116285   2.879   8.307   6.789  0.0671 -0.1124 -0.0167
 1106POPI   GL216286   2.993   8.004   6.653  0.0095 -0.1227 -0.3492
 1106POPI   C1A16287   2.529   8.227   7.092 -0.1408  0.0400  0.1967
 1106POPI   D2A16288   2.334   8.146   7.498  0.2915  0.1052 -0.0921
 1106POPI   C3A16289   2.344   8.341   7.935  0.0719  0.3434  0.0882
 1106POPI   C4A16290   2.095   8.676   8.093 -0.0259  0.3132  0.1524
 1106POPI   C1B16291   2.920   7.952   7.124 -0.0302 -0.2569  0.1578
 1106POPI   C2B16292   2.844   8.006   7.482 -0.4634  0.0139  0.3124
 1106POPI   C3B16293   2.928   8.062   7.849  0.0597 -0.0054  0.1551
 1106POPI   C4B16294   2.749   7.918   8.225 -0.0534 -0.1484  0.2133
 1107POPI    C116295   4.452  13.300   6.207 -0.0334 -0.1660  0.0368
 1107POPI    C216296   4.736  13.577   6.156  0.0462 -0.2469  0.0387
 1107POPI    C316297   4.537  13.434   5.840  0.1968 -0.3883  0.0063
 1107POPI   PO416298   4.428  13.317   6.468  0.2194  0.1408 -0.3418
 1107POPI   GL116299   4.532  13.376   7.006 -0.1513  0.0253  0.0217
 1107POPI   GL216300   4.772  13.078   7.191  0.0126  0.0766 -0.1205
 1107POPI   C1A16301   4.426  13.419   7.533  0.1663 -0.0950  0.0189
 1107POPI   D2A16302   4.346  13.535   8.048  0.3919 -0.0331  0.2279
 1107POPI   C3A16303   4.379  13.419   8.465  0.2154  0.0441  0.0996
 1107POPI   C4A16304   4.151  13.462   8.783  0.0949  0.2258 -0.2173
 1107POPI   C1B16305   4.732  12.979   7.657  0.1175  0.0576  0.2077
 1107POPI   C2B16306   4.528  12.933   8.087 -0.1914 -0.0720 -0.0317
 1107POPI   C3B16307   4.705  13.049   8.560 -0.2647  0.1362 -0.0084
 1107POPI   C4B16308   4.629  13.179   8.965  0.0107 -0.0265 -0.4088
 1108POPI    C116309   0.849   7.271   5.899  0.1142 -0.1279 -0.0602
 1108POPI    C216310   0.625   7.175   5.582 -0.0654  0.1586 -0.0230
 1108POPI    C316311   1.021   7.122   5.570 -0.1016 -0.0905 -0.1919
 1108POPI   PO416312   0.766   7.215   6.075  0.1418  0.3093 -0.1596
 1108POPI   GL116313   0.446   7.189   6.425  0.1668 -0.2095 -0.0639
 1108POPI   GL216314   0.197   7.207   6.354 -0.0572 -0.0518  0.1174
 1108POPI   C1A16315   0.498   6.917   6.685 -0.0120 -0.0050 -0.2739
 1108POPI   D2A16316   0.393   6.908   7.086  0.2187 -0.0455 -0.0238
 1108POPI   C3A16317   0.435   6.991   7.499  0.0269  0.1610  0.3686
 1108POPI   C4A16318   0.432   6.905   8.023 -0.0029 -0.1168  0.0790
 1108POPI   C1B16319  -0.028   7.280   6.625 -0.1017 -0.2898  0.0999
 1108POPI   C2B16320  -0.161   7.173   6.993  0.1745  0.0567 -0.1623
 1108POPI   C3B16321  -0.025   7.253   7.473  0.1194 -0.3487  0.1502
 1108POPI   C4B16322   0.099   7.224   7.848 -0.0275 -0.0348 -0.0823
 1109POPI    C116323  11.770  14.821   6.054 -0.1086  0.0229 -0.1264
 1109POPI    C216324  11.991  14.497   5.970  0.1527  0.2121 -0.1812
 1109POPI    C316325  11.756  14.658   5.688  0.1022  0.1324 -0.1849
 1109POPI   PO416326  11.875  14.833   6.323 -0.0471  0.1764 -0.0253
 1109POPI   GL116327  11.619  14.723   6.775  0.0139  0.0009 -0.0834
 1109POPI   GL216328  11.874  14.997   6.788 -0.1421 -0.1616  0.1617
 1109POPI   C1A16329  11.400  14.704   7.055  0.3841  0.1006  0.0080
 1109POPI   D2A16330  11.370  14.641   7.546 -0.0186 -0.0226 -0.1496
 1109POPI   C3A16331  11.384  14.627   8.012 -0.0730  0.1551 -0.2206
 1109POPI   C4A16332  11.498  14.639   8.496 -0.4006  0.0205  0.0130
 1109POPI   C1B16333  11.914  14.931   7.137  0.0504  0.1876  0.0036
 1109POPI   C2B16334  11.853  14.858   7.590 -0.0445  0.1329  0.0589
 1109POPI   C3B16335  11.842  14.819   7.985 -0.1124  0.2905  0.1047
 1109POPI   C4B16336  11.962  14.881   8.320 -0.0556 -0.1791  0.2113
 1110POPI    C116337  14.492  15.557   5.923 -0.1518 -0.0730  0.0130
 1110POPI    C216338  14.421  15.760   5.586 -0.1280  0.1045  0.1141
 1110POPI    C316339  14.635  15.423   5.574  0.0915  0.2454 -0.0138
 1110POPI   PO416340  14.276  15.725   6.076  0.4543 -0.0585  0.2024
 1110POPI   GL116341  14.124  15.795   6.530 -0.6755 -0.2598 -0.0070
 1110POPI   GL216342  14.431  15.864   6.517  0.0247  0.0528  0.2158
 1110POPI   C1A16343  13.989  15.689   6.892 -0.2135  0.0814  0.1472
 1110POPI   D2A16344  13.750  15.614   7.279 -0.0529  0.1663 -0.0412
 1110POPI   C3A16345  13.882  15.608   7.613 -0.0991  0.1636  0.1706
 1110POPI   C4A16346  13.786  15.607   8.050 -0.1864  0.1840  0.2439
 1110POPI   C1B16347  14.402  15.943   6.917 -0.1392 -0.1183 -0.3687
 1110POPI   C2B16348  14.286  15.871   7.349 -0.0569  0.0597  0.2096
 1110POPI   C3B16349  14.275  15.881   7.828 -0.1080  0.0427 -0.0566
 1110POPI   C4B16350  14.227  15.615   8.263 -0.0045  0.1169 -0.1217
 1111POPI    C116351  15.986   3.580   5.899 -0.1810  0.0742  0.0127
 1111POPI    C216352  15.836   3.947   5.947 -0.3011  0.0831 -0.3926
 1111POPI    C316353  16.120   3.881   5.673  0.1634 -0.0128  0.0944
 1111POPI   PO416354  15.953   3.531   6.257  0.0055 -0.0468 -0.1843
 1111POPI   GL116355  15.982   3.658   6.645 -0.2411  0.1846 -0.0810
 1111POPI   GL216356  16.367   3.553   6.556 -0.1715  0.2076 -0.1364
 1111POPI   C1A16357  15.957   3.710   7.142  0.3473  0.1335  0.3375
 1111POPI   D2A16358  15.926   3.762   7.719  0.0550  0.0253  0.2324
 1111POPI   C3A16359  15.960   3.662   8.121 -0.1108 -0.1303 -0.0385
 1111POPI   C4A16360  15.877   3.502   8.607 -0.0278  0.0988 -0.0249
 1111POPI   C1B16361  16.363   3.510   6.949 -0.4281  0.1067  0.2062
 1111POPI   C2B16362  16.399   3.445   7.386 -0.0871  0.2448 -0.6052
 1111POPI   C3B16363  16.365   3.289   7.835 -0.2076 -0.2130 -0.0046
 1111POPI   C4B16364  16.345   3.425   8.304  0.1130  0.0810  0.3391
 1112POPI    C116365   0.067   4.558   5.433  0.1076 -0.4228  0.0199
 1112POPI    C216366  -0.294   4.477   5.281 -0.0153 -0.2368  0.2063
 1112POPI    C316367  -0.032   4.696   5.071 -0.1689 -0.0153  0.2426
 1112POPI   PO416368   0.228   4.301   5.612  0.1723  0.1890  0.0287
 1112POPI   GL116369   0.281   4.229   6.088  0.0019 -0.2047 -0.1536
 1112POPI   GL216370   0.217   3.966   6.299 -0.0292 -0.0224  0.0095
 1112POPI   C1A16371   0.547   4.161   6.547 -0.1111 -0.1211  0.2168
 1112POPI   D2A16372   0.442   4.207   7.001 -0.0161 -0.2795  0.1210
 1112POPI   C3A16373   0.565   4.139   7.520 -0.0006 -0.1824  0.4039
 1112POPI   C4A16374   0.608   3.971   7.916  0.0349  0.2110 -0.0141
 1112POPI   C1B16375   0.042   3.987   6.679  0.2249 -0.1174 -0.1437
 1112POPI   C2B16376   0.037   3.964   7.051  0.0859  0.0465 -0.1644
 1112POPI   C3B16377   0.066   3.885   7.502 -0.2288 -0.1386 -0.2035
 1112POPI   C4B16378  -0.006   3.924   7.967 -0.1962  0.1879 -0.0874
 1113POPI    C116379   4.257   0.013   6.048 -0.0729 -0.0006 -0.2028
 1113POPI    C216380   4.425  -0.003   5.685  0.1213  0.0651 -0.1172
 1113POPI    C316381   4.030  -0.052   5.725  0.1141 -0.0578 -0.3244
 1113POPI   PO416382   4.534  -0.014   6.166 -0.1383  0.3043 -0.1875
 1113POPI   GL116383   4.663   0.156   6.641 -0.0620 -0.3951  0.2381
 1113POPI   GL216384   4.505   0.298   6.852  0.0020  0.0282 -0.3363
 1113POPI   C1A16385   4.486  -0.218   6.753 -0.1940 -0.0642 -0.2036
 1113POPI   D2A16386   4.454  -0.623   6.941 -0.0562 -0.0929 -0.2422
 1113POPI   C3A16387   4.487  -0.591   7.457 -0.4506  0.0910  0.1070
 1113POPI   C4A16388   4.575  -0.555   7.889 -0.0419 -0.1386 -0.4104
 1113POPI   C1B16389   4.548   0.288   7.241 -0.1794 -0.2317  0.2215
 1113POPI   C2B16390   4.491   0.330   7.681 -0.0860 -0.2173 -0.1709
 1113POPI   C3B16391   4.507   0.312   8.054 -0.0235 -0.2923  0.2849
 1113POPI   C4B16392   4.487   0.155   8.417 -0.0530  0.0656  0.0027
 1114POPI    C116393   8.029   6.150   6.308  0.0199  0.0512  0.0873
 1114POPI    C216394   8.271   6.452   6.205 -0.0368  0.0605 -0.0200
 1114POPI    C316395   8.212   6.148   5.952 -0.1956  0.0948 -0.0253
 1114POPI   PO416396   7.915   6.306   6.468 -0.1287  0.0570  0.2000
 1114POPI   GL116397   7.590   6.179   6.724 -0.0923  0.3733  0.0688
 1114POPI   GL216398   7.921   6.129   6.953  0.2222  0.3373  0.3804
 1114POPI   C1A16399   7.429   5.988   7.118  0.4775  0.3253 -0.1451
 1114POPI   D2A16400   7.389   6.109   7.549 -0.1143 -0.2365  0.0303
 1114POPI   C3A16401   7.180   6.338   7.851 -0.2587 -0.0093 -0.3690
 1114POPI   C4A16402   7.151   6.378   8.245  0.0028  0.2272 -0.3940
 1114POPI   C1B16403   7.780   6.330   7.335 -0.1604 -0.0739  0.1187
 1114POPI   C2B16404   7.720   6.353   7.808  0.0057 -0.0537  0.3793
 1114POPI   C3B16405   7.654   6.538   8.141  0.1270 -0.0444  0.0316
 1114POPI   C4B16406   7.558   6.496   8.549 -0.0302  0.2809 -0.0604
 1115POPI    C116407   5.934  11.914   6.137  0.1504  0.0418  0.1754
 1115POPI    C216408   5.679  11.892   5.829  0.1622  0.1013  0.1613
 1115POPI    C316409   5.548  12.009   6.188  0.1040 -0.1708  0.2309
 1115POPI   PO416410   6.103  11.649   6.276 -0.0438  0.3474  0.2499
 1115POPI   GL116411   5.889  11.565   6.680 -0.2680  0.1380 -0.0262
 1115POPI   GL216412   5.722  11.916   6.656  0.0495 -0.1335 -0.3115
 1115POPI   C1A16413   5.954  11.318   7.096 -0.1019  0.2101 -0.4804
 1115POPI   D2A16414   5.821  11.350   7.507 -0.0977 -0.3544 -0.0500
 1115POPI   C3A16415   5.792  11.233   7.984 -0.2899  0.0696  0.3445
 1115POPI   C4A16416   5.770  11.253   8.462  0.0979  0.1410  0.0525
 1115POPI   C1B16417   5.642  11.670   7.098  0.0461 -0.0040  0.1067
 1115POPI   C2B16418   5.530  11.740   7.551 -0.0261  0.1285  0.0936
 1115POPI   C3B16419   5.484  11.776   7.997  0.1181 -0.0630 -0.0090
 1115POPI   C4B16420   5.687  11.689   8.349 -0.1068 -0.1154  0.1701
 1116POPI    C116421  14.608   8.224   5.691  0.2155 -0.3909 -0.0323
 1116POPI    C216422  14.667   8.304   5.304 -0.0504 -0.1938 -0.0354
 1116POPI    C316423  14.319   8.399   5.476  0.1110 -0.1680  0.2826
 1116POPI   PO416424  14.886   8.229   5.757  0.0714  0.3068  0.0544
 1116POPI   GL116425  15.130   8.061   6.181 -0.0548 -0.1745 -0.2274
 1116POPI   GL216426  14.959   7.816   6.429 -0.1156 -0.1338  0.2716
 1116POPI   C1A16427  15.070   8.272   6.545 -0.0659 -0.0344 -0.0249
 1116POPI   D2A16428  15.118   8.305   6.954 -0.1707  0.1485  0.1070
 1116POPI   C3A16429  15.098   8.316   7.447 -0.3043  0.0159 -0.2197
 1116POPI   C4A16430  15.165   8.336   7.900  0.0598 -0.0692  0.1750
 1116POPI   C1B16431  15.040   7.796   6.818 -0.1325 -0.2844 -0.0449
 1116POPI   C2B16432  15.111   7.880   7.260 -0.2269  0.0942  0.1470
 1116POPI   C3B16433  15.027   7.772   7.700 -0.0910 -0.0652  0.0147
 1116POPI   C4B16434  15.132   7.862   8.131 -0.4126 -0.1466 -0.0589
 1117POPI    C116435   6.807  13.052   6.327  0.1523  0.0933  0.0475
 1117POPI    C216436   6.925  12.899   6.677 -0.1941 -0.0351  0.1129
 1117POPI    C316437   6.993  12.698   6.337  0.2272  0.1338  0.0912
 1117POPI   PO416438   6.572  13.122   6.314 -0.0827 -0.0322  0.0173
 1117POPI   GL116439   6.546  13.333   6.700 -0.1580  0.1554  0.0228
 1117POPI   GL216440   6.447  12.977   6.832  0.1769 -0.1957  0.1323
 1117POPI   C1A16441   6.456  13.530   7.124  0.0761  0.0582 -0.1173
 1117POPI   D2A16442   6.665  13.542   7.445  0.0990  0.0257  0.1060
 1117POPI   C3A16443   6.605  13.539   7.840  0.2208  0.0853 -0.1949
 1117POPI   C4A16444   6.547  13.493   8.248  0.1059  0.0911 -0.2787
 1117POPI   C1B16445   6.819  13.125   7.100  0.1164 -0.2624  0.0323
 1117POPI   C2B16446   6.919  13.115   7.563 -0.0224  0.1916  0.0219
 1117POPI   C3B16447   6.919  13.077   7.973 -0.1464  0.0230  0.4225
 1117POPI   C4B16448   6.785  13.121   8.449  0.1093 -0.3035  0.1537
 1118POPI    C116449   4.628   6.872   6.147  0.2396 -0.0176  0.0426
 1118POPI    C216450   4.953   6.740   5.955  0.1355 -0.1729 -0.0294
 1118POPI    C316451   4.639   6.877   5.747  0.1511 -0.0304  0.0396
 1118POPI   PO416452   4.692   7.065   6.365  0.1407 -0.1013  0.0234
 1118POPI   GL116453   4.645   7.140   6.832 -0.1199  0.4038  0.1817
 1118POPI   GL216454   4.999   7.277   6.858  0.1532  0.1215  0.0258
 1118POPI   C1A16455   4.633   7.174   7.320 -0.2848 -0.1901 -0.1623
 1118POPI   D2A16456   4.706   7.139   7.753  0.2476 -0.1964 -0.2656
 1118POPI   C3A16457   4.644   7.184   8.265 -0.1876 -0.0989 -0.1334
 1118POPI   C4A16458   4.557   7.322   8.549 -0.0756  0.3714  0.3251
 1118POPI   C1B16459   5.149   7.210   7.225  0.0526  0.1256  0.2319
 1118POPI   C2B16460   5.194   7.135   7.673 -0.1697 -0.0037 -0.3124
 1118POPI   C3B16461   5.121   7.223   8.092  0.3604  0.1642  0.0453
 1118POPI   C4B16462   5.108   7.442   8.509 -0.0729  0.0262 -0.4244
 1119POPI    C116463   2.576   6.002   6.136 -0.0634  0.0237  0.0350
 1119POPI    C216464   2.313   5.732   6.003  0.0708 -0.0372 -0.1098
 1119POPI    C316465   2.433   6.029   5.764 -0.1477  0.2083  0.0799
 1119POPI   PO416466   2.702   5.887   6.348  0.1964 -0.2001 -0.1523
 1119POPI   GL116467   2.643   5.707   6.656  0.1714  0.0982  0.2079
 1119POPI   GL216468   2.560   5.389   6.676  0.0810  0.0824 -0.0815
 1119POPI   C1A16469   2.840   5.791   7.030  0.1283 -0.0223  0.0271
 1119POPI   D2A16470   2.735   5.888   7.418 -0.0027 -0.1702  0.2950
 1119POPI   C3A16471   2.647   5.980   7.717 -0.0305  0.0006 -0.0184
 1119POPI   C4A16472   2.485   6.018   8.136  0.0561  0.3698 -0.2212
 1119POPI   C1B16473   2.618   5.346   7.089  0.0269 -0.0438  0.3820
 1119POPI   C2B16474   2.530   5.472   7.603 -0.3623  0.0397  0.0740
 1119POPI   C3B16475   2.459   5.492   8.039  0.0574 -0.0590 -0.1521
 1119POPI   C4B16476   2.323   5.331   8.510 -0.1251 -0.1970 -0.2601
 1120POPI    C116477  16.797  14.605   5.813 -0.0758 -0.1052 -0.0361
 1120POPI    C216478  17.116  14.664   5.579 -0.0249  0.1060  0.0836
 1120POPI    C316479  16.965  14.296   5.623  0.2997 -0.0225  0.1522
 1120POPI   PO416480  16.816  14.760   5.992 -0.3226 -0.3702  0.2083
 1120POPI   GL116481  16.997  14.765   6.374 -0.0163 -0.1336  0.2065
 1120POPI   GL216482  17.184  14.949   6.463  0.0853 -0.0655 -0.1471
 1120POPI   C1A16483  16.892  14.526   6.781 -0.1001 -0.0532  0.3964
 1120POPI   D2A16484  16.944  14.625   7.252  0.0607  0.3162  0.0932
 1120POPI   C3A16485  16.987  14.501   7.610  0.1410  0.0465  0.1096
 1120POPI   C4A16486  17.009  14.411   8.034  0.0428  0.1074  0.0708
 1120POPI   C1B16487  17.449  14.804   6.789  0.0181  0.0361 -0.0310
 1120POPI   C2B16488  17.416  14.841   7.199  0.1826 -0.1327 -0.0117
 1120POPI   C3B16489  17.454  14.763   7.557 -0.2801 -0.1275  0.0911
 1120POPI   C4B16490  17.437  14.664   7.949 -0.2502 -0.0271  0.0953
 1121POPI    C116491  10.274  17.030   6.660  0.0297  0.1608  0.1782
 1121POPI    C216492   9.896  17.149   6.713 -0.0555  0.0399 -0.1343
 1121POPI    C316493  10.057  17.152   6.347  0.2460  0.0853 -0.0041
 1121POPI   PO416494  10.408  17.135   6.818  0.0146 -0.0123 -0.1813
 1121POPI   GL116495  10.511  17.131   7.300  0.2735 -0.2225 -0.1509
 1121POPI   GL216496  10.447  16.828   7.394 -0.0282 -0.2068 -0.0693
 1121POPI   C1A16497  10.475  17.184   7.719 -0.1658 -0.1065  0.0138
 1121POPI   D2A16498  10.550  17.281   8.141  0.2291  0.1166 -0.1925
 1121POPI   C3A16499  10.333  17.405   8.418  0.2057 -0.0910  0.1215
 1121POPI   C4A16500  10.399  17.406   8.912  0.0931 -0.1295  0.0169
 1121POPI   C1B16501  10.436  16.719   7.794 -0.3439 -0.1419  0.0604
 1121POPI   C2B16502  10.340  16.852   8.208 -0.3928 -0.2185 -0.1941
 1121POPI   C3B16503  10.433  17.017   8.621  0.0841  0.2517 -0.1027
 1121POPI   C4B16504  10.454  16.910   9.070 -0.0885 -0.0764  0.2240
 1122POPI    C116505  12.901   6.780   5.882  0.0020  0.2066 -0.1058
 1122POPI    C216506  12.643   7.062   6.003 -0.0800  0.1064 -0.0455
 1122POPI    C316507  12.515   6.757   5.777 -0.0471 -0.0286  0.1156
 1122POPI   PO416508  13.050   6.643   6.156 -0.2815  0.1759  0.1247
 1122POPI   GL116509  13.316   6.841   6.605  0.2937  0.1845 -0.0419
 1122POPI   GL216510  13.136   7.055   6.786 -0.0954  0.1488  0.0704
 1122POPI   C1A16511  13.463   6.647   6.923  0.2696  0.1506  0.0185
 1122POPI   D2A16512  13.622   6.704   7.333  0.0106  0.2338  0.1066
 1122POPI   C3A16513  13.527   6.706   7.698 -0.1482  0.0181  0.0057
 1122POPI   C4A16514  13.583   6.684   8.180  0.1993  0.1622 -0.2486
 1122POPI   C1B16515  13.098   6.967   7.164 -0.2000 -0.1438  0.4177
 1122POPI   C2B16516  13.158   7.028   7.599  0.1372 -0.0451  0.2849
 1122POPI   C3B16517  13.207   6.951   7.999 -0.1388 -0.0732  0.2403
 1122POPI   C4B16518  13.316   7.020   8.456  0.0986  0.3425  0.1750
 1123POPI    C116519   5.602   3.493   5.980  0.1548  0.1442 -0.3716
 1123POPI    C216520   5.923   3.732   5.974  0.0617  0.2756 -0.2078
 1123POPI    C316521   5.593   3.834   5.773 -0.0256  0.3548 -0.0271
 1123POPI   PO416522   5.637   3.395   6.268 -0.1407 -0.1905 -0.2195
 1123POPI   GL116523   5.543   3.410   6.697  0.2047  0.0208 -0.0432
 1123POPI   GL216524   5.798   3.299   6.701  0.0135 -0.0857 -0.1646
 1123POPI   C1A16525   5.249   3.493   7.011  0.2773  0.1748  0.3572
 1123POPI   D2A16526   5.127   3.560   7.459 -0.1533 -0.0104  0.1275
 1123POPI   C3A16527   5.202   3.494   7.882 -0.0285  0.0245  0.1396
 1123POPI   C4A16528   5.180   3.614   8.255  0.3597  0.0395  0.1065
 1123POPI   C1B16529   5.786   3.561   7.120 -0.1670  0.1365  0.0264
 1123POPI   C2B16530   5.844   3.580   7.525 -0.1872  0.0092 -0.1034
 1123POPI   C3B16531   5.773   3.609   7.929 -0.1797 -0.1199  0.1228
 1123POPI   C4B16532   5.665   3.598   8.273 -0.0050  0.1162  0.2231
 1124POPI    C116533   0.534   9.218   5.736 -0.1085  0.0124 -0.0869
 1124POPI    C216534   0.416   9.577   5.867 -0.1699 -0.0327 -0.0179
 1124POPI    C316535   0.577   9.541   5.503  0.0469  0.1011  0.0630
 1124POPI   PO416536   0.495   9.086   5.966 -0.4500  0.2646 -0.1646
 1124POPI   GL116537   0.118   8.831   6.198  0.1885 -0.0419 -0.0008
 1124POPI   GL216538  -0.149   9.106   6.414 -0.1276 -0.0690  0.0787
 1124POPI   C1A16539   0.195   8.741   6.626  0.1656  0.0006  0.1503
 1124POPI   D2A16540   0.260   8.699   7.096 -0.0733  0.0442 -0.1767
 1124POPI   C3A16541   0.251   8.820   7.521 -0.2462 -0.1783 -0.4060
 1124POPI   C4A16542   0.252   8.907   7.907 -0.1270 -0.0185  0.2904
 1124POPI   C1B16543  -0.113   9.077   6.851  0.0559 -0.2485 -0.0542
 1124POPI   C2B16544  -0.096   9.065   7.229  0.1590  0.1693  0.1389
 1124POPI   C3B16545  -0.119   9.123   7.651  0.0873 -0.2593 -0.0607
 1124POPI   C4B16546  -0.287   9.195   8.148 -0.1229  0.2222  0.1499
 1125POPI    C116547   7.881  15.687   6.314 -0.0867  0.1224 -0.2102
 1125POPI    C216548   8.192  15.883   6.158 -0.1328  0.2985 -0.0845
 1125POPI    C316549   7.821  15.964   6.031 -0.1401  0.1898 -0.1336
 1125POPI   PO416550   7.809  15.671   6.560  0.2304 -0.2270  0.0869
 1125POPI   GL116551   7.960  15.603   6.917 -0.0175  0.0079 -0.0541
 1125POPI   GL216552   8.143  15.464   7.026 -0.2079  0.0073 -0.0054
 1125POPI   C1A16553   7.650  15.819   7.270 -0.1804 -0.0900  0.1388
 1125POPI   D2A16554   7.686  15.878   7.760 -0.1637  0.0570  0.2470
 1125POPI   C3A16555   7.759  15.835   8.194  0.3588 -0.3131  0.1110
 1125POPI   C4A16556   7.626  15.835   8.649  0.3129  0.3581  0.0149
 1125POPI   C1B16557   8.000  15.567   7.507 -0.1744  0.0635 -0.2737
 1125POPI   C2B16558   7.921  15.475   7.933 -0.0275 -0.1503 -0.2114
 1125POPI   C3B16559   7.975  15.409   8.386  0.0040 -0.0923 -0.0376
 1125POPI   C4B16560   8.163  15.240   8.773  0.1123  0.2273  0.3626
 1126POPI    C116561  11.439   1.057   6.270  0.0207  0.2835 -0.0404
 1126POPI    C216562  11.110   0.859   6.159  0.1509  0.0259  0.0245
 1126POPI    C316563  11.229   1.180   5.953  0.0628 -0.0968 -0.2213
 1126POPI   PO416564  11.451   1.119   6.531  0.3113  0.1083 -0.1391
 1126POPI   GL116565  11.631   1.294   6.952  0.0570 -0.0498 -0.4090
 1126POPI   GL216566  11.289   1.168   7.051  0.0083 -0.2695 -0.0574
 1126POPI   C1A16567  11.963   1.102   7.275  0.1815 -0.1497  0.0149
 1126POPI   D2A16568  11.919   1.065   7.759 -0.2717 -0.0398 -0.1197
 1126POPI   C3A16569  12.022   0.998   8.126  0.2784 -0.1619  0.0774
 1126POPI   C4A16570  11.947   0.993   8.547  0.1088  0.2459  0.1039
 1126POPI   C1B16571  11.432   0.951   7.404  0.0774 -0.1004 -0.4531
 1126POPI   C2B16572  11.430   0.900   7.755 -0.2990  0.0617 -0.2404
 1126POPI   C3B16573  11.536   0.829   8.207  0.0913 -0.2332  0.1431
 1126POPI   C4B16574  11.400   0.844   8.688 -0.0659 -0.3086  0.1997
 1127POPI    C116575   2.185   2.219   6.345 -0.1204 -0.2849 -0.0217
 1127POPI    C216576   2.109   1.943   6.066 -0.1921 -0.0001 -0.2885
 1127POPI    C316577   2.320   2.270   5.973 -0.2136  0.0966 -0.0078
 1127POPI   PO416578   1.960   2.162   6.510 -0.0679 -0.2222 -0.1209
 1127POPI   GL116579   1.907   2.111   6.929 -0.0202 -0.1310 -0.1973
 1127POPI   GL216580   1.625   2.039   6.935  0.5063 -0.2202  0.1992
 1127POPI   C1A16581   2.104   2.168   7.469  0.0458 -0.1632 -0.1167
 1127POPI   D2A16582   2.253   2.121   7.866  0.0936  0.1066  0.0250
 1127POPI   C3A16583   2.063   2.235   8.231 -0.0680  0.3591  0.3317
 1127POPI   C4A16584   1.565   2.063   8.334  0.0510 -0.0507  0.2028
 1127POPI   C1B16585   1.823   1.772   7.334  0.0957 -0.1318 -0.4067
 1127POPI   C2B16586   1.627   1.452   7.724  0.0059 -0.1595  0.0051
 1127POPI   C3B16587   1.549   1.284   8.100  0.1147  0.2011 -0.1897
 1127POPI   C4B16588   1.494   1.177   8.504  0.0903 -0.1246 -0.1073
 1128POPI    C116589  17.140  11.619   5.659 -0.1122  0.1915  0.1082
 1128POPI    C216590  16.912  11.638   5.331  0.0604  0.4604  0.0003
 1128POPI    C316591  17.292  11.517   5.303 -0.0083  0.2036  0.1488
 1128POPI   PO416592  16.954  11.479   5.873  0.1234 -0.6167 -0.2764
 1128POPI   GL116593  17.210  11.462   6.224  0.1295 -0.2573  0.2166
 1128POPI   GL216594  16.929  11.646   6.397  0.0640 -0.2698  0.1419
 1128POPI   C1A16595  17.492  11.230   6.460 -0.1067 -0.0406  0.1230
 1128POPI   D2A16596  17.590  11.329   6.881 -0.3347 -0.0347 -0.0755
 1128POPI   C3A16597  17.534  11.170   7.306  0.0157 -0.0312  0.0535
 1128POPI   C4A16598  17.358  11.105   7.572 -0.0130 -0.1198 -0.2551
 1128POPI   C1B16599  17.050  11.541   6.771  0.1768 -0.1027  0.0805
 1128POPI   C2B16600  17.015  11.483   7.219  0.2538  0.1152  0.1362
 1128POPI   C3B16601  16.938  11.655   7.691 -0.1477 -0.0098 -0.0036
 1128POPI   C4B16602  17.191  11.403   7.953 -0.1600 -0.0875 -0.0550
 1129POPI    C116603   2.474  15.564   6.245 -0.0680 -0.1163 -0.0349
 1129POPI    C216604   2.499  15.802   5.924  0.1140  0.0043  0.0662
 1129POPI    C316605   2.338  15.437   5.891  0.2168 -0.0204 -0.1822
 1129POPI   PO416606   2.747  15.501   6.395  0.1908  0.2843 -0.0445
 1129POPI   GL116607   3.075  15.477   6.678  0.0598 -0.0835  0.1910
 1129POPI   GL216608   3.429  15.557   6.718 -0.0218  0.0843  0.1940
 1129POPI   C1A16609   2.954  15.271   6.983  0.1415  0.3163  0.2166
 1129POPI   D2A16610   2.736  15.109   7.379 -0.1015 -0.0515  0.1352
 1129POPI   C3A16611   2.552  15.215   7.717  0.1076  0.0170 -0.0542
 1129POPI   C4A16612   2.591  15.543   8.099 -0.3236  0.1801  0.4282
 1129POPI   C1B16613   3.312  15.693   7.106  0.0012 -0.0413  0.0789
 1129POPI   C2B16614   3.414  15.788   7.537 -0.0609  0.0071 -0.0723
 1129POPI   C3B16615   3.535  15.736   7.870 -0.0303  0.2139 -0.3108
 1129POPI   C4B16616   3.633  15.691   8.282  0.3027 -0.1571  0.2497
 1130POPI    C116617  12.894   1.472   6.320  0.0711 -0.3761  0.2444
 1130POPI    C216618  12.499   1.524   6.344  0.1216  0.1690  0.0512
 1130POPI    C316619  12.661   1.379   6.009  0.0948  0.0111  0.1054
 1130POPI   PO416620  13.023   1.241   6.472 -0.1825 -0.1976 -0.1573
 1130POPI   GL116621  13.247   1.158   6.780 -0.2130  0.0363  0.0695
 1130POPI   GL216622  12.954   1.096   6.915 -0.0590  0.1619  0.3971
 1130POPI   C1A16623  13.320   1.146   7.285  0.0561 -0.1115  0.1710
 1130POPI   D2A16624  13.270   1.269   7.740  0.1628  0.1623  0.2265
 1130POPI   C3A16625  13.359   1.051   8.151 -0.0275  0.1323  0.1193
 1130POPI   C4A16626  13.211   1.096   8.575 -0.0787  0.2949  0.0795
 1130POPI   C1B16627  12.828   0.904   7.268 -0.1589 -0.1071  0.0951
 1130POPI   C2B16628  12.816   1.074   7.696 -0.1724  0.1796  0.2078
 1130POPI   C3B16629  12.870   0.980   8.145 -0.0889  0.0737 -0.0884
 1130POPI   C4B16630  12.829   0.805   8.633  0.1029  0.5887  0.1119
 1131POPI    C116631   1.940   1.215   5.758 -0.2852  0.0155  0.1393
 1131POPI    C216632   1.910   0.910   5.500  0.0344 -0.0612  0.1885
 1131POPI    C316633   2.213   1.171   5.468 -0.2121  0.2287  0.1736
 1131POPI   PO416634   1.862   1.023   6.009  0.0369  0.2148 -0.1071
 1131POPI   GL116635   1.781   1.119   6.431 -0.0217 -0.0028 -0.3633
 1131POPI   GL216636   1.498   1.222   6.535 -0.1798  0.2124  0.0522
 1131POPI   C1A16637   1.678   0.833   6.777 -0.1656  0.0262  0.1614
 1131POPI   D2A16638   1.620   0.526   7.119  0.0023 -0.2448  0.0095
 1131POPI   C3A16639   1.562   0.488   7.624  0.1733  0.1981  0.1657
 1131POPI   C4A16640   1.517   0.292   7.925 -0.1740  0.1738  0.2943
 1131POPI   C1B16641   1.181   1.362   6.807 -0.0212 -0.2562  0.2696
 1131POPI   C2B16642   1.087   1.284   7.262  0.1337  0.1592  0.3580
 1131POPI   C3B16643   1.199   1.231   7.744  0.1072 -0.1092  0.0105
 1131POPI   C4B16644   1.082   1.179   8.153 -0.2831  0.0220 -0.1268
 1132POPI    C116645   9.890   0.383   6.765 -0.0238  0.0578  0.0121
 1132POPI    C216646  10.249   0.365   6.589  0.0836 -0.2125  0.2513
 1132POPI    C316647   9.920   0.415   6.367  0.2590 -0.0553  0.0218
 1132POPI   PO416648   9.894   0.537   6.952  0.0759 -0.1028 -0.1121
 1132POPI   GL116649   9.889   0.606   7.499  0.3676 -0.1006  0.1524
 1132POPI   GL216650  10.138   0.735   7.302  0.2653 -0.0561  0.1032
 1132POPI   C1A16651   9.911   0.573   7.978  0.1083 -0.2273 -0.1980
 1132POPI   D2A16652   9.912   0.437   8.280  0.2086  0.1559  0.0523
 1132POPI   C3A16653   9.808   0.582   8.697  0.0727  0.1326  0.1666
 1132POPI   C4A16654   9.817   0.461   9.078  0.2085  0.1070 -0.0375
 1132POPI   C1B16655  10.228   0.991   7.545 -0.0021 -0.0005 -0.2569
 1132POPI   C2B16656  10.169   0.997   7.945  0.0199  0.1623  0.0866
 1132POPI   C3B16657   9.999   1.019   8.388  0.2207 -0.1673 -0.2602
 1132POPI   C4B16658  10.001   1.020   8.827 -0.0904 -0.0379  0.2276
 1133POPI    C116659  17.046  16.207   5.954 -0.1879 -0.0279  0.2880
 1133POPI    C216660  16.901  16.490   5.711  0.2088 -0.0079  0.0652
 1133POPI    C316661  16.773  16.112   5.677 -0.1669  0.0999  0.2227
 1133POPI   PO416662  17.048  16.325   6.185 -0.0003  0.0098  0.0189
 1133POPI   GL116663  16.871  16.241   6.597  0.0469  0.0056 -0.0202
 1133POPI   GL216664  16.712  16.259   6.816 -0.2308 -0.3274 -0.1386
 1133POPI   C1A16665  17.048  16.041   7.083 -0.0180  0.2379 -0.3307
 1133POPI   D2A16666  17.165  16.069   7.519 -0.1936  0.0767  0.0015
 1133POPI   C3A16667  16.996  16.066   7.909 -0.2143  0.1839  0.0301
 1133POPI   C4A16668  17.039  15.854   8.226 -0.1094  0.2463 -0.0654
 1133POPI   C1B16669  16.722  16.456   7.259 -0.2490 -0.2180  0.0967
 1133POPI   C2B16670  16.710  16.385   7.679 -0.0742 -0.0515  0.0591
 1133POPI   C3B16671  16.592  16.378   8.092  0.2670  0.1426 -0.1641
 1133POPI   C4B16672  16.855  16.245   8.452 -0.1975 -0.4213  0.2615
 1134POPI    C116673  16.349   0.232   5.947 -0.0257  0.0431 -0.3613
 1134POPI    C216674  16.655   0.251   5.690  0.0301 -0.0722 -0.3039
 1134POPI    C316675  16.281   0.310   5.560  0.0590 -0.1172 -0.4091
 1134POPI   PO416676  16.402   0.300   6.239  0.0074  0.3413  0.0050
 1134POPI   GL116677  16.261   0.305   6.604 -0.0942 -0.0147 -0.3988
 1134POPI   GL216678  15.953   0.453   6.613 -0.1408 -0.0150  0.0288
 1134POPI   C1A16679  16.455   0.121   6.960  0.0613  0.0607  0.2084
 1134POPI   D2A16680  16.448   0.010   7.445 -0.0364 -0.1294  0.1098
 1134POPI   C3A16681  16.421   0.018   7.872  0.0993 -0.2757  0.0131
 1134POPI   C4A16682  16.408  -0.020   8.271  0.0656  0.1500 -0.1836
 1134POPI   C1B16683  15.993   0.427   6.999 -0.1468  0.1661 -0.2620
 1134POPI   C2B16684  16.009   0.417   7.467  0.3019 -0.0748 -0.2906
 1134POPI   C3B16685  15.830   0.254   7.872  0.1408  0.0098  0.0691
 1134POPI   C4B16686  16.014   0.275   8.293 -0.0902 -0.0629 -0.2014
 1135POPI    C116687   3.620  11.112   6.437 -0.2165  0.1811  0.2167
 1135POPI    C216688   3.259  11.099   6.266 -0.1087  0.0069 -0.0037
 1135POPI    C316689   3.369  10.813   6.524 -0.0355 -0.0793 -0.1294
 1135POPI   PO416690   3.682  11.373   6.431 -0.0660  0.1258 -0.2584
 1135POPI   GL116691   3.771  11.539   6.712  0.2625  0.1179 -0.2153
 1135POPI   GL216692   3.775  11.315   6.951 -0.1952  0.0514  0.1083
 1135POPI   C1A16693   3.490  11.715   6.988  0.1661  0.0892  0.0708
 1135POPI   D2A16694   3.383  11.451   7.344  0.0215 -0.0009 -0.2438
 1135POPI   C3A16695   3.650  11.271   7.630 -0.3342  0.1691  0.1632
 1135POPI   C4A16696   3.550  11.063   7.992 -0.0551 -0.3751 -0.5283
 1135POPI   C1B16697   3.718  10.963   7.118  0.1916  0.3092  0.2103
 1135POPI   C2B16698   3.943  10.812   7.483  0.0200  0.1227  0.1927
 1135POPI   C3B16699   4.063  10.779   7.885 -0.2503 -0.3307  0.0827
 1135POPI   C4B16700   4.140  10.588   8.233 -0.2315  0.1902 -0.0032
 1136POPI    C116701  12.754   4.506   6.183 -0.0187 -0.0825 -0.1310
 1136POPI    C216702  12.815   4.869   6.026 -0.4612  0.0603  0.0128
 1136POPI    C316703  12.519   4.638   5.887 -0.2095 -0.2315 -0.0484
 1136POPI   PO416704  12.951   4.466   6.388 -0.2499  0.1072 -0.2060
 1136POPI   GL116705  12.905   4.258   6.732 -0.2291  0.1951 -0.0981
 1136POPI   GL216706  12.822   3.956   6.823 -0.3573 -0.0154 -0.0173
 1136POPI   C1A16707  12.764   4.371   7.130 -0.0020  0.0707 -0.4175
 1136POPI   D2A16708  12.875   4.366   7.464  0.1835  0.0702  0.0941
 1136POPI   C3A16709  12.836   4.460   7.816  0.0634  0.0033 -0.3363
 1136POPI   C4A16710  12.869   4.428   8.206 -0.0344 -0.0430  0.2099
 1136POPI   C1B16711  12.810   3.888   7.183  0.0299 -0.0057 -0.1760
 1136POPI   C2B16712  12.761   3.886   7.596 -0.2973 -0.1821 -0.0168
 1136POPI   C3B16713  12.833   3.922   8.010 -0.0056 -0.1530 -0.2828
 1136POPI   C4B16714  12.857   3.972   8.389 -0.0614  0.2494  0.0559
 1137POPI    C116715  11.309   0.078   6.523  0.1523  0.0213  0.0161
 1137POPI    C216716  11.353  -0.238   6.282 -0.1030  0.0558 -0.0780
 1137POPI    C316717  11.522   0.111   6.187 -0.0584  0.0231 -0.1191
 1137POPI   PO416718  11.246   0.000   6.698  0.1459 -0.1890 -0.0151
 1137POPI   GL116719  11.268   0.029   7.159 -0.2124  0.1474 -0.0611
 1137POPI   GL216720  11.001   0.122   7.338  0.0373  0.1426  0.2324
 1137POPI   C1A16721  11.366  -0.194   7.623  0.0004  0.0368  0.2886
 1137POPI   D2A16722  11.380  -0.131   7.952 -0.0592 -0.2513  0.0748
 1137POPI   C3A16723  11.259  -0.189   8.339 -0.2949  0.0381 -0.0472
 1137POPI   C4A16724  11.352  -0.439   8.751  0.1846 -0.1941 -0.0663
 1137POPI   C1B16725  10.962   0.160   7.707 -0.4167 -0.3305 -0.0680
 1137POPI   C2B16726  10.987   0.180   8.131 -0.0193 -0.2220  0.2234
 1137POPI   C3B16727  10.844   0.132   8.514  0.1374  0.0967 -0.1162
 1137POPI   C4B16728  10.829  -0.057   8.923 -0.0508  0.3840  0.0019
 1138POPI    C116729   7.619   5.234   6.496 -0.0716  0.1838 -0.0049
 1138POPI    C216730   7.261   5.189   6.324  0.0375  0.0582 -0.2024
 1138POPI    C316731   7.537   5.422   6.153  0.0856  0.0743 -0.1035
 1138POPI   PO416732   7.587   5.301   6.672  0.2292  0.4162  0.3664
 1138POPI   GL116733   7.725   5.472   6.972  0.2511  0.0672 -0.5022
 1138POPI   GL216734   7.971   5.591   6.973  0.0101  0.1864  0.1858
 1138POPI   C1A16735   7.819   5.361   7.459  0.2001 -0.0005 -0.0962
 1138POPI   D2A16736   7.781   5.284   7.934  0.2149 -0.1034  0.1323
 1138POPI   C3A16737   7.696   5.598   8.264 -0.1122  0.0893  0.2775
 1138POPI   C4A16738   7.706   5.540   8.759 -0.1071  0.1684 -0.1334
 1138POPI   C1B16739   7.837   5.826   7.425 -0.0613 -0.4062  0.0958
 1138POPI   C2B16740   7.757   5.842   7.808  0.1740 -0.0075 -0.0857
 1138POPI   C3B16741   7.386   5.945   8.110  0.0911  0.1550 -0.4230
 1138POPI   C4B16742   7.338   5.846   8.538 -0.2445  0.0526  0.2429
 1139POPI    C116743  14.292  14.247   5.830  0.0567  0.0498 -0.0265
 1139POPI    C216744  14.655  14.365   5.709  0.0634  0.0068 -0.0484
 1139POPI    C316745  14.328  14.497   5.520  0.0541  0.2579  0.1389
 1139POPI   PO416746  14.304  14.184   6.071  0.1272  0.1073  0.0032
 1139POPI   GL116747  14.100  14.348   6.384 -0.1092  0.1281  0.2794
 1139POPI   GL216748  14.411  14.471   6.504  0.2852  0.0252 -0.0745
 1139POPI   C1A16749  14.147  14.275   6.851 -0.1097  0.1922  0.2255
 1139POPI   D2A16750  14.280  14.248   7.279  0.1219 -0.1255  0.1537
 1139POPI   C3A16751  14.062  14.300   7.651  0.0284 -0.1137 -0.3083
 1139POPI   C4A16752  14.206  14.462   8.062  0.1678  0.2417 -0.1370
 1139POPI   C1B16753  14.511  14.616   6.884 -0.1165  0.0986 -0.1509
 1139POPI   C2B16754  14.591  14.658   7.211  0.0925 -0.0423 -0.2412
 1139POPI   C3B16755  14.624  14.475   7.742 -0.1289  0.1450  0.3990
 1139POPI   C4B16756  14.529  14.065   7.858  0.2152 -0.2851  0.2948
 1140POPI    C116757   2.162   9.921   6.033  0.1550  0.1125  0.0218
 1140POPI    C216758   2.247   9.645   5.756 -0.2809  0.0199 -0.0268
 1140POPI    C316759   2.116  10.007   5.645  0.2223  0.2317  0.0397
 1140POPI   PO416760   2.374   9.845   6.220 -0.2100  0.1789  0.0951
 1140POPI   GL116761   2.260   9.488   6.527  0.2173  0.0832 -0.0526
 1140POPI   GL216762   1.960   9.746   6.531 -0.0881 -0.0587 -0.1167
 1140POPI   C1A16763   2.093   9.562   7.003 -0.0072  0.3001  0.3991
 1140POPI   D2A16764   1.795   9.742   7.437 -0.2010  0.2952  0.1265
 1140POPI   C3A16765   1.983   9.956   7.773 -0.0076  0.3013  0.0149
 1140POPI   C4A16766   1.952  10.053   8.234  0.2411  0.1412  0.0739
 1140POPI   C1B16767   1.693   9.840   6.880  0.0007 -0.2508  0.4899
 1140POPI   C2B16768   1.578  10.076   7.167  0.0877  0.0691  0.3820
 1140POPI   C3B16769   1.546  10.220   7.577  0.1684 -0.0702 -0.1022
 1140POPI   C4B16770   1.567  10.263   7.984 -0.0014  0.0716 -0.0998
 1141POPI    C116771  13.912   2.656   6.203 -0.0748 -0.2424 -0.0426
 1141POPI    C216772  13.572   2.558   6.017 -0.2297  0.1839  0.0059
 1141POPI    C316773  13.821   2.823   5.851  0.0193 -0.0308  0.0316
 1141POPI   PO416774  13.882   2.685   6.481 -0.0933  0.1859  0.1593
 1141POPI   GL116775  13.929   2.410   6.818 -0.1998 -0.2007 -0.2191
 1141POPI   GL216776  13.910   2.078   6.725  0.0254  0.2605 -0.2114
 1141POPI   C1A16777  13.885   2.489   7.228 -0.3901  0.2066  0.1672
 1141POPI   D2A16778  13.973   2.396   7.624 -0.2023 -0.0698  0.1712
 1141POPI   C3A16779  13.977   2.406   8.114  0.1179  0.1138 -0.0731
 1141POPI   C4A16780  13.927   2.360   8.535 -0.0906  0.2443  0.2084
 1141POPI   C1B16781  13.940   1.932   7.075  0.0169  0.1485  0.2533
 1141POPI   C2B16782  13.912   1.927   7.448  0.0065 -0.1545  0.2522
 1141POPI   C3B16783  13.908   1.878   7.858  0.1424 -0.0494 -0.1588
 1141POPI   C4B16784  13.885   1.912   8.280  0.0661 -0.0680  0.0281
 1142POPI    C116785   3.749  16.250   5.973  0.1160  0.1122  0.0528
 1142POPI    C216786   3.435  16.370   5.756  0.0162  0.0070  0.1377
 1142POPI    C316787   3.755  16.214   5.574 -0.0503 -0.0430  0.0626
 1142POPI   PO416788   3.861  16.503   6.165 -0.0874  0.3428  0.1139
 1142POPI   GL116789   3.894  16.722   6.426  0.3765 -0.2633 -0.1788
 1142POPI   GL216790   3.627  16.664   6.621  0.0083  0.1777  0.1719
 1142POPI   C1A16791   3.999  16.930   6.836 -0.2036 -0.1379 -0.0131
 1142POPI   D2A16792   4.221  17.048   7.191  0.1411  0.1613  0.0688
 1142POPI   C3A16793   4.200  17.035   7.591 -0.0520  0.0378 -0.2771
 1142POPI   C4A16794   4.250  17.106   8.014  0.0537 -0.1222  0.1316
 1142POPI   C1B16795   3.439  16.617   6.987 -0.2766 -0.3518  0.3367
 1142POPI   C2B16796   3.344  16.647   7.395  0.1768  0.1943  0.1640
 1142POPI   C3B16797   3.350  16.735   7.814  0.3968  0.1416  0.2515
 1142POPI   C4B16798   3.532  16.554   8.179 -0.2513 -0.0831 -0.0115
 1143POPI    C116799  12.660  15.187   5.878  0.0436 -0.1170  0.1244
 1143POPI    C216800  13.007  15.361   5.782 -0.0075 -0.0044  0.1410
 1143POPI    C316801  12.726  15.308   5.502 -0.0087 -0.0214  0.1454
 1143POPI   PO416802  12.580  15.314   6.193  0.0722 -0.1489  0.1824
 1143POPI   GL116803  12.612  15.310   6.604  0.0714 -0.2919 -0.2481
 1143POPI   GL216804  12.374  15.163   6.599  0.1259  0.1268  0.1160
 1143POPI   C1A16805  12.766  15.322   6.931  0.0280  0.0850 -0.0754
 1143POPI   D2A16806  12.856  15.339   7.365 -0.2500 -0.1990 -0.1260
 1143POPI   C3A16807  12.831  15.283   7.814  0.0396 -0.0927 -0.0500
 1143POPI   C4A16808  12.904  15.289   8.211  0.0845  0.0315 -0.0811
 1143POPI   C1B16809  12.307  15.181   6.959  0.1954 -0.0135 -0.0758
 1143POPI   C2B16810  12.344  15.135   7.346  0.1004  0.0352 -0.0461
 1143POPI   C3B16811  12.287  15.041   7.760 -0.0769  0.1754  0.0452
 1143POPI   C4B16812  12.427  15.050   8.126  0.0774 -0.0004 -0.3130
 1144POPI    C116813   5.711   8.406   6.226  0.1215 -0.2699 -0.1714
 1144POPI    C216814   5.340   8.319   6.346  0.0590 -0.0770 -0.2225
 1144POPI    C316815   5.458   8.221   5.977  0.0811 -0.1993 -0.1831
 1144POPI   PO416816   5.830   8.316   6.362 -0.3342  0.0925 -0.0772
 1144POPI   GL116817   5.984   8.024   6.763 -0.2574 -0.0277  0.1611
 1144POPI   GL216818   5.651   8.071   6.830  0.0990 -0.0746 -0.0885
 1144POPI   C1A16819   6.161   8.241   7.067  0.1463 -0.3878  0.0652
 1144POPI   D2A16820   6.244   8.206   7.489  0.1147 -0.2024 -0.0580
 1144POPI   C3A16821   6.193   8.063   7.926  0.2425 -0.2445  0.1848
 1144POPI   C4A16822   6.169   8.167   8.292  0.0236 -0.1014  0.0192
 1144POPI   C1B16823   5.769   7.920   7.247 -0.3397  0.1374  0.1859
 1144POPI   C2B16824   5.754   7.908   7.655 -0.0651  0.2886 -0.3077
 1144POPI   C3B16825   5.732   8.043   8.019  0.3147  0.2332 -0.0109
 1144POPI   C4B16826   5.721   8.286   8.341 -0.0202 -0.2713  0.0250
 1145POPI    C116827   5.370   2.673   5.946  0.3233  0.0757 -0.2128
 1145POPI    C216828   5.303   3.027   6.121  0.1392 -0.0898  0.0593
 1145POPI    C316829   5.015   2.853   5.905  0.2057 -0.1073 -0.0159
 1145POPI   PO416830   5.536   2.534   6.205  0.0032 -0.0240  0.0032
 1145POPI   GL116831   5.440   2.399   6.618  0.1132 -0.2184  0.1553
 1145POPI   GL216832   5.335   2.114   6.588  0.1971  0.0652  0.3752
 1145POPI   C1A16833   5.421   2.477   7.142 -0.1735 -0.4500 -0.0418
 1145POPI   D2A16834   5.297   2.698   7.504  0.1277  0.4212  0.1947
 1145POPI   C3A16835   5.199   2.646   7.982  0.5772  0.2226 -0.0504
 1145POPI   C4A16836   5.249   2.546   8.411  0.0432 -0.3890  0.0187
 1145POPI   C1B16837   5.148   2.090   6.998 -0.4088 -0.0669 -0.1250
 1145POPI   C2B16838   5.044   2.174   7.351  0.0953 -0.2429 -0.3847
 1145POPI   C3B16839   5.037   2.254   7.781  0.1264 -0.1112  0.0509
 1145POPI   C4B16840   4.970   2.222   8.167 -0.1035  0.0657 -0.1787
 1146POPI    C116841   3.622   6.925   5.882  0.1539 -0.1637 -0.2307
 1146POPI    C216842   3.574   7.167   5.567  0.1073  0.0858 -0.0346
 1146POPI    C316843   3.864   6.892   5.565  0.1802  0.1622 -0.2474
 1146POPI   PO416844   3.388   6.771   5.956  0.0826  0.0769 -0.2400
 1146POPI   GL116845   3.383   6.611   6.369 -0.0104 -0.0423 -0.2015
 1146POPI   GL216846   3.054   6.695   6.517  0.3629  0.0481  0.2286
 1146POPI   C1A16847   3.312   6.429   6.810 -0.1373  0.1139  0.0006
 1146POPI   D2A16848   3.308   6.666   7.270  0.2576  0.1217 -0.3393
 1146POPI   C3A16849   3.346   6.636   7.729  0.1794  0.4655  0.2089
 1146POPI   C4A16850   3.191   6.647   8.294  0.0991 -0.1099  0.2248
 1146POPI   C1B16851   3.039   6.882   6.874  0.0690 -0.0319 -0.4034
 1146POPI   C2B16852   2.914   6.953   7.307  0.0583  0.1238 -0.1182
 1146POPI   C3B16853   2.887   6.921   7.760 -0.2706 -0.2080 -0.0005
 1146POPI   C4B16854   2.597   6.967   8.097  0.0740  0.2565  0.1242
 1147DPPI    C116855   5.082  12.649   6.275 -0.0414  0.0691 -0.1081
 1147DPPI    C216856   5.367  12.912   6.177 -0.0457  0.1289  0.0382
 1147DPPI    C316857   5.422  12.522   6.106  0.0185  0.1542 -0.0521
 1147DPPI   PO416858   5.059  12.694   6.552 -0.1167 -0.1039  0.4239
 1147DPPI   GL116859   5.164  12.707   6.941  0.1931  0.2441  0.2680
 1147DPPI   GL216860   5.456  12.533   6.997  0.1981  0.0706 -0.0022
 1147DPPI   C1A16861   5.297  13.025   7.325  0.1955 -0.2363 -0.1396
 1147DPPI   C2A16862   5.242  13.028   7.697 -0.1343  0.2783 -0.0638
 1147DPPI   C3A16863   5.216  13.010   8.103  0.1285 -0.0133 -0.4040
 1147DPPI   C4A16864   5.175  13.145   8.539  0.0159  0.0805 -0.1582
 1147DPPI   C1B16865   5.662  12.633   7.405 -0.0589  0.1212  0.1047
 1147DPPI   C2B16866   5.555  12.643   7.813  0.2487 -0.1139 -0.0450
 1147DPPI   C3B16867   5.539  12.597   8.207 -0.1554 -0.0678 -0.0983
 1147DPPI   C4B16868   5.279  12.654   8.617  0.0450 -0.1262  0.5189
 1148DPPI    C116869   2.339   4.734   5.636 -0.1814  0.0812  0.1680
 1148DPPI    C216870   2.588   5.027   5.743  0.0738 -0.0415 -0.0748
 1148DPPI    C316871   2.663   4.813   5.414 -0.1122 -0.3761  0.0958
 1148DPPI   PO416872   2.114   4.682   5.917 -0.0563 -0.0800 -0.1846
 1148DPPI   GL116873   2.133   4.862   6.353 -0.2322 -0.1482 -0.6993
 1148DPPI   GL216874   2.011   4.588   6.431 -0.0166  0.3168  0.1702
 1148DPPI   C1A16875   2.457   4.831   6.708 -0.4030 -0.0429 -0.1947
 1148DPPI   C2A16876   2.493   4.797   7.145 -0.1830  0.2975  0.0397
 1148DPPI   C3A16877   2.437   4.968   7.569 -0.1639 -0.0220 -0.1228
 1148DPPI   C4A16878   2.322   4.965   7.989  0.1903  0.1057 -0.2430
 1148DPPI   C1B16879   2.001   4.695   6.833 -0.0011  0.0998  0.1497
 1148DPPI   C2B16880   2.027   4.689   7.224 -0.1043 -0.0507  0.1659
 1148DPPI   C3B16881   2.059   4.701   7.656  0.4861 -0.2923  0.1605
 1148DPPI   C4B16882   1.912   4.689   8.023  0.0293 -0.0057  0.0060
 1149DPPI    C116883  13.246  16.276   6.137  0.1382  0.1165  0.2419
 1149DPPI    C216884  13.516  16.350   5.852 -0.0840  0.0308  0.0060
 1149DPPI    C316885  13.142  16.487   5.814 -0.1427 -0.0707  0.2061
 1149DPPI   PO416886  13.315  16.303   6.377 -0.0006 -0.0869 -0.0229
 1149DPPI   GL116887  13.109  16.382   6.768  0.0340  0.0610  0.1895
 1149DPPI   GL216888  12.968  16.025   6.673  0.0109 -0.1940  0.2333
 1149DPPI   C1A16889  13.036  16.309   7.076 -0.1992  0.3258  0.2091
 1149DPPI   C2A16890  12.991  16.316   7.466 -0.1745 -0.2976 -0.1332
 1149DPPI   C3A16891  13.043  16.312   7.924 -0.0736  0.1448 -0.0265
 1149DPPI   C4A16892  13.037  16.289   8.407  0.0704 -0.1664 -0.0663
 1149DPPI   C1B16893  12.879  15.832   7.064  0.3320 -0.1989 -0.0447
 1149DPPI   C2B16894  13.023  15.808   7.502  0.3599  0.1035  0.3037
 1149DPPI   C3B16895  13.007  15.756   7.894 -0.0601 -0.1418 -0.0665
 1149DPPI   C4B16896  12.937  15.813   8.234  0.2993  0.0163 -0.0984
 1150DPPI    C116897  10.865  16.994   6.546 -0.0844  0.0806  0.2834
 1150DPPI    C216898  10.609  17.266   6.404 -0.0997 -0.0584  0.0396
 1150DPPI    C316899  10.873  17.093   6.159 -0.1345 -0.3120  0.1779
 1150DPPI   PO416900  10.834  16.926   6.660 -0.1029  0.2334 -0.0874
 1150DPPI   GL116901  10.946  16.887   7.105 -0.2653  0.1405  0.1233
 1150DPPI   GL216902  11.291  16.745   7.194  0.3148 -0.0819 -0.1743
 1150DPPI   C1A16903  10.905  16.893   7.567 -0.0797 -0.0206 -0.0614
 1150DPPI   C2A16904  10.879  16.948   7.965  0.1856 -0.2885 -0.1238
 1150DPPI   C3A16905  10.816  16.801   8.367 -0.2023  0.0534 -0.0292
 1150DPPI   C4A16906  10.849  16.715   8.808  0.1224  0.5871  0.2537
 1150DPPI   C1B16907  11.283  16.516   7.601 -0.2197 -0.0022 -0.1586
 1150DPPI   C2B16908  11.234  16.598   8.062  0.1515  0.1199  0.2311
 1150DPPI   C3B16909  11.186  16.455   8.440 -0.0004  0.1150  0.0802
 1150DPPI   C4B16910  10.893  16.206   8.645  0.0899 -0.1169 -0.1043
 1151DPPI    C116911  17.135   8.778   5.390 -0.1241 -0.1756 -0.2057
 1151DPPI    C216912  16.804   8.857   5.180 -0.2439 -0.0042  0.0420
 1151DPPI    C316913  17.064   8.584   5.048 -0.3121  0.1041 -0.3297
 1151DPPI   PO416914  17.089   8.861   5.717  0.0203  0.4042  0.0822
 1151DPPI   GL116915  16.934   8.623   6.087 -0.1227  0.1709  0.0642
 1151DPPI   GL216916  16.625   8.676   6.161  0.0470  0.3211 -0.0033
 1151DPPI   C1A16917  16.981   8.611   6.513  0.1377  0.0865 -0.1464
 1151DPPI   C2A16918  17.011   8.550   6.951  0.2398 -0.0089 -0.0594
 1151DPPI   C3A16919  17.128   8.502   7.294  0.2172  0.0503 -0.0964
 1151DPPI   C4A16920  17.026   8.617   7.593  0.0179 -0.0312  0.0620
 1151DPPI   C1B16921  16.501   8.496   6.628 -0.0473 -0.1199 -0.1674
 1151DPPI   C2B16922  16.570   8.396   7.094 -0.0185  0.1736 -0.0793
 1151DPPI   C3B16923  16.529   8.414   7.477  0.0576 -0.1993  0.0579
 1151DPPI   C4B16924  16.547   8.393   7.947  0.1015  0.0352  0.2384
 1152DPPI    C116925   4.266  13.760   6.379  0.0614  0.0768  0.1099
 1152DPPI    C216926   3.902  13.836   6.232  0.1011 -0.1591 -0.1176
 1152DPPI    C316927   4.174  13.651   6.005  0.4258  0.1772 -0.0132
 1152DPPI   PO416928   4.211  13.727   6.605 -0.2601  0.1041 -0.0010
 1152DPPI   GL116929   4.140  13.929   6.917 -0.0283 -0.1033  0.1146
 1152DPPI   GL216930   4.505  14.092   6.766 -0.2538 -0.2488 -0.0371
 1152DPPI   C1A16931   4.180  13.879   7.388  0.0336  0.0781  0.1531
 1152DPPI   C2A16932   4.056  13.902   7.810 -0.3391  0.0497  0.3069
 1152DPPI   C3A16933   4.005  13.964   8.297  0.4113 -0.3435 -0.0619
 1152DPPI   C4A16934   3.866  13.937   8.748 -0.1153 -0.0552  0.0476
 1152DPPI   C1B16935   4.460  14.268   7.234 -0.0057 -0.0716  0.1152
 1152DPPI   C2B16936   4.434  14.510   7.717  0.1924  0.0947 -0.0314
 1152DPPI   C3B16937   4.487  14.571   8.112  0.0912  0.0424 -0.0763
 1152DPPI   C4B16938   4.627  14.462   8.512 -0.0829 -0.1406  0.3104
 1153DPPI    C116939  10.413   3.892   6.336 -0.0233 -0.0899  0.1176
 1153DPPI    C216940  10.669   4.060   6.078 -0.2743  0.0782 -0.0266
 1153DPPI    C316941  10.585   3.669   6.052 -0.1333  0.0496 -0.0604
 1153DPPI   PO416942  10.476   3.919   6.634 -0.1491 -0.4051 -0.1397
 1153DPPI   GL116943  10.729   4.099   7.009  0.0315  0.5676 -0.3071
 1153DPPI   GL216944  10.350   4.088   7.102 -0.2703 -0.0548 -0.2000
 1153DPPI   C1A16945  10.943   4.145   7.403 -0.0639 -0.1846  0.1835
 1153DPPI   C2A16946  10.977   4.084   7.744  0.0303 -0.0737 -0.0878
 1153DPPI   C3A16947  10.983   4.060   8.164  0.1525 -0.1786 -0.0770
 1153DPPI   C4A16948  10.995   4.178   8.487  0.0040 -0.1060 -0.1308
 1153DPPI   C1B16949  10.427   4.422   7.430 -0.0408  0.2665  0.1648
 1153DPPI   C2B16950  10.557   4.366   7.844 -0.1365  0.0489  0.1631
 1153DPPI   C3B16951  10.538   4.440   8.234  0.3730 -0.2317  0.0860
 1153DPPI   C4B16952  10.673   4.523   8.688 -0.0432 -0.0111  0.0070
 1154DPPI    C116953  13.394   1.468   6.273  0.0697 -0.1033  0.2317
 1154DPPI    C216954  13.199   1.226   6.021  0.1346 -0.0189  0.0989
 1154DPPI    C316955  13.223   1.618   5.944  0.1022  0.0176  0.2693
 1154DPPI   PO416956  13.634   1.353   6.292 -0.2212 -0.1015 -0.1877
 1154DPPI   GL116957  13.799   1.054   6.670 -0.0862  0.1050  0.0908
 1154DPPI   GL216958  14.001   1.263   6.683  0.1355 -0.2630 -0.0772
 1154DPPI   C1A16959  13.745   0.950   7.118  0.1379 -0.0879  0.0011
 1154DPPI   C2A16960  13.732   0.801   7.572  0.1416  0.0288  0.0127
 1154DPPI   C3A16961  13.799   0.917   7.981  0.2073  0.1290  0.0621
 1154DPPI   C4A16962  13.732   0.813   8.463  0.0884  0.0811  0.0287
 1154DPPI   C1B16963  14.292   1.109   6.905 -0.3670 -0.1497  0.2495
 1154DPPI   C2B16964  14.251   0.968   7.268  0.1486 -0.2907 -0.1699
 1154DPPI   C3B16965  14.216   1.025   7.692  0.3062 -0.2572  0.1054
 1154DPPI   C4B16966  14.246   1.073   8.154  0.1082 -0.3026 -0.1028
 1155DPPI    C116967   0.716  16.159   5.928  0.1511  0.1321  0.0405
 1155DPPI    C216968   0.768  15.899   5.628 -0.1064  0.2413 -0.1023
 1155DPPI    C316969   1.048  16.173   5.706 -0.0083  0.1693 -0.1995
 1155DPPI   PO416970   0.703  16.060   6.177  0.0543 -0.2205  0.2017
 1155DPPI   GL116971   0.465  16.319   6.596 -0.1920  0.0149  0.2730
 1155DPPI   GL216972   0.772  16.226   6.609 -0.2430  0.1340  0.0442
 1155DPPI   C1A16973   0.256  16.312   6.974  0.0748  0.2166  0.2264
 1155DPPI   C2A16974   0.349  16.364   7.397 -0.1478  0.5125 -0.0260
 1155DPPI   C3A16975   0.401  16.218   7.843  0.0448  0.3201 -0.1816
 1155DPPI   C4A16976   0.240  16.250   8.249  0.2502  0.0827 -0.1406
 1155DPPI   C1B16977   0.865  16.010   6.995 -0.1183 -0.0625  0.0139
 1155DPPI   C2B16978   0.829  16.022   7.450 -0.0562 -0.2080  0.1320
 1155DPPI   C3B16979   0.816  15.835   7.931  0.2451 -0.0878  0.4614
 1155DPPI   C4B16980   0.696  15.972   8.327 -0.0540  0.2244 -0.1196
 1156DPPI    C116981   6.764  14.105   6.106  0.0749 -0.0149  0.0181
 1156DPPI    C216982   6.985  14.413   5.978 -0.0956  0.1422  0.0977
 1156DPPI    C316983   6.602  14.382   5.867 -0.1103  0.0199  0.1809
 1156DPPI   PO416984   6.893  14.137   6.384 -0.3058  0.1988 -0.0024
 1156DPPI   GL116985   6.850  13.895   6.689 -0.0856 -0.0940  0.1996
 1156DPPI   GL216986   6.981  13.506   6.785 -0.2280 -0.2977 -0.0063
 1156DPPI   C1A16987   6.817  13.936   7.110  0.0257 -0.0073 -0.3069
 1156DPPI   C2A16988   6.937  14.024   7.552  0.1607 -0.1163  0.2185
 1156DPPI   C3A16989   6.789  14.012   7.947  0.2318 -0.3327 -0.1205
 1156DPPI   C4A16990   6.826  13.909   8.382 -0.0091  0.3027  0.0735
 1156DPPI   C1B16991   7.183  13.478   7.191  0.2000 -0.3313  0.2583
 1156DPPI   C2B16992   7.161  13.605   7.627  0.0878 -0.0900  0.2047
 1156DPPI   C3B16993   7.096  13.584   8.039 -0.0615 -0.0852 -0.2345
 1156DPPI   C4B16994   7.287  13.669   8.449  0.0887 -0.0677 -0.0488
 1157DPPI    C116995   1.168  10.807   5.659 -0.1948 -0.0038 -0.1240
 1157DPPI    C216996   0.848  10.607   5.527  0.0134 -0.2568 -0.2539
 1157DPPI    C316997   1.216  10.473   5.444  0.1536 -0.0733  0.0540
 1157DPPI   PO416998   0.940  10.884   5.920 -0.2204  0.1038  0.0131
 1157DPPI   GL116999   0.767  10.802   6.296 -0.1587  0.1462  0.1676
 1157DPPI   GL217000   0.743  11.062   6.428 -0.0264  0.0269 -0.1948
 1157DPPI   C1A17001   0.945  10.546   6.672  0.0670  0.1196  0.0404
 1157DPPI   C2A17002   0.994  10.542   7.031 -0.0787  0.3481 -0.0506
 1157DPPI   C3A17003   1.078  10.521   7.513  0.0625  0.0899  0.1524
 1157DPPI   C4A17004   1.117  10.603   7.948  0.0181 -0.0412 -0.1684
 1157DPPI   C1B17005   0.700  10.961   6.852 -0.0864  0.0600 -0.0476
 1157DPPI   C2B17006   0.718  10.822   7.330  0.2751 -0.1783 -0.3909
 1157DPPI   C3B17007   0.708  10.830   7.794 -0.0911  0.0326 -0.0971
 1157DPPI   C4B17008   0.622  11.041   8.180 -0.0438  0.2036  0.2122
 1158DPPI    C117009  11.998   6.233   6.070  0.0507 -0.3165 -0.0497
 1158DPPI    C217010  11.994   5.911   5.833 -0.3263 -0.2313 -0.1674
 1158DPPI    C317011  11.755   6.221   5.752 -0.0939  0.0083  0.0440
 1158DPPI   PO417012  12.148   6.160   6.266 -0.0638  0.2537 -0.1002
 1158DPPI   GL117013  12.336   5.974   6.613  0.1369  0.0283  0.0062
 1158DPPI   GL217014  12.146   6.124   6.805  0.1286 -0.1492 -0.0057
 1158DPPI   C1A17015  12.158   5.660   6.841  0.1542  0.0082 -0.2881
 1158DPPI   C2A17016  12.033   5.477   7.185  0.0672 -0.0858 -0.1939
 1158DPPI   C3A17017  12.087   5.518   7.595  0.3267  0.1086  0.3752
 1158DPPI   C4A17018  12.102   5.457   7.963 -0.1994 -0.0597 -0.0820
 1158DPPI   C1B17019  12.129   6.058   7.202  0.0480 -0.0064  0.0557
 1158DPPI   C2B17020  12.174   6.018   7.733  0.1281  0.3171 -0.1052
 1158DPPI   C3B17021  12.155   6.001   8.183 -0.0670  0.2126  0.0296
 1158DPPI   C4B17022  12.139   5.994   8.626  0.2287 -0.1329  0.2178
 1159DPPI    C117023  11.906   1.280   6.518 -0.0037 -0.0058 -0.0438
 1159DPPI    C217024  11.990   1.527   6.215 -0.0350 -0.0854 -0.1177
 1159DPPI    C317025  11.635   1.548   6.396  0.0078  0.0060 -0.0434
 1159DPPI   PO417026  12.186   1.293   6.678  0.1901  0.2780  0.1473
 1159DPPI   GL117027  12.465   1.470   6.856 -0.0675 -0.0379 -0.3399
 1159DPPI   GL217028  12.582   1.715   6.792 -0.1426 -0.0582 -0.2091
 1159DPPI   C1A17029  12.445   1.252   7.278 -0.0531  0.0541  0.1873
 1159DPPI   C2A17030  12.390   1.316   7.743 -0.0354  0.4187 -0.1429
 1159DPPI   C3A17031  12.456   1.251   8.140  0.1723  0.0707 -0.1084
 1159DPPI   C4A17032  12.419   1.063   8.626  0.0967  0.2717  0.1402
 1159DPPI   C1B17033  12.494   1.877   7.166  0.0510 -0.0286  0.0547
 1159DPPI   C2B17034  12.466   1.873   7.568 -0.3112 -0.0468  0.0307
 1159DPPI   C3B17035  12.502   1.775   7.998  0.1241 -0.0749 -0.0572
 1159DPPI   C4B17036  12.559   1.639   8.387  0.1434  0.0346 -0.1465
 1160DPPI    C117037   7.991  10.829   6.423  0.4096  0.0817 -0.0040
 1160DPPI    C217038   8.172  10.934   6.082  0.0218 -0.1017 -0.2745
 1160DPPI    C317039   7.797  11.052   6.154  0.0754 -0.1236  0.0604
 1160DPPI   PO417040   8.080  10.569   6.450  0.2008  0.1661  0.1611
 1160DPPI   GL117041   8.016  10.327   6.789  0.1348 -0.0158 -0.1147
 1160DPPI   GL217042   7.815  10.146   6.849  0.0514 -0.0751 -0.0611
 1160DPPI   C1A17043   7.913  10.460   7.263  0.2138  0.1184  0.1622
 1160DPPI   C2A17044   8.017  10.441   7.640 -0.1738  0.1862  0.1764
 1160DPPI   C3A17045   8.130  10.408   8.101 -0.1397  0.3316 -0.0497
 1160DPPI   C4A17046   8.255  10.503   8.503 -0.2870 -0.0838  0.0241
 1160DPPI   C1B17047   7.663   9.904   7.254 -0.0716 -0.2279  0.1570
 1160DPPI   C2B17048   7.677   9.980   7.650 -0.0834 -0.0563  0.1289
 1160DPPI   C3B17049   7.787   9.942   8.106  0.5646 -0.0719  0.3633
 1160DPPI   C4B17050   7.927  10.039   8.515  0.0020 -0.0838  0.1049
 1161DPPI    C117051  11.095   2.762   6.525  0.1711  0.0523  0.0136
 1161DPPI    C217052  11.253   2.617   6.188 -0.2287 -0.1739 -0.0825
 1161DPPI    C317053  11.027   2.946   6.177  0.1214  0.0768  0.0363
 1161DPPI   PO417054  11.217   2.436   6.634 -0.0566 -0.0410 -0.0372
 1161DPPI   GL117055  11.443   2.280   6.964  0.3486 -0.0636  0.0040
 1161DPPI   GL217056  11.331   2.020   7.145 -0.1132  0.1745  0.1400
 1161DPPI   C1A17057  11.648   2.466   7.178 -0.0951 -0.1822  0.0447
 1161DPPI   C2A17058  11.706   2.427   7.632  0.0095 -0.0115 -0.2174
 1161DPPI   C3A17059  11.739   2.335   7.990  0.0501  0.1393 -0.1637
 1161DPPI   C4A17060  11.808   2.387   8.387  0.2033  0.1953 -0.0234
 1161DPPI   C1B17061  11.125   2.227   7.438 -0.2013  0.0505 -0.0609
 1161DPPI   C2B17062  11.236   2.222   7.849 -0.1028  0.1166 -0.0747
 1161DPPI   C3B17063  11.216   2.296   8.239 -0.2522 -0.2430  0.0624
 1161DPPI   C4B17064  11.392   2.135   8.616 -0.1160  0.3854 -0.1046
 1162DPPI    C117065  14.812   1.570   6.082 -0.0866 -0.1528  0.0972
 1162DPPI    C217066  14.911   1.719   5.724 -0.1279  0.2217  0.2369
 1162DPPI    C317067  14.587   1.487   5.762  0.0148 -0.0240 -0.0089
 1162DPPI   PO417068  15.049   1.445   6.182  0.1250 -0.1314  0.0566
 1162DPPI   GL117069  15.138   1.300   6.550  0.0497  0.0098  0.5474
 1162DPPI   GL217070  15.473   1.127   6.616 -0.0800  0.0207  0.3079
 1162DPPI   C1A17071  15.225   1.387   7.016 -0.0000 -0.1501  0.2414
 1162DPPI   C2A17072  15.273   1.425   7.550 -0.3491 -0.0449 -0.1230
 1162DPPI   C3A17073  15.160   1.441   7.945 -0.1839  0.0988 -0.2481
 1162DPPI   C4A17074  15.301   1.386   8.314 -0.1236  0.3960  0.0520
 1162DPPI   C1B17075  15.733   1.168   6.890 -0.0940 -0.0674  0.0846
 1162DPPI   C2B17076  15.655   1.146   7.353  0.2494 -0.3507  0.1333
 1162DPPI   C3B17077  15.645   1.204   7.770  0.0363 -0.1076 -0.0504
 1162DPPI   C4B17078  15.688   1.026   8.182  0.1492 -0.2037  0.1720
 1163DPPI    C117079   9.137   0.190   6.425  0.0213 -0.0128 -0.0350
 1163DPPI    C217080   9.505   0.036   6.413 -0.0396 -0.1729  0.1079
 1163DPPI    C317081   9.406   0.335   6.167  0.1926 -0.1114  0.0861
 1163DPPI   PO417082   9.041   0.176   6.641  0.0535  0.3682  0.2105
 1163DPPI   GL117083   9.114   0.082   6.961 -0.1092 -0.0610  0.0424
 1163DPPI   GL217084   9.460   0.171   6.907 -0.1593 -0.1475  0.0257
 1163DPPI   C1A17085   9.129  -0.036   7.405 -0.1570  0.0836 -0.1538
 1163DPPI   C2A17086   9.000  -0.169   7.742 -0.4659  0.0825  0.1409
 1163DPPI   C3A17087   9.119  -0.218   8.135 -0.0990 -0.0699 -0.0398
 1163DPPI   C4A17088   9.116  -0.134   8.580  0.2798 -0.3026 -0.2538
 1163DPPI   C1B17089   9.500   0.279   7.329 -0.2318  0.1176 -0.0748
 1163DPPI   C2B17090   9.369   0.162   7.789 -0.0946 -0.1701  0.4364
 1163DPPI   C3B17091   9.504   0.171   8.125 -0.1380  0.2051 -0.2001
 1163DPPI   C4B17092   9.500   0.236   8.526 -0.0692  0.1207 -0.0276
 1164DPPI    C117093   8.577   9.852   6.406  0.0245  0.1996  0.0050
 1164DPPI    C217094   8.331   9.675   6.145  0.2945  0.2546 -0.2930
 1164DPPI    C317095   8.262  10.051   6.262 -0.0413  0.1037  0.0152
 1164DPPI   PO417096   8.796   9.682   6.328  0.1316 -0.0099 -0.0529
 1164DPPI   GL117097   9.100   9.680   6.589  0.0533  0.0367 -0.0577
 1164DPPI   GL217098   8.827   9.442   6.771 -0.1365  0.1328  0.1608
 1164DPPI   C1A17099   9.197   9.581   7.072  0.1251 -0.1402 -0.0216
 1164DPPI   C2A17100   9.284   9.561   7.581 -0.2034  0.1326 -0.0219
 1164DPPI   C3A17101   9.308   9.358   8.001 -0.0669  0.0032 -0.0848
 1164DPPI   C4A17102   9.381   9.297   8.397  0.2278  0.2494  0.0806
 1164DPPI   C1B17103   8.549   9.408   7.077 -0.1115 -0.1675 -0.1261
 1164DPPI   C2B17104   8.427   9.535   7.487 -0.0080 -0.1887  0.0781
 1164DPPI   C3B17105   8.549   9.465   7.929  0.1010  0.0008 -0.1968
 1164DPPI   C4B17106   8.954   9.635   8.306  0.1332  0.0354  0.0926
 1165DPPI    C117107   6.015  11.145   5.926 -0.1556 -0.0845  0.2006
 1165DPPI    C217108   6.016  11.531   5.821  0.0799 -0.0629  0.2750
 1165DPPI    C317109   5.695  11.304   5.745  0.1629 -0.0010 -0.3112
 1165DPPI   PO417110   6.048  11.152   6.232  0.0821  0.1936 -0.2264
 1165DPPI   GL117111   6.121  11.036   6.649  0.2987  0.0867 -0.0463
 1165DPPI   GL217112   6.037  10.723   6.633 -0.0726  0.4928  0.2859
 1165DPPI   C1A17113   6.146  10.834   7.063  0.0904 -0.1206 -0.1807
 1165DPPI   C2A17114   6.215  10.857   7.428  0.1573 -0.0077  0.1618
 1165DPPI   C3A17115   6.054  10.833   7.862 -0.2467  0.0971  0.1492
 1165DPPI   C4A17116   5.891  10.813   8.292  0.2353  0.0912 -0.1268
 1165DPPI   C1B17117   5.662  10.790   6.893  0.2251 -0.0935 -0.1221
 1165DPPI   C2B17118   5.709  10.878   7.261  0.2124  0.2388  0.3456
 1165DPPI   C3B17119   5.575  10.870   7.639 -0.0289  0.1406 -0.1710
 1165DPPI   C4B17120   5.442  10.837   8.032 -0.4238 -0.1205  0.2827
 1166DPPI    C117121   2.588   4.815   6.208  0.0646 -0.0487  0.1499
 1166DPPI    C217122   2.687   4.563   5.914  0.1500 -0.0052  0.1411
 1166DPPI    C317123   2.457   4.437   6.216 -0.1250  0.0103 -0.0579
 1166DPPI   PO417124   2.881   4.956   6.167  0.4405  0.0019  0.0358
 1166DPPI   GL117125   3.173   5.013   6.550 -0.0264  0.0929  0.2165
 1166DPPI   GL217126   3.406   4.946   6.788  0.2034  0.0991  0.2181
 1166DPPI   C1A17127   2.925   4.954   6.990 -0.0442  0.1430  0.2194
 1166DPPI   C2A17128   2.891   5.029   7.419  0.2849  0.1408 -0.0249
 1166DPPI   C3A17129   2.814   4.973   7.883  0.0846  0.0328  0.0311
 1166DPPI   C4A17130   2.708   5.186   8.283  0.0089  0.0170  0.2747
 1166DPPI   C1B17131   3.393   4.957   7.153  0.0186 -0.4769 -0.1390
 1166DPPI   C2B17132   3.432   4.933   7.612 -0.1927 -0.1408 -0.2315
 1166DPPI   C3B17133   3.432   4.959   7.981  0.1035 -0.1453 -0.2360
 1166DPPI   C4B17134   3.186   5.255   8.077 -0.0751 -0.1538  0.0367
 1167DPPI    C117135   4.988   9.652   6.503 -0.0078  0.0458  0.0024
 1167DPPI    C217136   4.952   9.287   6.342  0.2495  0.0027  0.0383
 1167DPPI    C317137   4.626   9.510   6.408  0.0971 -0.1917 -0.0491
 1167DPPI   PO417138   5.206   9.653   6.620  0.0416 -0.2324  0.0840
 1167DPPI   GL117139   5.442   9.436   6.672 -0.1787  0.1923 -0.2132
 1167DPPI   GL217140   5.256   9.108   6.718 -0.0568 -0.1266  0.0535
 1167DPPI   C1A17141   5.378   9.462   7.216 -0.3100 -0.0968  0.3902
 1167DPPI   C2A17142   5.458   9.493   7.590 -0.1252  0.0332  0.0829
 1167DPPI   C3A17143   5.453   9.491   7.910 -0.1382  0.0168  0.0795
 1167DPPI   C4A17144   5.450   9.585   8.355  0.2435  0.2374 -0.0855
 1167DPPI   C1B17145   5.052   9.098   7.090 -0.0285 -0.2983 -0.1504
 1167DPPI   C2B17146   5.068   9.103   7.474  0.3471  0.0984  0.0610
 1167DPPI   C3B17147   5.111   9.025   7.850  0.1368  0.0565  0.1319
 1167DPPI   C4B17148   5.062   9.284   8.162 -0.2791  0.1315 -0.1164
 1168DPPI    C117149   2.152  16.979   6.144  0.2365  0.0239  0.0176
 1168DPPI    C217150   2.392  16.774   5.898 -0.0307  0.0153 -0.2403
 1168DPPI    C317151   2.016  16.651   5.959 -0.0837  0.2310 -0.1225
 1168DPPI   PO417152   2.304  16.886   6.443  0.4133  0.1772 -0.2887
 1168DPPI   GL117153   2.573  16.553   6.714 -0.0884 -0.2893 -0.1540
 1168DPPI   GL217154   2.666  16.238   6.878  0.0979  0.0029  0.1092
 1168DPPI   C1A17155   2.361  16.641   7.063 -0.0006  0.3932 -0.1049
 1168DPPI   C2A17156   2.359  16.552   7.592 -0.0267 -0.0192 -0.0974
 1168DPPI   C3A17157   2.247  16.476   8.044 -0.1437 -0.0805 -0.1009
 1168DPPI   C4A17158   2.446  16.551   8.413 -0.1519  0.0349 -0.3106
 1168DPPI   C1B17159   2.697  16.335   7.307  0.3889 -0.0584  0.1240
 1168DPPI   C2B17160   2.706  16.220   7.782 -0.1445  0.1092 -0.2997
 1168DPPI   C3B17161   2.687  16.066   8.108  0.1160  0.1025  0.1762
 1168DPPI   C4B17162   2.795  16.170   8.359 -0.1513 -0.0894 -0.0378
 1169DPPI    C117163   8.842   0.555   6.201  0.3073 -0.2110  0.0044
 1169DPPI    C217164   9.081   0.657   5.897 -0.0706  0.2493 -0.1505
 1169DPPI    C317165   8.721   0.499   5.824 -0.0081 -0.0018  0.0708
 1169DPPI   PO417166   8.966   0.707   6.457 -0.3264 -0.3505  0.0810
 1169DPPI   GL117167   8.904   0.588   6.872  0.2294  0.1961  0.2271
 1169DPPI   GL217168   9.166   0.653   7.026  0.0152 -0.2298 -0.2163
 1169DPPI   C1A17169   8.603   0.650   7.121 -0.2218 -0.2342  0.1602
 1169DPPI   C2A17170   8.493   0.600   7.602 -0.0639 -0.0595 -0.0975
 1169DPPI   C3A17171   8.440   0.627   8.104 -0.1417  0.0463 -0.1628
 1169DPPI   C4A17172   8.574   0.666   8.582  0.1105 -0.3814  0.1671
 1169DPPI   C1B17173   9.046   0.421   7.359 -0.0905  0.1039  0.0709
 1169DPPI   C2B17174   8.917   0.393   7.779  0.1882 -0.1759 -0.0718
 1169DPPI   C3B17175   9.002   0.328   8.204  0.0316  0.3646 -0.2080
 1169DPPI   C4B17176   9.079   0.492   8.593 -0.1332  0.0281  0.0745
 1170DPPI    C117177  17.041   7.460   5.587  0.0112  0.1537 -0.0579
 1170DPPI    C217178  16.931   7.095   5.466 -0.3069  0.1761  0.1516
 1170DPPI    C317179  17.062   7.362   5.199 -0.1863 -0.0502 -0.0194
 1170DPPI   PO417180  17.186   7.411   5.828 -0.0693  0.2065  0.1975
 1170DPPI   GL117181  17.137   7.571   6.252 -0.0174 -0.2624 -0.1439
 1170DPPI   GL217182  16.891   7.626   6.420 -0.1301 -0.1582  0.1693
 1170DPPI   C1A17183  17.304   7.795   6.594 -0.1554 -0.0398  0.2791
 1170DPPI   C2A17184  17.293   7.625   6.963  0.3532  0.3222  0.1527
 1170DPPI   C3A17185  17.330   7.740   7.375 -0.0946  0.0080 -0.1062
 1170DPPI   C4A17186  17.413   7.804   7.687  0.2386  0.1810  0.1099
 1170DPPI   C1B17187  16.758   7.572   6.873 -0.0951 -0.3195 -0.1763
 1170DPPI   C2B17188  16.860   7.542   7.307  0.1302 -0.1204 -0.4982
 1170DPPI   C3B17189  16.920   7.602   7.736 -0.2197 -0.3174 -0.2512
 1170DPPI   C4B17190  17.135   7.711   8.087 -0.1254 -0.0673 -0.0835
 1171DPPI    C117191   8.863   8.232   6.126  0.0854 -0.0444  0.0267
 1171DPPI    C217192   8.749   7.910   5.919  0.1158  0.0341 -0.1133
 1171DPPI    C317193   9.103   8.080   5.845  0.1928 -0.0260  0.1079
 1171DPPI   PO417194   8.837   8.224   6.416  0.1046 -0.0442 -0.4217
 1171DPPI   GL117195   9.072   8.124   6.711 -0.0812  0.0255 -0.1206
 1171DPPI   GL217196   8.886   7.906   6.832 -0.0497 -0.4650 -0.1423
 1171DPPI   C1A17197   9.312   8.145   7.131 -0.0620 -0.0608  0.1274
 1171DPPI   C2A17198   9.246   8.260   7.551  0.0918 -0.0081 -0.2423
 1171DPPI   C3A17199   9.195   8.328   7.981 -0.2349  0.2049 -0.2081
 1171DPPI   C4A17200   9.240   8.139   8.354  0.0871  0.3393 -0.0338
 1171DPPI   C1B17201   8.879   8.054   7.332  0.1172 -0.0838  0.1757
 1171DPPI   C2B17202   8.784   8.089   7.793 -0.1194  0.0165 -0.0018
 1171DPPI   C3B17203   8.747   8.052   8.154 -0.0557  0.1326  0.2000
 1171DPPI   C4B17204   8.732   7.897   8.532  0.1700 -0.1335 -0.0206
 1172DPPI    C117205  16.801   0.998   5.985 -0.0709  0.0954  0.0057
 1172DPPI    C217206  16.856   0.689   5.737 -0.2171  0.1091 -0.0447
 1172DPPI    C317207  16.513   0.724   5.940 -0.1488  0.1679  0.0608
 1172DPPI   PO417208  17.020   0.964   6.157  0.2171 -0.3600 -0.1346
 1172DPPI   GL117209  17.004   1.223   6.574  0.0248 -0.1005 -0.3243
 1172DPPI   GL217210  17.082   0.874   6.627  0.0398  0.1348 -0.1115
 1172DPPI   C1A17211  17.088   1.246   7.028 -0.2340 -0.1921 -0.0696
 1172DPPI   C2A17212  17.072   1.192   7.471 -0.1943 -0.1890  0.2378
 1172DPPI   C3A17213  17.149   1.209   7.880  0.1988 -0.1787 -0.1798
 1172DPPI   C4A17214  17.075   1.188   8.271 -0.1586 -0.1236  0.2023
 1172DPPI   C1B17215  17.006   0.791   7.107  0.1065 -0.1486 -0.0388
 1172DPPI   C2B17216  16.988   0.693   7.556 -0.4306 -0.1769  0.2909
 1172DPPI   C3B17217  16.998   0.750   8.023 -0.1255  0.1846  0.0004
 1172DPPI   C4B17218  16.837   0.719   8.552 -0.0790  0.2957 -0.0549
 1173DPPI    C117219  12.690   8.676   6.213 -0.0206 -0.2618 -0.1397
 1173DPPI    C217220  12.766   8.461   5.885 -0.1101  0.0788 -0.3884
 1173DPPI    C317221  12.600   8.824   5.853  0.2202  0.2732  0.0093
 1173DPPI   PO417222  12.616   8.531   6.363  0.0697 -0.0845 -0.1090
 1173DPPI   GL117223  12.464   8.273   6.610 -0.3213 -0.1769  0.0749
 1173DPPI   GL217224  12.417   8.628   6.782 -0.0084 -0.1370 -0.0144
 1173DPPI   C1A17225  12.281   8.247   7.058 -0.1628 -0.0142 -0.2156
 1173DPPI   C2A17226  12.277   8.265   7.457  0.0124  0.0609  0.0880
 1173DPPI   C3A17227  12.460   8.087   7.903 -0.1611  0.1087  0.1564
 1173DPPI   C4A17228  12.521   8.081   8.337  0.1391  0.1596 -0.2988
 1173DPPI   C1B17229  12.433   8.698   7.257  0.2002  0.0861 -0.0264
 1173DPPI   C2B17230  12.418   8.714   7.727 -0.3824  0.1018  0.0308
 1173DPPI   C3B17231  12.531   8.649   8.073 -0.1548 -0.2170  0.0288
 1173DPPI   C4B17232  12.631   8.595   8.486  0.0949  0.0508 -0.3808
 1174DPPI    C117233   6.206   6.356   6.251  0.1257 -0.1660  0.0695
 1174DPPI    C217234   6.107   6.384   5.865 -0.1197  0.0686  0.1465
 1174DPPI    C317235   6.489   6.330   5.969 -0.0431  0.0692 -0.1257
 1174DPPI   PO417236   6.199   6.586   6.379 -0.0620  0.0461 -0.0324
 1174DPPI   GL117237   6.210   6.697   6.682  0.0301  0.0817 -0.3312
 1174DPPI   GL217238   6.500   6.813   6.782 -0.0450 -0.2915 -0.0723
 1174DPPI   C1A17239   5.992   6.763   7.075 -0.1032  0.2489 -0.0069
 1174DPPI   C2A17240   5.900   6.659   7.422 -0.1770  0.2659 -0.1745
 1174DPPI   C3A17241   5.956   6.691   7.868  0.0647  0.2458  0.1200
 1174DPPI   C4A17242   5.898   6.803   8.211 -0.1103  0.0717 -0.1676
 1174DPPI   C1B17243   6.482   6.639   7.260  0.1686  0.1664 -0.1825
 1174DPPI   C2B17244   6.379   6.749   7.684  0.1704  0.0810 -0.1000
 1174DPPI   C3B17245   6.416   6.794   8.091 -0.1828 -0.1590  0.1705
 1174DPPI   C4B17246   6.289   6.728   8.511  0.0559 -0.2667 -0.2791
 1175DPPI    C117247  15.759   8.443   5.468 -0.0253  0.0849  0.0357
 1175DPPI    C217248  15.486   8.304   5.210 -0.0312  0.1242  0.0206
 1175DPPI    C317249  15.869   8.197   5.172 -0.0708 -0.0682  0.1445
 1175DPPI   PO417250  15.609   8.610   5.652 -0.0765 -0.1217  0.0846
 1175DPPI   GL117251  15.730   8.478   6.023  0.2168  0.0902 -0.1407
 1175DPPI   GL217252  16.000   8.697   6.190  0.2907  0.1220 -0.1646
 1175DPPI   C1A17253  15.568   8.480   6.438  0.0039 -0.0166 -0.0703
 1175DPPI   C2A17254  15.577   8.544   6.791  0.0449 -0.1140  0.1446
 1175DPPI   C3A17255  15.597   8.472   7.172  0.4243  0.0226  0.3041
 1175DPPI   C4A17256  15.589   8.503   7.605  0.2387 -0.0594 -0.0604
 1175DPPI   C1B17257  16.188   8.840   6.510  0.1422 -0.0904  0.3102
 1175DPPI   C2B17258  16.166   8.699   6.916  0.0828  0.1075 -0.2549
 1175DPPI   C3B17259  16.089   8.753   7.333 -0.1402  0.1869 -0.3031
 1175DPPI   C4B17260  16.125   8.676   7.787  0.3720 -0.1727  0.2946
 1176DPPI    C117261  11.720  13.096   6.133  0.2618 -0.0158 -0.0728
 1176DPPI    C217262  11.541  13.406   5.956 -0.4090 -0.2714  0.1276
 1176DPPI    C317263  11.757  13.150   5.738 -0.2476  0.0636 -0.1159
 1176DPPI   PO417264  11.749  13.212   6.383 -0.0884 -0.0322 -0.2532
 1176DPPI   GL117265  11.603  13.212   6.777 -0.0543  0.1193  0.0605
 1176DPPI   GL217266  11.464  12.955   6.895  0.3202  0.0232  0.0720
 1176DPPI   C1A17267  11.658  13.363   7.197 -0.2090 -0.0155 -0.3034
 1176DPPI   C2A17268  11.678  13.297   7.668 -0.0351 -0.2307 -0.0114
 1176DPPI   C3A17269  11.709  13.297   8.146 -0.2732  0.1151  0.0219
 1176DPPI   C4A17270  11.589  13.402   8.559 -0.1982  0.0938 -0.0372
 1176DPPI   C1B17271  11.578  12.852   7.240  0.0354  0.1713 -0.1324
 1176DPPI   C2B17272  11.570  12.756   7.627 -0.2027  0.0781  0.2854
 1176DPPI   C3B17273  11.612  12.789   7.998 -0.3308  0.1074 -0.0065
 1176DPPI   C4B17274  11.680  12.799   8.408  0.1286  0.0366  0.0666
 1177DPPI    C117275  14.215   4.936   5.899  0.0554 -0.3744 -0.0815
 1177DPPI    C217276  14.115   5.164   5.586  0.0603 -0.0674  0.1358
 1177DPPI    C317277  13.981   4.788   5.610 -0.3100  0.0496 -0.0141
 1177DPPI   PO417278  14.266   5.159   6.077 -0.0294  0.0349 -0.3914
 1177DPPI   GL117279  14.172   5.218   6.527  0.0520 -0.0401  0.1829
 1177DPPI   GL217280  14.200   5.543   6.536 -0.1346  0.0255  0.0458
 1177DPPI   C1A17281  14.174   5.068   6.906  0.0239  0.2503  0.1559
 1177DPPI   C2A17282  14.231   5.111   7.284 -0.2446  0.2061  0.1144
 1177DPPI   C3A17283  14.277   5.034   7.739  0.1467 -0.1699  0.1494
 1177DPPI   C4A17284  14.273   5.049   8.182  0.0681  0.0384 -0.0397
 1177DPPI   C1B17285  14.255   5.541   6.954  0.0218 -0.1154 -0.0760
 1177DPPI   C2B17286  14.290   5.568   7.460  0.0933  0.1508 -0.0101
 1177DPPI   C3B17287  14.393   5.575   7.944 -0.0907  0.1065 -0.1289
 1177DPPI   C4B17288  14.416   5.489   8.374 -0.2439  0.1800 -0.1244
 1178DPPI    C117289   1.038  14.312   5.932  0.1130  0.0075  0.0657
 1178DPPI    C217290   0.912  14.682   5.845  0.0328 -0.0276  0.0311
 1178DPPI    C317291   0.819  14.377   5.603 -0.1420 -0.1169  0.2076
 1178DPPI   PO417292   1.300  14.394   6.071  0.0006 -0.0456  0.0576
 1178DPPI   GL117293   1.380  14.491   6.463 -0.1415 -0.0482  0.2432
 1178DPPI   GL217294   1.481  14.310   6.662  0.1826 -0.3433 -0.0293
 1178DPPI   C1A17295   1.112  14.693   6.800  0.1308 -0.1163 -0.0980
 1178DPPI   C2A17296   1.115  14.625   7.252  0.0791  0.2929  0.2035
 1178DPPI   C3A17297   1.132  14.657   7.619 -0.1651 -0.0163  0.0765
 1178DPPI   C4A17298   1.104  14.582   7.945 -0.1431 -0.0106  0.0592
 1178DPPI   C1B17299   1.521  14.382   7.133 -0.2211 -0.1145 -0.1928
 1178DPPI   C2B17300   1.524  14.327   7.608  0.1212  0.2540 -0.1028
 1178DPPI   C3B17301   1.516  14.310   8.065  0.0882 -0.2768 -0.0304
 1178DPPI   C4B17302   1.583  14.331   8.407 -0.3170 -0.3853 -0.0940
 1179DPPI    C117303   3.075   0.081   6.114  0.1767 -0.1371  0.0941
 1179DPPI    C217304   3.378   0.280   6.282  0.0789 -0.1256  0.2588
 1179DPPI    C317305   3.403   0.165   5.900  0.2619 -0.0652  0.2512
 1179DPPI   PO417306   2.871   0.073   6.354  0.1370 -0.1527  0.0029
 1179DPPI   GL117307   2.765   0.319   6.587 -0.0608 -0.1011  0.0309
 1179DPPI   GL217308   2.998   0.271   6.790  0.1941 -0.0642 -0.1271
 1179DPPI   C1A17309   2.462   0.401   6.975 -0.2147  0.3653 -0.1321
 1179DPPI   C2A17310   2.463   0.364   7.435 -0.0813 -0.1890 -0.1233
 1179DPPI   C3A17311   2.403   0.295   7.885 -0.1569 -0.0438  0.0781
 1179DPPI   C4A17312   2.376   0.418   8.294 -0.0407 -0.0877 -0.2245
 1179DPPI   C1B17313   2.921   0.306   7.203  0.1528  0.1089 -0.0245
 1179DPPI   C2B17314   2.904   0.356   7.693 -0.1214  0.2188  0.0681
 1179DPPI   C3B17315   2.806   0.281   8.121  0.2360  0.1459  0.1778
 1179DPPI   C4B17316   2.885   0.196   8.549  0.2809 -0.0206  0.4581
 1180DPPI    C117317   2.506  13.037   6.271 -0.2096  0.0274 -0.0904
 1180DPPI    C217318   2.439  12.737   6.016  0.1878 -0.1037 -0.0474
 1180DPPI    C317319   2.806  12.891   6.051 -0.0199  0.4219 -0.1014
 1180DPPI   PO417320   2.403  12.930   6.483 -0.0517  0.2548  0.0022
 1180DPPI   GL117321   2.029  13.189   6.613 -0.2533  0.1641 -0.0277
 1180DPPI   GL217322   2.054  12.982   6.874 -0.0314 -0.0716  0.0517
 1180DPPI   C1A17323   1.747  13.363   6.893 -0.0022  0.3390  0.0710
 1180DPPI   C2A17324   1.715  13.472   7.311 -0.0767  0.0204 -0.0871
 1180DPPI   C3A17325   1.798  13.377   7.755 -0.2447  0.1536  0.0184
 1180DPPI   C4A17326   1.793  13.408   8.173 -0.2461 -0.0729 -0.0320
 1180DPPI   C1B17327   1.829  12.959   7.208  0.1427  0.3002  0.3535
 1180DPPI   C2B17328   1.729  12.879   7.591  0.2916 -0.0443 -0.1330
 1180DPPI   C3B17329   1.821  12.921   8.072  0.1007 -0.1843  0.0558
 1180DPPI   C4B17330   1.844  13.111   8.528  0.2989  0.0225 -0.2199
 1181DPPI    C117331  15.556  10.594   5.804 -0.2858  0.0361 -0.1509
 1181DPPI    C217332  15.566  10.301   5.532 -0.0294  0.0162 -0.1229
 1181DPPI    C317333  15.765  10.641   5.466  0.1549 -0.0451  0.1023
 1181DPPI   PO417334  15.619  10.434   6.075 -0.0131 -0.1152 -0.1751
 1181DPPI   GL117335  15.553  10.440   6.552 -0.0160 -0.1063 -0.0172
 1181DPPI   GL217336  15.690  10.719   6.557 -0.2805 -0.1287 -0.2336
 1181DPPI   C1A17337  15.609  10.321   6.925 -0.0495 -0.1026  0.0629
 1181DPPI   C2A17338  15.502  10.305   7.463  0.4223  0.0550 -0.2050
 1181DPPI   C3A17339  15.416  10.425   7.949 -0.1442 -0.0395 -0.1894
 1181DPPI   C4A17340  15.640  10.383   8.313  0.0734  0.0253  0.2633
 1181DPPI   C1B17341  15.819  10.716   7.067 -0.0639 -0.1719 -0.2175
 1181DPPI   C2B17342  15.928  10.529   7.447  0.0939 -0.0126  0.2121
 1181DPPI   C3B17343  15.951  10.628   7.956  0.0160  0.0981  0.2245
 1181DPPI   C4B17344  15.975  10.745   8.346 -0.0175 -0.0074  0.0728
 1182DPPI    C117345  15.725   1.991   6.123  0.1387 -0.0989 -0.0303
 1182DPPI    C217346  15.832   2.007   5.738 -0.0727 -0.1630 -0.0932
 1182DPPI    C317347  15.643   2.317   5.905  0.2003 -0.0518  0.0164
 1182DPPI   PO417348  15.890   1.935   6.336 -0.4387 -0.1598 -0.1771
 1182DPPI   GL117349  16.203   2.126   6.552 -0.1519  0.0007 -0.2062
 1182DPPI   GL217350  16.489   2.115   6.657 -0.0019 -0.0828  0.2976
 1182DPPI   C1A17351  16.142   1.942   7.023  0.2145  0.2326 -0.0594
 1182DPPI   C2A17352  16.256   1.877   7.507  0.1975  0.0349  0.3628
 1182DPPI   C3A17353  16.214   1.867   7.954  0.1268 -0.1187 -0.3337
 1182DPPI   C4A17354  16.322   1.736   8.458  0.2424  0.1792 -0.2091
 1182DPPI   C1B17355  16.542   2.217   7.144  0.4981  0.1743  0.0920
 1182DPPI   C2B17356  16.470   2.279   7.509  0.0687  0.0421 -0.0061
 1182DPPI   C3B17357  16.632   2.112   7.798 -0.3000 -0.2769 -0.0234
 1182DPPI   C4B17358  16.786   2.040   8.173  0.0389  0.0787 -0.0904
 1183DPPI    C117359   6.369   0.850   6.448  0.0790 -0.2404  0.0703
 1183DPPI    C217360   6.553   0.913   6.099 -0.2354  0.0109 -0.0551
 1183DPPI    C317361   6.396   1.220   6.300 -0.1989 -0.1536  0.2302
 1183DPPI   PO417362   6.542   0.670   6.572 -0.0942  0.0192 -0.1631
 1183DPPI   GL117363   6.403   0.379   6.833  0.2478 -0.0165 -0.2800
 1183DPPI   GL217364   6.109   0.680   6.893  0.0763  0.1890  0.0206
 1183DPPI   C1A17365   6.174   0.316   7.234 -0.1588 -0.0780  0.3535
 1183DPPI   C2A17366   6.081   0.309   7.585 -0.1021  0.0375 -0.0166
 1183DPPI   C3A17367   6.037   0.356   8.097  0.1085  0.3528 -0.1763
 1183DPPI   C4A17368   6.318   0.293   8.464  0.2491  0.1035  0.1924
 1183DPPI   C1B17369   5.937   0.782   7.329  0.1373  0.1371  0.3653
 1183DPPI   C2B17370   5.782   0.751   7.756 -0.0942  0.0768  0.2212
 1183DPPI   C3B17371   5.777   0.920   8.178 -0.0735 -0.0568  0.2071
 1183DPPI   C4B17372   5.719   1.090   8.602 -0.1745 -0.0351  0.1066
 1184DPPI    C117373   0.134   0.530   5.986 -0.2191  0.0671 -0.0646
 1184DPPI    C217374   0.179   0.897   5.832  0.0597  0.0660  0.0084
 1184DPPI    C317375   0.333   0.580   5.643 -0.2458 -0.0250 -0.0936
 1184DPPI   PO417376   0.244   0.569   6.387  0.4189 -0.0298  0.4432
 1184DPPI   GL117377   0.035   0.473   6.862  0.3762 -0.0666 -0.1194
 1184DPPI   GL217378  -0.020   0.251   6.862 -0.2028 -0.4668 -0.1764
 1184DPPI   C1A17379   0.073   0.371   7.387  0.0919  0.1334 -0.0731
 1184DPPI   C2A17380   0.106   0.347   7.890  0.0127 -0.2070  0.0690
 1184DPPI   C3A17381   0.042   0.429   8.332  0.1622 -0.2017  0.0020
 1184DPPI   C4A17382  -0.061   0.255   8.811  0.0750 -0.3654 -0.3184
 1184DPPI   C1B17383  -0.385   0.287   7.216 -0.1647  0.0495 -0.0853
 1184DPPI   C2B17384  -0.368   0.214   7.589  0.0118 -0.0936 -0.0589
 1184DPPI   C3B17385  -0.398   0.195   8.043  0.1019 -0.0479  0.0701
 1184DPPI   C4B17386  -0.418   0.126   8.441 -0.0347 -0.2569 -0.1886
 1185DPPI    C117387   9.453   3.906   6.457 -0.0730 -0.1641  0.1413
 1185DPPI    C217388   9.244   3.875   6.118  0.0628  0.0915  0.0321
 1185DPPI    C317389   9.444   3.559   6.258  0.3100  0.0825 -0.3273
 1185DPPI   PO417390   9.379   3.987   6.673 -0.2744  0.2353 -0.0134
 1185DPPI   GL117391   9.151   3.884   6.974 -0.4474 -0.1824 -0.0877
 1185DPPI   GL217392   9.247   3.570   7.151 -0.3162 -0.0698 -0.0376
 1185DPPI   C1A17393   9.050   4.011   7.364 -0.0987 -0.0256 -0.1380
 1185DPPI   C2A17394   9.054   4.098   7.793 -0.3110  0.2473 -0.3210
 1185DPPI   C3A17395   9.051   4.126   8.266 -0.0702 -0.2354  0.2263
 1185DPPI   C4A17396   9.290   4.356   8.573  0.0431  0.1211 -0.2202
 1185DPPI   C1B17397   9.400   3.633   7.582  0.0617  0.0459 -0.2756
 1185DPPI   C2B17398   9.387   3.584   8.097 -0.1194 -0.0358  0.4226
 1185DPPI   C3B17399   9.584   3.519   8.500  0.0715 -0.3181 -0.2479
 1185DPPI   C4B17400   9.623   3.630   8.926 -0.1345 -0.1924  0.1813
 1186DPPI    C117401  16.633  16.756   6.023  0.1330 -0.0169  0.0453
 1186DPPI    C217402  16.405  17.004   5.808  0.1643  0.1202  0.1687
 1186DPPI    C317403  16.796  16.976   5.732  0.1071 -0.1233 -0.0507
 1186DPPI   PO417404  16.624  16.702   6.272  0.1702  0.0028  0.1229
 1186DPPI   GL117405  16.657  16.877   6.633  0.1539  0.1435 -0.2700
 1186DPPI   GL217406  16.939  16.931   6.556  0.1436  0.0091 -0.1582
 1186DPPI   C1A17407  16.752  17.035   7.102  0.2406 -0.0100 -0.0978
 1186DPPI   C2A17408  16.769  16.915   7.518  0.1077 -0.0773  0.1787
 1186DPPI   C3A17409  16.767  16.950   8.019 -0.0570 -0.0833 -0.2035
 1186DPPI   C4A17410  16.750  16.806   8.377 -0.2755  0.0146  0.1166
 1186DPPI   C1B17411  17.038  16.593   6.922  0.1119  0.0329  0.1952
 1186DPPI   C2B17412  17.169  16.632   7.309 -0.2890  0.1273 -0.1173
 1186DPPI   C3B17413  17.124  16.655   7.777 -0.2204  0.1816  0.0266
 1186DPPI   C4B17414  17.119  16.572   8.184 -0.1427 -0.2223 -0.2055
 1187PYPI    C117415   0.298  17.078   6.006 -0.2302  0.1204 -0.0122
 1187PYPI    C217416  -0.022  17.264   5.855 -0.3025  0.0098  0.0034
 1187PYPI    C317417   0.344  17.360   5.727 -0.3604 -0.0593 -0.2186
 1187PYPI   PO417418   0.300  16.897   6.239  0.3899  0.3032  0.0413
 1187PYPI   GL117419   0.405  16.842   6.686 -0.3635 -0.0159 -0.1751
 1187PYPI   GL217420   0.138  17.005   6.808  0.2854 -0.0305  0.0336
 1187PYPI   C1A17421   0.418  16.799   7.130  0.1392  0.1404 -0.0015
 1187PYPI   C2A17422   0.352  16.809   7.665  0.1221  0.0467  0.0975
 1187PYPI   D3A17423   0.325  16.715   8.025  0.0499  0.2503 -0.0840
 1187PYPI   C4A17424   0.413  16.739   8.399  0.1123  0.3323  0.2135
 1187PYPI   C1B17425  -0.020  17.162   7.220 -0.1216 -0.2426 -0.2027
 1187PYPI   C2B17426  -0.000  17.153   7.641 -0.1985 -0.1315  0.5313
 1187PYPI   C3B17427   0.005  17.103   8.110 -0.0632  0.2620 -0.2182
 1187PYPI   C4B17428  -0.049  17.082   8.585 -0.1971  0.0946  0.1072
 1188PYPI    C117429   9.772   3.187   6.443 -0.1496 -0.1232  0.1210
 1188PYPI    C217430   9.827   2.840   6.252  0.3386  0.1026 -0.1668
 1188PYPI    C317431  10.092   2.963   6.525  0.0620  0.1591  0.0813
 1188PYPI   PO417432   9.547   3.148   6.572  0.1427  0.1132 -0.2064
 1188PYPI   GL117433   9.409   3.024   7.002 -0.1053 -0.0237 -0.0717
 1188PYPI   GL217434   9.268   2.756   6.982 -0.0386 -0.2650  0.1693
 1188PYPI   C1A17435   9.576   3.185   7.363 -0.0184  0.1907 -0.1716
 1188PYPI   C2A17436   9.640   3.205   7.731 -0.2410 -0.2226  0.1713
 1188PYPI   D3A17437   9.662   3.180   8.180  0.1539  0.0381  0.0147
 1188PYPI   C4A17438   9.953   3.151   8.435  0.2516 -0.2474 -0.1523
 1188PYPI   C1B17439   9.408   2.703   7.448  0.0863  0.0543  0.0699
 1188PYPI   C2B17440   9.348   2.814   7.876  0.1851  0.0021 -0.0640
 1188PYPI   C3B17441   9.380   2.797   8.299 -0.2006  0.1250 -0.1743
 1188PYPI   C4B17442   9.461   3.006   8.636  0.1194  0.0619 -0.0522
 1189PYPI    C117443  16.187  10.717   5.687  0.1458  0.1754  0.0662
 1189PYPI    C217444  16.517  10.922   5.592  0.2850  0.0086  0.1835
 1189PYPI    C317445  16.302  10.745   5.305  0.0754  0.4446  0.0630
 1189PYPI   PO417446  16.009  10.860   5.913  0.1641 -0.0796 -0.1874
 1189PYPI   GL117447  16.192  11.012   6.368  0.1546  0.3185  0.0430
 1189PYPI   GL217448  16.512  10.881   6.485  0.1311  0.0375 -0.1122
 1189PYPI   C1A17449  16.037  11.050   6.818 -0.1345  0.3535  0.3975
 1189PYPI   C2A17450  16.117  11.103   7.273  0.1868  0.2356  0.4201
 1189PYPI   D3A17451  16.004  11.002   7.690  0.1213 -0.3233  0.1517
 1189PYPI   C4A17452  15.918  11.198   8.133  0.1542  0.0045  0.2261
 1189PYPI   C1B17453  16.460  10.853   6.949  0.2088  0.0500 -0.0808
 1189PYPI   C2B17454  16.388  10.755   7.430 -0.0449 -0.1504  0.1779
 1189PYPI   C3B17455  16.455  10.640   7.893  0.1443  0.0078  0.0566
 1189PYPI   C4B17456  16.347  10.968   8.132 -0.0965 -0.4766 -0.3117
 1190PYPI    C117457  13.220  12.064   5.776 -0.1288 -0.0252 -0.1125
 1190PYPI    C217458  13.170  12.351   5.502 -0.1422 -0.0326 -0.1178
 1190PYPI    C317459  12.936  12.026   5.497 -0.0148 -0.1238 -0.2164
 1190PYPI   PO417460  13.292  12.195   5.949 -0.0104 -0.1167  0.2329
 1190PYPI   GL117461  13.216  12.259   6.314  0.0286 -0.0773 -0.1468
 1190PYPI   GL217462  13.183  12.573   6.366  0.0417 -0.0768 -0.1127
 1190PYPI   C1A17463  13.259  12.056   6.757  0.0136 -0.0998  0.1862
 1190PYPI   C2A17464  13.296  12.073   7.170 -0.0527  0.0694  0.1587
 1190PYPI   D3A17465  13.317  12.092   7.636  0.3411 -0.0684 -0.2710
 1190PYPI   C4A17466  13.382  11.929   8.087  0.1118  0.2261  0.0909
 1190PYPI   C1B17467  13.245  12.508   6.816 -0.0712 -0.1656 -0.2564
 1190PYPI   C2B17468  13.383  12.594   7.209  0.2927  0.0200  0.1949
 1190PYPI   C3B17469  13.471  12.591   7.594  0.1737 -0.3433 -0.0373
 1190PYPI   C4B17470  13.410  12.434   7.989  0.0451  0.0414  0.1656
 1191PYPI    C117471  12.236  11.468   5.953 -0.0458  0.1639 -0.0612
 1191PYPI    C217472  12.467  11.793   5.913 -0.1590  0.2639  0.0829
 1191PYPI    C317473  12.207  11.695   5.625  0.1653  0.0654 -0.1503
 1191PYPI   PO417474  12.329  11.491   6.289 -0.2095  0.1223 -0.0901
 1191PYPI   GL117475  12.316  11.474   6.711  0.1055  0.2499  0.0914
 1191PYPI   GL217476  12.240  11.114   6.633 -0.0540  0.0896 -0.0533
 1191PYPI   C1A17477  12.384  11.597   7.132 -0.1244  0.0310  0.0292
 1191PYPI   C2A17478  12.447  11.602   7.465  0.0743 -0.0594 -0.2964
 1191PYPI   D3A17479  12.371  11.631   7.887  0.1891 -0.0456 -0.1920
 1191PYPI   C4A17480  12.469  11.864   8.260 -0.4220 -0.0032  0.1146
 1191PYPI   C1B17481  12.281  11.085   7.116 -0.1842  0.2046  0.2193
 1191PYPI   C2B17482  12.327  11.093   7.567 -0.2592 -0.2765  0.1791
 1191PYPI   C3B17483  12.305  11.071   8.058 -0.2867  0.1371 -0.2123
 1191PYPI   C4B17484  12.392  11.198   8.545  0.1411  0.0591 -0.0031
 1192PYPI    C117485   0.303   2.659   5.748  0.2046 -0.1101  0.0527
 1192PYPI    C217486   0.489   2.613   5.397  0.0132  0.0800 -0.0764
 1192PYPI    C317487   0.153   2.828   5.418 -0.1444 -0.1839  0.1704
 1192PYPI   PO417488   0.556   2.738   6.000  0.0010  0.2361 -0.1538
 1192PYPI   GL117489   0.650   2.781   6.382 -0.0944 -0.4091 -0.3914
 1192PYPI   GL217490   0.925   2.656   6.635  0.0331 -0.0982 -0.0183
 1192PYPI   C1A17491   0.441   2.742   6.729 -0.0982  0.2665  0.3427
 1192PYPI   C2A17492   0.651   2.689   7.115 -0.2388  0.1637 -0.0146
 1192PYPI   D3A17493   0.900   2.820   7.471  0.1199 -0.3457  0.0571
 1192PYPI   C4A17494   0.857   2.703   7.888 -0.1730  0.0954  0.0387
 1192PYPI   C1B17495   1.230   2.494   7.046  0.1510  0.4058  0.0738
 1192PYPI   C2B17496   1.236   2.367   7.491  0.0500  0.0841 -0.1821
 1192PYPI   C3B17497   1.193   2.327   7.951 -0.3077  0.3016 -0.0047
 1192PYPI   C4B17498   1.084   2.157   8.288  0.0074 -0.2373  0.0564
 1193PYPI    C117499  14.759   2.487   6.172 -0.0453  0.0109 -0.2911
 1193PYPI    C217500  14.737   2.109   6.043  0.1069 -0.0424 -0.1635
 1193PYPI    C317501  15.031   2.347   5.914  0.1535 -0.0413 -0.0565
 1193PYPI   PO417502  14.765   2.432   6.458  0.1572 -0.2058  0.2734
 1193PYPI   GL117503  14.761   2.648   6.785  0.2037  0.2317 -0.1991
 1193PYPI   GL217504  14.490   2.590   6.925  0.0460 -0.0812  0.1483
 1193PYPI   C1A17505  14.834   2.820   7.244 -0.1340  0.1631  0.2145
 1193PYPI   C2A17506  14.759   2.868   7.614  0.0143  0.0517  0.0084
 1193PYPI   D3A17507  14.931   2.781   8.070  0.3782 -0.0116  0.3945
 1193PYPI   C4A17508  14.926   2.863   8.531  0.2481 -0.0976  0.4207
 1193PYPI   C1B17509  14.356   2.653   7.430  0.2788  0.2942  0.2080
 1193PYPI   C2B17510  14.369   2.565   7.836 -0.2034 -0.2014 -0.0016
 1193PYPI   C3B17511  14.435   2.591   8.236  0.0544 -0.0198 -0.0905
 1193PYPI   C4B17512  14.513   2.601   8.679  0.3725  0.4238 -0.0979
 1194PYPI    C117513  10.392   9.580   6.090 -0.2015 -0.0761 -0.0141
 1194PYPI    C217514  10.198   9.847   5.863 -0.3636 -0.1228  0.0680
 1194PYPI    C317515  10.120   9.456   5.823 -0.3606 -0.1344  0.1728
 1194PYPI   PO417516  10.422   9.740   6.311  0.1530  0.1379 -0.0293
 1194PYPI   GL117517  10.256   9.987   6.509  0.4373 -0.0365  0.1284
 1194PYPI   GL217518  10.537  10.060   6.703  0.1579  0.2356 -0.4855
 1194PYPI   C1A17519  10.155   9.880   6.943  0.2137 -0.1704  0.0842
 1194PYPI   C2A17520  10.186   9.823   7.394 -0.2188 -0.2702  0.2744
 1194PYPI   D3A17521  10.269   9.848   7.771  0.0517  0.2819  0.0315
 1194PYPI   C4A17522  10.285   9.721   8.152 -0.2234  0.3525  0.2433
 1194PYPI   C1B17523  10.742  10.059   7.075  0.0072  0.0251  0.5249
 1194PYPI   C2B17524  10.678   9.978   7.522 -0.0899 -0.1419 -0.1138
 1194PYPI   C3B17525  10.862   9.953   7.907 -0.1999 -0.3214 -0.1279
 1194PYPI   C4B17526  10.713   9.863   8.296 -0.0020 -0.1703 -0.0013
 1195PYPI    C117527   5.185  10.868   6.207  0.0799 -0.1657 -0.0834
 1195PYPI    C217528   5.513  10.831   5.981  0.1251 -0.1580 -0.0194
 1195PYPI    C317529   5.224  10.556   5.960  0.0749 -0.0944 -0.1751
 1195PYPI   PO417530   5.085  11.037   6.440  0.1802  0.0687  0.2567
 1195PYPI   GL117531   4.980  11.218   6.980  0.1594 -0.2102  0.2920
 1195PYPI   GL217532   5.183  11.065   7.154  0.0790 -0.2652 -0.0459
 1195PYPI   C1A17533   4.660  11.345   7.291 -0.1627  0.1064 -0.0187
 1195PYPI   C2A17534   4.425  11.626   7.464 -0.1601  0.1096  0.1821
 1195PYPI   D3A17535   4.514  11.728   7.797  0.1386 -0.1926 -0.2372
 1195PYPI   C4A17536   4.303  11.682   8.178 -0.1088  0.2520 -0.0982
 1195PYPI   C1B17537   5.353  11.282   7.378 -0.1436 -0.2263  0.1366
 1195PYPI   C2B17538   5.298  11.313   7.834  0.0851 -0.0878  0.0910
 1195PYPI   C3B17539   5.309  11.345   8.264  0.0019  0.1944 -0.0631
 1195PYPI   C4B17540   5.224  11.233   8.600  0.3081 -0.2604  0.1831
 1196PYPI    C117541   3.466   3.265   6.442 -0.3456  0.0677 -0.0346
 1196PYPI    C217542   3.423   3.516   6.134  0.0792  0.0550 -0.1108
 1196PYPI    C317543   3.567   3.650   6.483 -0.1117  0.0054 -0.0114
 1196PYPI   PO417544   3.197   3.154   6.444 -0.2575  0.1694 -0.0111
 1196PYPI   GL117545   2.840   3.093   6.696  0.1895 -0.1561  0.1284
 1196PYPI   GL217546   2.558   3.095   6.744 -0.0907 -0.0829  0.0701
 1196PYPI   C1A17547   2.811   3.391   7.079  0.2168  0.0178 -0.3651
 1196PYPI   C2A17548   2.915   3.564   7.448  0.2263 -0.0375  0.0525
 1196PYPI   D3A17549   3.101   3.636   7.885  0.1576 -0.0745 -0.2072
 1196PYPI   C4A17550   2.879   3.567   8.295 -0.0630 -0.1162 -0.0429
 1196PYPI   C1B17551   2.560   2.992   7.212 -0.0029 -0.1140 -0.0468
 1196PYPI   C2B17552   2.792   3.143   7.521  0.1223 -0.0467 -0.3801
 1196PYPI   C3B17553   2.858   3.188   7.963  0.0692 -0.0404 -0.3499
 1196PYPI   C4B17554   2.843   2.881   8.312 -0.0498  0.1373 -0.0726
 1197PYPI    C117555  16.516  10.384   5.591  0.0919  0.0297  0.2343
 1197PYPI    C217556  16.851  10.197   5.476  0.2801  0.4241  0.1219
 1197PYPI    C317557  16.570  10.288   5.206  0.1482  0.2286  0.1912
 1197PYPI   PO417558  16.443  10.265   5.901  0.1256 -0.1654 -0.2322
 1197PYPI   GL117559  16.449  10.066   6.238 -0.3076  0.0029  0.1479
 1197PYPI   GL217560  16.642  10.285   6.380  0.1946 -0.0732  0.0933
 1197PYPI   C1A17561  16.502   9.865   6.609 -0.3114 -0.3601  0.0154
 1197PYPI   C2A17562  16.313   9.813   6.977  0.1273  0.0135  0.5090
 1197PYPI   D3A17563  16.347   9.696   7.406 -0.1322 -0.1909  0.1575
 1197PYPI   C4A17564  16.375   9.830   7.870 -0.2765 -0.0858  0.0672
 1197PYPI   C1B17565  16.728  10.521   6.781 -0.0057  0.1959 -0.0114
 1197PYPI   C2B17566  16.760  10.439   7.213  0.1209 -0.3331  0.0016
 1197PYPI   C3B17567  16.915  10.387   7.620 -0.0380 -0.0647  0.1854
 1197PYPI   C4B17568  16.744  10.294   8.102  0.1865  0.0011  0.0461
 1198PYPI    C117569   1.997  15.894   6.050 -0.1182  0.1657 -0.0069
 1198PYPI    C217570   2.147  16.215   5.863  0.0442  0.1141  0.0333
 1198PYPI    C317571   2.099  15.871   5.664  0.0559  0.1075  0.0419
 1198PYPI   PO417572   2.041  15.940   6.328 -0.1718 -0.0621  0.0581
 1198PYPI   GL117573   1.886  15.810   6.653 -0.0895 -0.0710  0.0555
 1198PYPI   GL217574   2.198  15.686   6.705  0.1354  0.0970  0.1184
 1198PYPI   C1A17575   1.784  15.897   7.028 -0.0784 -0.0461  0.3880
 1198PYPI   C2A17576   1.768  15.919   7.423  0.0023 -0.0009 -0.0557
 1198PYPI   D3A17577   1.792  15.934   7.871 -0.1155  0.2341  0.2945
 1198PYPI   C4A17578   1.697  15.755   8.295  0.0295  0.0943  0.1020
 1198PYPI   C1B17579   2.187  15.636   7.059  0.0170 -0.0247 -0.0119
 1198PYPI   C2B17580   2.138  15.593   7.478  0.0269 -0.0863 -0.1735
 1198PYPI   C3B17581   2.143  15.525   7.908  0.1755 -0.1211  0.1951
 1198PYPI   C4B17582   2.102  15.504   8.330  0.0802  0.0111 -0.4953
 1199PYPI    C117583  14.393  16.311   6.289  0.1491  0.3972  0.0459
 1199PYPI    C217584  14.231  16.245   5.929  0.2240 -0.1585  0.1060
 1199PYPI    C317585  14.520  16.519   5.971  0.1434 -0.0157 -0.2338
 1199PYPI   PO417586  14.234  16.349   6.421  0.0932 -0.0928 -0.1228
 1199PYPI   GL117587  13.940  16.237   6.714 -0.0464 -0.1586 -0.0249
 1199PYPI   GL217588  13.779  16.469   6.571 -0.0286 -0.1117 -0.0390
 1199PYPI   C1A17589  13.983  16.214   7.138  0.1533 -0.1259  0.2382
 1199PYPI   C2A17590  13.955  16.171   7.572 -0.3773 -0.1177  0.2352
 1199PYPI   D3A17591  13.822  16.141   7.995  0.0014  0.2129  0.1235
 1199PYPI   C4A17592  13.901  16.078   8.415  0.2513 -0.0435  0.2798
 1199PYPI   C1B17593  13.495  16.597   6.982 -0.0020 -0.0298 -0.2023
 1199PYPI   C2B17594  13.537  16.442   7.395  0.1408  0.1132 -0.0619
 1199PYPI   C3B17595  13.498  16.487   7.801  0.2653 -0.0577 -0.1515
 1199PYPI   C4B17596  13.440  16.499   8.118  0.0642  0.1893  0.1636
 1200PYPI    C117597   6.236  13.765   6.698  0.0899 -0.2671 -0.1824
 1200PYPI    C217598   6.013  13.930   6.410  0.0556 -0.1329 -0.0803
 1200PYPI    C317599   6.400  14.026   6.443  0.0020  0.0388  0.0665
 1200PYPI   PO417600   6.049  13.473   6.666 -0.0472 -0.1159 -0.1182
 1200PYPI   GL117601   6.041  13.225   7.002 -0.2078  0.0647 -0.5120
 1200PYPI   GL217602   5.815  13.073   7.075  0.1644 -0.0781  0.0593
 1200PYPI   C1A17603   6.373  13.107   7.476  0.0898 -0.0824  0.2070
 1200PYPI   C2A17604   6.410  13.059   7.905  0.0892 -0.1674  0.0734
 1200PYPI   D3A17605   6.206  13.059   8.223  0.1125 -0.0499 -0.1924
 1200PYPI   C4A17606   6.109  13.077   8.593  0.1055 -0.2784  0.0471
 1200PYPI   C1B17607   5.771  13.093   7.440 -0.5206 -0.0494  0.1144
 1200PYPI   C2B17608   5.863  13.005   7.797 -0.2890 -0.3519 -0.1980
 1200PYPI   C3B17609   5.752  13.088   8.252  0.0537 -0.0354 -0.0671
 1200PYPI   C4B17610   5.703  12.866   8.775  0.2200  0.2524  0.0314
 1201PYPI    C117611  14.681  11.735   6.109  0.1402  0.0622 -0.0866
 1201PYPI    C217612  15.037  11.690   5.933  0.0537 -0.2421 -0.1895
 1201PYPI    C317613  14.717  11.788   5.714  0.0744  0.0471 -0.0946
 1201PYPI   PO417614  14.512  11.575   6.183  0.0699 -0.1323  0.1357
 1201PYPI   GL117615  14.502  11.394   6.587 -0.2830 -0.0372  0.4046
 1201PYPI   GL217616  14.517  11.127   6.785 -0.2384  0.0505  0.0896
 1201PYPI   C1A17617  14.637  11.530   7.024  0.0477 -0.0632  0.1029
 1201PYPI   C2A17618  14.516  11.584   7.452 -0.0126 -0.1891 -0.1570
 1201PYPI   D3A17619  14.708  11.538   7.851  0.0002  0.4194 -0.0350
 1201PYPI   C4A17620  14.816  11.813   8.238 -0.3252  0.0021  0.1625
 1201PYPI   C1B17621  14.538  11.075   7.248  0.0429 -0.2349 -0.0672
 1201PYPI   C2B17622  14.593  11.097   7.659  0.1749 -0.0996 -0.0823
 1201PYPI   C3B17623  14.620  10.946   8.092 -0.0357  0.0443 -0.0245
 1201PYPI   C4B17624  14.658  10.857   8.574 -0.0907 -0.3907 -0.2297
 1202PYPI    C117625   5.385  15.331   6.322 -0.0586  0.1841  0.0519
 1202PYPI    C217626   5.084  15.301   6.060 -0.1027  0.1360  0.1079
 1202PYPI    C317627   5.433  15.459   5.946  0.1148 -0.5196 -0.1807
 1202PYPI   PO417628   5.246  15.087   6.451 -0.0623 -0.0454  0.1728
 1202PYPI   GL117629   4.891  14.967   6.766  0.0254  0.0159  0.2835
 1202PYPI   GL217630   5.167  14.852   6.860 -0.1396 -0.3494 -0.2161
 1202PYPI   C1A17631   4.879  15.298   7.082  0.2405  0.1426  0.0235
 1202PYPI   C2A17632   4.835  15.384   7.487 -0.1867 -0.0175 -0.2602
 1202PYPI   D3A17633   5.096  15.294   7.775 -0.0415  0.0957  0.0692
 1202PYPI   C4A17634   5.465  15.324   7.992  0.0261  0.0460 -0.1884
 1202PYPI   C1B17635   5.067  14.915   7.355  0.0633  0.1094 -0.1188
 1202PYPI   C2B17636   5.239  14.852   7.760 -0.0950 -0.1698  0.0910
 1202PYPI   C3B17637   5.280  14.816   8.131 -0.3076  0.0611 -0.2577
 1202PYPI   C4B17638   5.363  15.089   8.453  0.0317 -0.1972 -0.1912
 1203PYPI    C117639   1.067  16.711   6.043  0.1454 -0.2157 -0.2160
 1203PYPI    C217640   0.774  16.570   6.276  0.1155 -0.2029 -0.2459
 1203PYPI    C317641   0.688  16.725   5.917  0.1102  0.1900 -0.0804
 1203PYPI   PO417642   1.289  16.726   6.291  0.0311 -0.1563  0.1960
 1203PYPI   GL117643   1.203  16.570   6.661 -0.1243  0.3679  0.1393
 1203PYPI   GL217644   0.904  16.729   6.784 -0.2387 -0.1537 -0.0279
 1203PYPI   C1A17645   1.374  16.734   7.075  0.0331 -0.3669  0.2151
 1203PYPI   C2A17646   1.450  16.743   7.497  0.1615 -0.0686 -0.0568
 1203PYPI   D3A17647   1.229  16.705   7.868 -0.2244 -0.0263 -0.1284
 1203PYPI   C4A17648   1.356  16.607   8.334  0.4215 -0.0438  0.1233
 1203PYPI   C1B17649   0.799  16.510   7.181 -0.0836  0.2009 -0.1940
 1203PYPI   C2B17650   0.762  16.474   7.668  0.1100  0.0380  0.0643
 1203PYPI   C3B17651   0.858  16.384   8.075 -0.2917  0.0423 -0.0386
 1203PYPI   C4B17652   0.859  16.383   8.553 -0.0509  0.1469 -0.0470
 1204PYPI    C117653   2.481   8.087   6.445  0.0077 -0.1134 -0.2261
 1204PYPI    C217654   2.100   7.987   6.375 -0.0899  0.1649 -0.1059
 1204PYPI    C317655   2.305   8.199   6.104  0.1013 -0.3014 -0.3383
 1204PYPI   PO417656   2.580   7.836   6.462 -0.5367  0.2708 -0.1304
 1204PYPI   GL117657   2.499   7.687   6.865 -0.3315  0.0516 -0.1112
 1204PYPI   GL217658   2.457   7.410   6.945  0.0506  0.2215 -0.1662
 1204PYPI   C1A17659   2.467   7.693   7.343  0.0640 -0.4609  0.2403
 1204PYPI   C2A17660   2.428   7.827   7.852 -0.0465  0.0687 -0.1024
 1204PYPI   D3A17661   2.243   7.692   8.292  0.2305 -0.2110  0.0141
 1204PYPI   C4A17662   2.492   7.741   8.626 -0.0921 -0.0242  0.0227
 1204PYPI   C1B17663   2.256   7.268   7.327 -0.0208 -0.1252 -0.1982
 1204PYPI   C2B17664   2.309   7.320   7.811  0.0217 -0.0221 -0.4356
 1204PYPI   C3B17665   2.226   7.197   8.269  0.1071  0.0868  0.1325
 1204PYPI   C4B17666   2.319   7.299   8.712 -0.1046  0.0550  0.0685
 1205PYPI    C117667  11.883  15.779   6.111 -0.2592  0.0876 -0.1402
 1205PYPI    C217668  11.769  16.139   5.981 -0.1234  0.0998 -0.2265
 1205PYPI    C317669  11.574  15.812   5.859 -0.2161  0.1398 -0.1862
 1205PYPI   PO417670  11.951  15.827   6.364  0.0644 -0.0699 -0.0699
 1205PYPI   GL117671  11.776  15.986   6.748  0.0063 -0.1575  0.2292
 1205PYPI   GL217672  11.994  16.134   6.810  0.2534  0.0211 -0.1219
 1205PYPI   C1A17673  11.612  15.952   7.044 -0.0612  0.0250  0.2376
 1205PYPI   C2A17674  11.672  15.805   7.427  0.1794  0.3278  0.2166
 1205PYPI   D3A17675  11.551  15.638   7.819  0.0971 -0.0205  0.0291
 1205PYPI   C4A17676  11.642  15.632   8.343 -0.1358  0.1436 -0.0306
 1205PYPI   C1B17677  12.077  16.079   7.258  0.0261 -0.2657  0.0477
 1205PYPI   C2B17678  12.101  16.015   7.598  0.1465 -0.0170  0.0650
 1205PYPI   C3B17679  12.065  15.874   7.979 -0.0382 -0.1034 -0.1819
 1205PYPI   C4B17680  12.084  15.826   8.381  0.2287 -0.1264 -0.2068
 1206PYPI    C117681   2.449   0.923   6.266  0.0684 -0.0910  0.1702
 1206PYPI    C217682   2.771   0.929   6.028 -0.1037 -0.0904 -0.0662
 1206PYPI    C317683   2.458   1.164   5.947 -0.1733 -0.1058  0.1506
 1206PYPI   PO417684   2.557   0.750   6.476 -0.3373 -0.1657 -0.2112
 1206PYPI   GL117685   2.589   0.882   6.832  0.1072 -0.2531 -0.2329
 1206PYPI   GL217686   2.923   0.757   6.861  0.1941 -0.0450  0.2498
 1206PYPI   C1A17687   2.624   0.772   7.275 -0.0681 -0.0112 -0.1161
 1206PYPI   C2A17688   2.491   0.801   7.883  0.0056  0.0621 -0.3176
 1206PYPI   D3A17689   2.670   0.991   8.273 -0.0814  0.2603  0.0567
 1206PYPI   C4A17690   2.660   0.809   8.727 -0.2697  0.1351  0.0530
 1206PYPI   C1B17691   3.005   1.091   7.265  0.0906 -0.1321  0.3335
 1206PYPI   C2B17692   2.745   1.308   7.620 -0.1841 -0.1518 -0.0238
 1206PYPI   C3B17693   2.791   1.396   7.946 -0.0173  0.3229 -0.2089
 1206PYPI   C4B17694   2.853   1.641   8.289 -0.0695 -0.1163 -0.1725
 1207PYPI    C117695   1.870  11.500   5.972  0.1793  0.2919  0.0318
 1207PYPI    C217696   2.074  11.450   5.632  0.0825 -0.0525  0.0211
 1207PYPI    C317697   1.674  11.445   5.628  0.0791  0.0894  0.1196
 1207PYPI   PO417698   2.086  11.684   6.096  0.1385 -0.0571 -0.2401
 1207PYPI   GL117699   1.981  11.903   6.551 -0.0294  0.0295 -0.0078
 1207PYPI   GL217700   2.174  11.982   6.774  0.1814 -0.0177 -0.1683
 1207PYPI   C1A17701   1.797  11.715   6.941 -0.4180 -0.0147 -0.2406
 1207PYPI   C2A17702   1.605  11.938   7.380  0.0868  0.3602  0.0403
 1207PYPI   D3A17703   1.625  11.825   7.770 -0.1658 -0.0593 -0.1299
 1207PYPI   C4A17704   1.744  11.682   8.186 -0.1334  0.0633  0.2660
 1207PYPI   C1B17705   2.095  12.050   7.244 -0.1633 -0.2351 -0.1555
 1207PYPI   C2B17706   2.039  12.100   7.682  0.0371 -0.2526 -0.1433
 1207PYPI   C3B17707   2.253  12.043   8.042  0.2120 -0.0395  0.0446
 1207PYPI   C4B17708   2.324  11.977   8.424  0.1614  0.2778  0.1655
 1208PYPI    C117709   7.907  12.615   6.469 -0.1707  0.0324  0.0080
 1208PYPI    C217710   7.538  12.718   6.355 -0.0902  0.1449 -0.1562
 1208PYPI    C317711   7.768  12.500   6.112 -0.1217 -0.1025  0.0322
 1208PYPI   PO417712   7.926  12.613   6.728 -0.0980 -0.0353 -0.3223
 1208PYPI   GL117713   7.729  12.557   7.014  0.0844  0.1622 -0.0611
 1208PYPI   GL217714   7.530  12.366   7.088 -0.0535 -0.1760  0.3334
 1208PYPI   C1A17715   7.732  12.672   7.423  0.2303  0.0529 -0.0729
 1208PYPI   C2A17716   7.920  12.670   7.778  0.1516 -0.1361 -0.1415
 1208PYPI   D3A17717   7.848  12.654   8.188 -0.0933 -0.0254 -0.1560
 1208PYPI   C4A17718   7.595  12.873   8.472 -0.3186  0.0055 -0.3438
 1208PYPI   C1B17719   7.563  12.238   7.601  0.3742 -0.2227  0.0785
 1208PYPI   C2B17720   7.482  12.134   8.041 -0.0695 -0.1889 -0.1346
 1208PYPI   C3B17721   7.355  12.184   8.392  0.2190 -0.1249  0.1414
 1208PYPI   C4B17722   7.218  12.289   8.870  0.0999 -0.2842 -0.1324
 1209PYPI    C117723  12.650   9.474   5.933 -0.0584 -0.0782 -0.0613
 1209PYPI    C217724  12.391   9.774   5.985  0.0221 -0.0625  0.2693
 1209PYPI    C317725  12.784   9.847   5.985  0.0334 -0.1033 -0.1147
 1209PYPI   PO417726  12.572   9.292   6.108 -0.0409  0.0046 -0.0908
 1209PYPI   GL117727  12.605   9.200   6.592 -0.0857 -0.0928  0.3476
 1209PYPI   GL217728  12.435   9.129   6.733 -0.2979  0.0971 -0.1814
 1209PYPI   C1A17729  12.923   9.461   6.842  0.0225 -0.0336  0.1474
 1209PYPI   C2A17730  13.015   9.469   7.268 -0.0587  0.2321 -0.1448
 1209PYPI   D3A17731  13.028   9.452   7.766 -0.0645  0.0377 -0.0083
 1209PYPI   C4A17732  13.124   9.307   8.194 -0.0811  0.1437 -0.0055
 1209PYPI   C1B17733  12.463   9.215   7.177 -0.2454 -0.0605  0.1474
 1209PYPI   C2B17734  12.588   9.155   7.618  0.1043 -0.1391  0.0474
 1209PYPI   C3B17735  12.624   9.203   8.072  0.2407 -0.1822  0.0767
 1209PYPI   C4B17736  12.677   9.133   8.436 -0.5421 -0.3486  0.1377
 1210PYPI    C117737   3.890   6.004   6.131 -0.0162  0.1335  0.1641
 1210PYPI    C217738   4.277   6.003   6.028 -0.0115  0.1396  0.1819
 1210PYPI    C317739   3.994   5.971   5.746  0.0057 -0.0584  0.1853
 1210PYPI   PO417740   3.843   6.212   6.283  0.0336 -0.0661 -0.1739
 1210PYPI   GL117741   3.814   6.329   6.688  0.0228  0.0881  0.1865
 1210PYPI   GL217742   4.202   6.214   6.912 -0.2565  0.0952 -0.2303
 1210PYPI   C1A17743   3.684   6.354   7.106 -0.3630  0.1409  0.1084
 1210PYPI   C2A17744   3.756   6.357   7.539  0.3456  0.1854  0.3513
 1210PYPI   D3A17745   3.680   6.292   7.987 -0.2681  0.0148 -0.0484
 1210PYPI   C4A17746   3.953   6.610   8.237  0.0330  0.1117 -0.2138
 1210PYPI   C1B17747   4.114   6.076   7.385 -0.1554  0.0324  0.1974
 1210PYPI   C2B17748   4.167   6.186   7.844 -0.0435 -0.1465  0.2293
 1210PYPI   C3B17749   4.136   6.192   8.345  0.2444 -0.0715  0.3390
 1210PYPI   C4B17750   4.029   6.458   8.733  0.2417 -0.1682 -0.0577
 1211PYPI    C117751   3.770   2.520   6.058 -0.0317 -0.0574  0.1478
 1211PYPI    C217752   4.139   2.429   5.930 -0.0904 -0.1281  0.0270
 1211PYPI    C317753   3.967   2.773   5.818  0.0408  0.0281  0.2961
 1211PYPI   PO417754   3.799   2.343   6.331 -0.0446  0.2420  0.0516
 1211PYPI   GL117755   3.807   2.404   6.721  0.0108  0.0434  0.3669
 1211PYPI   GL217756   4.003   2.179   6.807 -0.2206 -0.1301  0.1483
 1211PYPI   C1A17757   3.477   2.448   6.960 -0.0261  0.0368  0.1160
 1211PYPI   C2A17758   3.492   2.592   7.223 -0.1230  0.1556 -0.2287
 1211PYPI   D3A17759   3.564   2.619   7.670  0.0538  0.0352  0.3809
 1211PYPI   C4A17760   3.762   2.675   8.055 -0.0526 -0.1277 -0.1566
 1211PYPI   C1B17761   3.908   2.303   7.217  0.0021 -0.2431  0.2592
 1211PYPI   C2B17762   3.901   2.167   7.598  0.0178 -0.0426 -0.1127
 1211PYPI   C3B17763   3.983   2.143   8.040  0.0105  0.0367  0.2675
 1211PYPI   C4B17764   3.846   2.362   8.446  0.2029 -0.0276 -0.2017
 1212PYPI    C117765   8.633  11.478   6.636  0.0500 -0.0504 -0.1052
 1212PYPI    C217766   8.935  11.680   6.468 -0.0392  0.2139  0.0452
 1212PYPI    C317767   8.557  11.776   6.380 -0.0854 -0.2063 -0.2490
 1212PYPI   PO417768   8.743  11.261   6.672  0.1530 -0.2111  0.0367
 1212PYPI   GL117769   9.002  10.986   6.899  0.0691  0.1502 -0.1521
 1212PYPI   GL217770   8.695  10.902   7.002  0.1108  0.3488 -0.2131
 1212PYPI   C1A17771   9.287  11.055   7.175 -0.1453  0.0081  0.0179
 1212PYPI   C2A17772   9.340  10.964   7.658 -0.1687  0.0965  0.1854
 1212PYPI   D3A17773   9.425  11.027   8.061 -0.1671  0.1763 -0.0275
 1212PYPI   C4A17774   9.686  10.819   8.451  0.1192  0.1635  0.1143
 1212PYPI   C1B17775   8.750  10.890   7.356 -0.1923 -0.0693  0.0555
 1212PYPI   C2B17776   8.754  10.960   7.774  0.1644 -0.0068 -0.2520
 1212PYPI   C3B17777   8.873  11.140   8.194  0.1195  0.1375  0.1618
 1212PYPI   C4B17778   9.170  11.274   8.554  0.2412 -0.0730 -0.1918
 1213PYPI    C117779  10.452  14.453   6.389  0.0874  0.1534 -0.0844
 1213PYPI    C217780  10.158  14.424   6.119 -0.0902  0.1536  0.1069
 1213PYPI    C317781  10.539  14.439   5.998 -0.1378 -0.3068 -0.1249
 1213PYPI   PO417782  10.285  14.398   6.613  0.2031  0.0934 -0.4963
 1213PYPI   GL117783  10.505  14.374   7.046  0.1488  0.0282 -0.0327
 1213PYPI   GL217784  10.259  14.136   7.030 -0.1358  0.1656  0.2025
 1213PYPI   C1A17785  10.533  14.200   7.457  0.1978  0.0747 -0.1217
 1213PYPI   C2A17786  10.468  14.232   7.965  0.1074  0.2011  0.1951
 1213PYPI   D3A17787  10.310  14.259   8.376 -0.0527  0.0066 -0.2260
 1213PYPI   C4A17788  10.504  14.230   8.709  0.1883 -0.0630  0.0008
 1213PYPI   C1B17789  10.296  13.800   7.299  0.3395 -0.1354 -0.0412
 1213PYPI   C2B17790  10.479  13.701   7.709  0.1852  0.1353 -0.0449
 1213PYPI   C3B17791  10.353  13.742   8.162 -0.2060  0.0015  0.1359
 1213PYPI   C4B17792  10.253  13.718   8.597  0.0551 -0.1150  0.1185
 1214ERGO   ROH17793   3.337   2.982   6.908  0.0701  0.0285  0.0023
 1214ERGO    R117794   3.414   3.075   7.164  0.1351  0.1028 -0.0433
 1214ERGO    R217795   3.237   3.197   7.337  0.1783  0.1560 -0.0335
 1214ERGO    R317796   3.322   3.004   7.509  0.2193  0.2037 -0.0004
 1214ERGO    R417797   3.250   3.231   7.681 -0.1297  0.1040 -0.0142
 1214ERGO    R517798   3.440   3.125   7.679 -0.0288  0.2820  0.1192
 1214ERGO    C117799   3.337   3.070   8.042 -0.2707  0.1185  0.0280
 1214ERGO    C217800   3.204   3.196   8.406  0.0524 -0.0003  0.0622
 1215ERGO   ROH17801  11.720   3.346   6.894 -0.1629 -0.0261  0.0051
 1215ERGO    R117802  11.850   3.434   7.129 -0.2348  0.2735 -0.0645
 1215ERGO    R217803  11.724   3.590   7.319 -0.5009 -0.0168  0.0008
 1215ERGO    R317804  11.804   3.393   7.488  0.0522  0.1572 -0.0377
 1215ERGO    R417805  11.728   3.615   7.664 -0.5991 -0.0755  0.0074
 1215ERGO    R517806  11.918   3.508   7.664 -0.2790  0.4542 -0.0038
 1215ERGO    C117807  11.806   3.444   8.023 -0.1372  0.0537 -0.0249
 1215ERGO    C217808  11.856   3.537   8.417  0.0791 -0.0460  0.0065
 1216ERGO   ROH17809  14.640  13.991   6.583 -0.1191  0.0245  0.0745
 1216ERGO    R117810  14.668  14.110   6.838 -0.0735 -0.0572  0.1074
 1216ERGO    R217811  14.647  13.966   7.073  0.0657 -0.1503  0.0614
 1216ERGO    R317812  14.892  14.074   7.124  0.0428 -0.0747  0.0154
 1216ERGO    R417813  14.766  14.045   7.388  0.1155 -0.1522  0.0437
 1216ERGO    R517814  14.852  14.227   7.304  0.0343 -0.1110  0.0459
 1216ERGO    C117815  15.065  14.192   7.619  0.1230 -0.0823 -0.0096
 1216ERGO    C217816  15.092  14.252   7.943  0.0876 -0.0809 -0.0350
 1217ERGO   ROH17817   9.156  15.520   6.907  0.1268  0.2072  0.0193
 1217ERGO    R117818   9.280  15.519   7.162  0.1515  0.0006  0.0072
 1217ERGO    R217819   9.152  15.605   7.391  0.2573  0.0458  0.0452
 1217ERGO    R317820   9.223  15.359   7.483  0.0315 -0.0547 -0.0395
 1217ERGO    R417821   9.140  15.507   7.722  0.2939 -0.0016  0.0331
 1217ERGO    R517822   9.329  15.403   7.694  0.1750 -0.2062 -0.0736
 1217ERGO    C117823   9.199  15.220   8.002  0.1033 -0.1235 -0.0535
 1217ERGO    C217824   9.138  15.278   8.308  0.0417  0.1268 -0.1762
 1218ERGO   ROH17825   2.262   1.219   6.622 -0.1656 -0.0972  0.0817
 1218ERGO    R117826   2.093   1.097   6.814 -0.0882 -0.0231  0.1975
 1218ERGO    R217827   2.126   0.835   6.897 -0.1440 -0.0360  0.1765
 1218ERGO    R317828   2.132   0.949   7.144  0.0716 -0.0369  0.1732
 1218ERGO    R417829   2.059   0.670   7.193 -0.3189  0.0626  0.1935
 1218ERGO    R517830   1.951   0.846   7.262 -0.0545  0.2223  0.2136
 1218ERGO    C117831   2.026   0.680   7.597 -0.2183  0.1192  0.2003
 1218ERGO    C217832   1.942   0.619   7.910 -0.3775 -0.0605 -0.1204
 1219ERGO   ROH17833  16.286   3.065   6.869 -0.0294  0.2057  0.1474
 1219ERGO    R117834  16.202   2.993   7.129 -0.0025 -0.0844  0.0798
 1219ERGO    R217835  16.300   2.771   7.261  0.2904 -0.0276 -0.0317
 1219ERGO    R317836  16.357   2.952   7.456 -0.0352 -0.0573  0.0986
 1219ERGO    R417837  16.306   2.702   7.600  0.0994 -0.1764 -0.0571
 1219ERGO    R517838  16.211   2.894   7.636 -0.1187 -0.2855 -0.0384
 1219ERGO    C117839  16.364   2.831   7.979 -0.3176 -0.2910  0.0504
 1219ERGO    C217840  16.312   2.811   8.287 -0.1212  0.2360  0.0327
 1220ERGO   ROH17841   9.819  10.713   6.835  0.1128 -0.2667 -0.0621
 1220ERGO    R117842   9.939  10.785   7.082  0.1549 -0.1563 -0.1145
 1220ERGO    R217843   9.790  10.854   7.305  0.1956  0.1090 -0.1688
 1220ERGO    R317844   9.938  10.658   7.423  0.0682  0.1032 -0.0145
 1220ERGO    R417845   9.839  10.820   7.645  0.2143  0.3867 -0.1418
 1220ERGO    R517846  10.046  10.767   7.606  0.1746  0.1959 -0.1271
 1220ERGO    C117847  10.005  10.617   7.954  0.1054  0.5429  0.0188
 1220ERGO    C217848  10.029  10.559   8.183  0.1404 -0.0867  0.0991
 1221ERGO   ROH17849   4.967  17.085   6.772  0.1284  0.1817  0.0665
 1221ERGO    R117850   4.887  17.185   7.025  0.0157  0.0689  0.0750
 1221ERGO    R217851   4.704  17.054   7.186  0.1508 -0.1416  0.0503
 1221ERGO    R317852   4.902  17.072   7.370  0.1236  0.0474  0.0654
 1221ERGO    R417853   4.656  17.116   7.523  0.0508 -0.2498  0.0578
 1221ERGO    R517854   4.831  17.246   7.519 -0.0854 -0.0500  0.0898
 1221ERGO    C117855   4.815  17.168   7.892 -0.0329 -0.1354  0.0764
 1221ERGO    C217856   4.721  16.996   8.260  0.4396 -0.0879  0.0421
 1222ERGO   ROH17857   7.744  17.059   6.987 -0.0237 -0.0430  0.0433
 1222ERGO    R117858   7.746  17.207   7.228 -0.0455  0.0403 -0.0063
 1222ERGO    R217859   7.515  17.281   7.360 -0.0606  0.0927 -0.0535
 1222ERGO    R317860   7.635  17.156   7.571 -0.0837  0.1581 -0.0022
 1222ERGO    R417861   7.412  17.305   7.690 -0.2906 -0.0716 -0.1109
 1222ERGO    R517862   7.622  17.315   7.749 -0.3403  0.1058  0.0249
 1222ERGO    C117863   7.465  17.203   8.078 -0.4463 -0.1056 -0.0959
 1222ERGO    C217864   7.293  17.155   8.368  0.0970 -0.4386  0.0572
 1223ERGO   ROH17865  10.076  14.725   6.944 -0.0045 -0.1617  0.0940
 1223ERGO    R117866   9.947  14.605   7.165  0.0042 -0.1164  0.1236
 1223ERGO    R217867  10.085  14.480   7.369  0.0076 -0.1444  0.1017
 1223ERGO    R317868   9.943  14.651   7.526  0.0834 -0.1003  0.1232
 1223ERGO    R417869  10.105  14.494   7.713  0.0887 -0.1357  0.0968
 1223ERGO    R517870   9.889  14.521   7.720  0.0937 -0.0809  0.1418
 1223ERGO    C117871   9.984  14.661   8.062  0.2072 -0.0893  0.1140
 1223ERGO    C217872  10.021  14.656   8.359 -0.3293  0.1236  0.1820
 1224ERGO   ROH17873   4.645   9.766   6.857  0.0124  0.0902  0.0702
 1224ERGO    R117874   4.627   9.635   7.107 -0.0572  0.0456  0.0420
 1224ERGO    R217875   4.845   9.601   7.274 -0.0661 -0.1428  0.0163
 1224ERGO    R317876   4.684   9.722   7.456  0.0323 -0.0723  0.0576
 1224ERGO    R417877   4.867   9.557   7.616  0.0100 -0.1440  0.0117
 1224ERGO    R517878   4.649   9.555   7.624  0.0102 -0.0550  0.0709
 1224ERGO    C117879   4.728   9.645   7.986  0.1467 -0.0785  0.0478
 1224ERGO    C217880   4.576   9.774   8.253 -0.1832 -0.0478 -0.0204
 1225ERGO   ROH17881   5.147  10.720   6.846 -0.3133 -0.1314  0.1899
 1225ERGO    R117882   5.163  10.549   7.071 -0.0822 -0.1265  0.1798
 1225ERGO    R217883   5.402  10.445   7.162  0.0325  0.0040  0.0349
 1225ERGO    R317884   5.323  10.555   7.398  0.1137 -0.0424  0.0838
 1225ERGO    R417885   5.516  10.347   7.474  0.0657 -0.1241 -0.0174
 1225ERGO    R517886   5.312  10.369   7.549  0.0879 -0.0845  0.0302
 1225ERGO    C117887   5.508  10.393   7.876  0.1612 -0.2421 -0.0019
 1225ERGO    C217888   5.465  10.388   8.281 -0.1174 -0.1955 -0.1169
 1226ERGO   ROH17889   1.564  12.917   6.692 -0.0149 -0.1135  0.0587
 1226ERGO    R117890   1.356  12.896   6.884  0.0522  0.1199  0.1592
 1226ERGO    R217891   1.310  12.665   7.028 -0.2528  0.1073  0.0420
 1226ERGO    R317892   1.333  12.832   7.241  0.1442 -0.0530  0.1363
 1226ERGO    R417893   1.232  12.581   7.354 -0.5027  0.1161 -0.0124
 1226ERGO    R517894   1.144  12.778   7.379 -0.0179  0.3378  0.0825
 1226ERGO    C117895   1.208  12.689   7.744 -0.2756 -0.0293  0.0445
 1226ERGO    C217896   1.356  12.736   8.045 -0.0947  0.0524  0.3047
 1227ERGO   ROH17897  16.182   9.568   6.437  0.0968  0.1517  0.0611
 1227ERGO    R117898  16.089   9.428   6.666 -0.0225  0.1783  0.0323
 1227ERGO    R217899  16.237   9.229   6.790 -0.1137  0.1363  0.0977
 1227ERGO    R317900  16.198   9.383   7.009 -0.1545  0.1609  0.0692
 1227ERGO    R417901  16.241   9.117   7.116  0.2452  0.2641  0.1396
 1227ERGO    R517902  16.074   9.246   7.159  0.1201  0.0666  0.2054
 1227ERGO    C117903  16.207   9.196   7.513  0.4159  0.3618  0.1373
 1227ERGO    C217904  16.240   9.250   7.926 -0.1102  0.3309  0.0732
 1228ERGO   ROH17905  15.755   1.654   6.815  0.0091  0.0928 -0.0348
 1228ERGO    R117906  15.668   1.643   7.084 -0.2491  0.1794 -0.1116
 1228ERGO    R217907  15.842   1.602   7.296 -0.5097 -0.2962  0.0275
 1228ERGO    R317908  15.729   1.831   7.390 -0.0825 -0.0705  0.0117
 1228ERGO    R417909  15.825   1.692   7.629 -0.4531 -0.3015  0.0315
 1228ERGO    R517910  15.623   1.766   7.594 -0.2964  0.1174 -0.0366
 1228ERGO    C117911  15.710   1.960   7.911 -0.0190 -0.0928  0.0189
 1228ERGO    C217912  15.824   2.102   8.216  0.0753 -0.1838 -0.1490
 1229ERGO   ROH17913   8.238   6.532   6.806  0.2032 -0.0213 -0.0084
 1229ERGO    R117914   8.269   6.672   7.050  0.2113 -0.1120  0.0434
 1229ERGO    R217915   8.054   6.760   7.199  0.2151  0.0479 -0.0425
 1229ERGO    R317916   8.176   6.621   7.398 -0.0112 -0.1183 -0.0151
 1229ERGO    R417917   8.023   6.829   7.536  0.2769  0.1259 -0.0525
 1229ERGO    R517918   8.235   6.788   7.559  0.2179 -0.1877 -0.0242
 1229ERGO    C117919   8.120   6.738   7.919  0.1005  0.0153 -0.0325
 1229ERGO    C217920   8.207   6.681   8.207 -0.1147 -0.1154 -0.0726
 1230ERGO   ROH17921   5.162   8.225   6.797  0.1205 -0.0732 -0.0415
 1230ERGO    R117922   5.164   8.087   7.044  0.0451 -0.0208 -0.0095
 1230ERGO    R217923   5.339   8.149   7.248  0.0791 -0.0666 -0.0161
 1230ERGO    R317924   5.111   8.170   7.394  0.0848  0.0884 -0.0308
 1230ERGO    R417925   5.319   8.095   7.588 -0.0275 -0.2716 -0.0547
 1230ERGO    R517926   5.128   7.993   7.555 -0.1346 -0.0365 -0.1462
 1230ERGO    C117927   5.093   8.083   7.924 -0.0842 -0.2453 -0.0909
 1230ERGO    C217928   5.144   8.059   8.259  0.0951 -0.1929 -0.0779
 1231ERGO   ROH17929  13.118   1.631   6.787  0.0613  0.3279 -0.0213
 1231ERGO    R117930  13.005   1.693   7.039  0.1723  0.2153  0.0566
 1231ERGO    R217931  12.842   1.517   7.177  0.0312  0.2489 -0.0668
 1231ERGO    R317932  13.023   1.557   7.376  0.1123 -0.0989 -0.0635
 1231ERGO    R417933  12.769   1.514   7.515  0.0824  0.0934 -0.0564
 1231ERGO    R517934  12.903   1.682   7.541  0.2820 -0.0765  0.0443
 1231ERGO    C117935  12.896   1.549   7.899  0.1885 -0.3235 -0.0471
 1231ERGO    C217936  13.010   1.427   8.295  0.4283 -0.0746  0.0465
 1232ERGO   ROH17937  15.974  17.114   6.691 -0.1833 -0.0461 -0.0705
 1232ERGO    R117938  16.013  17.061   6.966 -0.0303 -0.1379 -0.1077
 1232ERGO    R217939  15.971  17.251   7.162  0.3059 -0.1272 -0.0328
 1232ERGO    R317940  15.808  17.061   7.267  0.1892  0.0136  0.0427
 1232ERGO    R417941  15.963  17.162   7.496  0.3802 -0.1334 -0.0330
 1232ERGO    R517942  15.943  16.953   7.434  0.1679 -0.1101 -0.0257
 1232ERGO    C117943  15.806  16.931   7.789  0.3140 -0.0050  0.0377
 1232ERGO    C217944  15.770  17.088   8.131  0.0881 -0.1233 -0.0168
 1233ERGO   ROH17945   9.229   1.336   7.410  0.3000 -0.2687  0.0940
 1233ERGO    R117946   9.116   1.322   7.669  0.1878 -0.2460  0.0459
 1233ERGO    R217947   9.228   1.174   7.873  0.1882 -0.0983  0.1507
 1233ERGO    R317948   9.217   1.410   8.008 -0.0270 -0.0558  0.0643
 1233ERGO    R417949   9.230   1.205   8.218  0.2100  0.0256  0.1403
 1233ERGO    R517950   9.080   1.364   8.199  0.0454 -0.1262  0.1027
 1233ERGO    C117951   9.221   1.445   8.544  0.0206  0.1376  0.0531
 1233ERGO    C217952   9.189   1.306   8.908 -0.2152  0.1537  0.0761
 1234ERGO   ROH17953   3.486  10.982   8.959 -0.2527  0.2289  0.3587
 1234ERGO    R117954   3.706  11.117   9.075 -0.1936  0.2005  0.2807
 1234ERGO    R217955   3.915  11.217   8.926 -0.1083 -0.0499  0.2286
 1234ERGO    R317956   3.854  11.449   9.054  0.0046  0.0986  0.0212
 1234ERGO    R417957   4.144  11.462   9.010  0.0626 -0.2210  0.2719
 1234ERGO    R517958   4.040  11.486   9.200 -0.0880  0.0071  0.1649
 1234ERGO    C117959   4.219  11.822   9.179  0.2680 -0.1813  0.1025
 1234ERGO    C217960   4.131  12.183   9.196 -0.0241  0.2803  0.2040
 1235ERGO   ROH17961   3.192   5.472   6.814  0.1567 -0.0409 -0.0399
 1235ERGO    R117962   3.210   5.418   7.092  0.1849 -0.0931 -0.0515
 1235ERGO    R217963   3.275   5.612   7.277  0.0820 -0.0992 -0.0084
 1235ERGO    R317964   3.043   5.531   7.394  0.1239 -0.2480 -0.0258
 1235ERGO    R417965   3.198   5.652   7.612  0.0197 -0.1154 -0.0208
 1235ERGO    R517966   3.109   5.452   7.610  0.1570 -0.1790 -0.0099
 1235ERGO    C117967   2.936   5.600   7.917  0.0227 -0.2645 -0.0443
 1235ERGO    C217968   2.851   5.699   8.289  0.3573  0.0022 -0.1495
 1236ERGO   ROH17969   9.041  11.529   6.986  0.3896  0.0981 -0.0632
 1236ERGO    R117970   9.018  11.568   7.265  0.3085  0.0577 -0.0653
 1236ERGO    R217971   8.999  11.357   7.444  0.1875  0.0355 -0.1101
 1236ERGO    R317972   9.211  11.481   7.561  0.1846 -0.0470 -0.0130
 1236ERGO    R417973   9.040  11.401   7.785  0.0935 -0.0630 -0.0844
 1236ERGO    R517974   9.116  11.601   7.745  0.1565 -0.0694 -0.0101
 1236ERGO    C117975   9.262  11.542   8.093  0.0359 -0.1978  0.0218
 1236ERGO    C217976   9.409  11.713   8.380 -0.1090  0.2618 -0.1371
 1237ERGO   ROH17977  11.269   6.009   7.000 -0.2650 -0.0464 -0.1002
 1237ERGO    R117978  11.353   6.056   7.266 -0.1323 -0.0416 -0.1424
 1237ERGO    R217979  11.293   6.289   7.402  0.0021 -0.0067 -0.1431
 1237ERGO    R317980  11.193   6.117   7.587  0.0287  0.0477 -0.0775
 1237ERGO    R417981  11.312   6.334   7.744 -0.1574  0.2166 -0.1610
 1237ERGO    R517982  11.354   6.121   7.765 -0.0411  0.2501 -0.0147
 1237ERGO    C117983  11.230   6.199   8.117 -0.2253  0.3976 -0.1100
 1237ERGO    C217984  11.228   6.186   8.441 -0.3549 -0.2175 -0.0648
 1238ERGO   ROH17985   3.077  10.399   6.782  0.1198 -0.2785  0.2037
 1238ERGO    R117986   3.153  10.476   7.043 -0.0469  0.1224  0.1410
 1238ERGO    R217987   2.985  10.616   7.212 -0.3958 -0.1616  0.0412
 1238ERGO    R317988   3.038  10.411   7.383  0.1408  0.0907  0.1997
 1238ERGO    R417989   2.885  10.604   7.543 -0.5154 -0.2361  0.0031
 1238ERGO    R517990   3.079  10.519   7.593 -0.2663  0.3645  0.1518
 1238ERGO    C117991   2.876  10.405   7.895 -0.0815 -0.0426  0.1299
 1238ERGO    C217992   2.752  10.461   8.242 -0.0026 -0.0191 -0.1237
 1239ERGO   ROH17993   5.050   1.116   6.804 -0.1834  0.0395  0.1477
 1239ERGO    R117994   5.048   1.079   7.085 -0.4030  0.0075  0.1439
 1239ERGO    R217995   5.208   1.226   7.256 -0.1789 -0.3367  0.2404
 1239ERGO    R317996   4.971   1.280   7.378 -0.1392  0.1385  0.1258
 1239ERGO    R417997   5.166   1.263   7.597 -0.3028 -0.4779  0.2414
 1239ERGO    R517998   4.978   1.153   7.580 -0.5654 -0.0305  0.0449
 1239ERGO    C117999   4.919   1.335   7.910 -0.3377 -0.1140  0.1344
 1239ERGO    C218000   5.051   1.416   8.196  0.2460  0.2329 -0.2606
 1240ERGO   ROH18001   4.660  13.825   7.165 -0.2476 -0.2160 -0.0929
 1240ERGO    R118002   4.746  13.837   7.434 -0.0993  0.0246 -0.1485
 1240ERGO    R218003   4.703  14.058   7.595 -0.3724  0.0129 -0.2054
 1240ERGO    R318004   4.590  13.875   7.761  0.0347 -0.1230 -0.0646
 1240ERGO    R418005   4.651  14.104   7.933 -0.3937  0.1319 -0.2244
 1240ERGO    R518006   4.712  13.897   7.966  0.0425  0.2642 -0.1008
 1240ERGO    C118007   4.515  13.959   8.286 -0.0241  0.0736 -0.1032
 1240ERGO    C218008   4.407  13.988   8.645 -0.0105  0.2315 -0.0410
 1241ERGO   ROH18009  11.843  11.929   6.590 -0.2145  0.2367 -0.0261
 1241ERGO    R118010  11.968  11.961   6.842 -0.1330  0.1714 -0.0581
 1241ERGO    R218011  11.852  12.103   7.049 -0.0544  0.1392  0.0069
 1241ERGO    R318012  11.893  11.873   7.187 -0.0339  0.1070 -0.0521
 1241ERGO    R418013  11.896  12.082   7.391 -0.1917  0.0451  0.0199
 1241ERGO    R518014  12.050  11.932   7.357 -0.1245  0.1072  0.0341
 1241ERGO    C118015  11.961  11.854   7.719 -0.2526 -0.0401 -0.0279
 1241ERGO    C218016  11.983  11.913   7.981 -0.2160 -0.2178 -0.1489
 1242ERGO   ROH18017  16.563  12.482   6.545 -0.0325 -0.1252 -0.0811
 1242ERGO    R118018  16.485  12.408   6.807 -0.2274  0.0957 -0.0739
 1242ERGO    R218019  16.646  12.257   6.974 -0.5482 -0.1863 -0.0062
 1242ERGO    R318020  16.607  12.465   7.145 -0.1691 -0.0547 -0.0696
 1242ERGO    R418021  16.707  12.248   7.314 -0.4735 -0.1555 -0.0186
 1242ERGO    R518022  16.525  12.362   7.346 -0.2830  0.1516 -0.0096
 1242ERGO    C118023  16.706  12.437   7.673 -0.0743 -0.0141 -0.0854
 1242ERGO    C218024  16.573  12.418   7.988  0.1402  0.0722  0.3360
 1243ERGO   ROH18025  12.963   8.311   6.719  0.0188 -0.1535 -0.0006
 1243ERGO    R118026  12.893   8.442   6.960 -0.0487 -0.1684 -0.0115
 1243ERGO    R218027  12.739   8.321   7.155  0.1016 -0.2722  0.0480
 1243ERGO    R318028  12.947   8.388   7.316  0.0794 -0.0489 -0.0127
 1243ERGO    R418029  12.736   8.300   7.500  0.1642 -0.0914  0.0601
 1243ERGO    R518030  12.845   8.489   7.507  0.0396 -0.0161 -0.0533
 1243ERGO    C118031  12.931   8.351   7.852  0.1798  0.2236  0.0100
 1243ERGO    C218032  12.970   8.236   8.186  0.1819  0.0079 -0.1597
 1244ERGO   ROH18033  17.030   2.730   6.444  0.1375 -0.0681  0.0396
 1244ERGO    R118034  17.198   2.767   6.669  0.1184 -0.2986  0.0937
 1244ERGO    R218035  17.139   2.947   6.870  0.4323 -0.0049 -0.0678
 1244ERGO    R318036  17.169   2.728   7.030 -0.1584  0.0268  0.1126
 1244ERGO    R418037  17.182   2.957   7.213  0.4413  0.1656 -0.0729
 1244ERGO    R518038  17.329   2.797   7.194  0.0272 -0.2571  0.0602
 1244ERGO    C118039  17.236   2.757   7.562 -0.1081  0.2946  0.0936
 1244ERGO    C218040  17.215   2.692   7.966  0.2131 -0.0299  0.0330
 1245ERGO   ROH18041   6.775   9.124   6.869  0.2652 -0.0107  0.0177
 1245ERGO    R118042   6.692   9.111   7.140  0.2103  0.0229  0.0039
 1245ERGO    R218043   6.756   8.899   7.304  0.0356 -0.0434  0.0003
 1245ERGO    R318044   6.854   9.095   7.465  0.1501 -0.1210  0.0251
 1245ERGO    R418045   6.748   8.893   7.650  0.0010 -0.0484 -0.0010
 1245ERGO    R518046   6.698   9.105   7.647  0.1462 -0.0222  0.0087
 1245ERGO    C118047   6.836   9.073   8.002  0.0884 -0.1241  0.0214
 1245ERGO    C218048   6.747   9.134   8.289 -0.0165  0.3538 -0.0714
 1246ERGO   ROH18049  13.428  11.778  10.728  0.2052 -0.0475 -0.0584
 1246ERGO    R118050  13.274  11.731  10.496  0.1316 -0.0888 -0.0035
 1246ERGO    R218051  13.302  11.882  10.266 -0.0845  0.0070  0.0222
 1246ERGO    R318052  13.340  11.640  10.149  0.0464  0.0674 -0.0597
 1246ERGO    R418053  13.277  11.819   9.927 -0.0007  0.1033 -0.0013
 1246ERGO    R518054  13.177  11.631   9.974  0.0838  0.0460 -0.0854
 1246ERGO    C118055  13.298  11.555   9.620  0.1709  0.2160 -0.0918
 1246ERGO    C218056  13.273  11.631   9.253 -0.0078  0.1034 -0.0435
 1247ERGO   ROH18057  16.165  10.501   6.242 -0.0653  0.2221 -0.0026
 1247ERGO    R118058  16.188  10.523   6.524 -0.1381  0.0147  0.0215
 1247ERGO    R218059  16.045  10.363   6.697 -0.0514 -0.2363 -0.1320
 1247ERGO    R318060  16.291  10.308   6.799 -0.0276 -0.1289 -0.1305
 1247ERGO    R418061  16.106  10.261   7.022 -0.0037 -0.1988 -0.1291
 1247ERGO    R518062  16.282  10.390   7.024 -0.0592 -0.1254 -0.1342
 1247ERGO    C118063  16.373  10.150   7.306  0.0466 -0.0763 -0.1260
 1247ERGO    C218064  16.420  10.225   7.628  0.0853 -0.0179  0.1205
 1248ERGO   ROH18065  15.715  14.167   6.520  0.2118  0.1363 -0.1229
 1248ERGO    R118066  15.739  14.035   6.769  0.3195  0.0102 -0.1983
 1248ERGO    R218067  15.972  14.038   6.918  0.2749  0.2463 -0.1237
 1248ERGO    R318068  15.807  14.130   7.114  0.0770 -0.1049 -0.1170
 1248ERGO    R418069  16.043  14.029   7.256  0.1000  0.0007 -0.0905
 1248ERGO    R518070  15.836  13.974   7.293  0.1364 -0.2457 -0.2495
 1248ERGO    C118071  15.930  14.111   7.637 -0.1874 -0.4721 -0.0649
 1248ERGO    C218072  16.027  14.087   7.942  0.2952 -0.0745 -0.0336
 1249ERGO   ROH18073  10.394   1.310   7.178  0.0007 -0.2556  0.0134
 1249ERGO    R118074  10.537   1.424   7.395 -0.0193 -0.1662 -0.0209
 1249ERGO    R218075  10.412   1.550   7.606 -0.0349 -0.0369 -0.1112
 1249ERGO    R318076  10.556   1.373   7.755 -0.0878  0.0198  0.0109
 1249ERGO    R418077  10.530   1.610   7.925 -0.0072  0.1579 -0.1564
 1249ERGO    R518078  10.716   1.509   7.871 -0.0387  0.0557 -0.0919
 1249ERGO    C118079  10.734   1.480   8.250 -0.0409  0.3246 -0.0681
 1249ERGO    C218080  10.758   1.517   8.613 -0.2639  0.0688  0.0665
 1250ERGO   ROH18081   0.443   0.100   6.649  0.2263 -0.2737  0.0416
 1250ERGO    R118082   0.506  -0.007   6.903  0.1373 -0.1573  0.1126
 1250ERGO    R218083   0.660   0.129   7.088 -0.0022 -0.0392  0.1346
 1250ERGO    R318084   0.447   0.084   7.251 -0.0629 -0.0505  0.0543
 1250ERGO    R418085   0.679   0.090   7.430 -0.1269  0.0874  0.1576
 1250ERGO    R518086   0.530  -0.069   7.415 -0.0759  0.0281  0.1439
 1250ERGO    C118087   0.491   0.024   7.783 -0.2566  0.1506  0.0955
 1250ERGO    C218088   0.463  -0.026   8.185 -0.3013  0.2962 -0.1825
 1251ERGO   ROH18089   7.882   1.045   6.706 -0.0329 -0.0189  0.1633
 1251ERGO    R118090   7.785   1.171   6.940 -0.2194 -0.1482  0.1558
 1251ERGO    R218091   7.667   1.030   7.146  0.2802 -0.3609  0.3031
 1251ERGO    R318092   7.855   1.157   7.297  0.0530  0.2238  0.1245
 1251ERGO    R418093   7.630   1.113   7.480  0.3143 -0.4466  0.3292
 1251ERGO    R518094   7.728   1.303   7.439 -0.2794 -0.1313  0.2182
 1251ERGO    C118095   7.784   1.280   7.815  0.1210  0.0524  0.1767
 1251ERGO    C218096   7.727   1.387   8.189 -0.0688  0.2021  0.1150
 1252ERGO   ROH18097  10.352  16.311   7.226 -0.0684 -0.0808  0.0017
 1252ERGO    R118098  10.319  16.353   7.504  0.0800  0.0122  0.0073
 1252ERGO    R218099  10.114  16.237   7.649 -0.0466  0.3233  0.0949
 1252ERGO    R318100  10.319  16.147   7.804 -0.1173  0.0549  0.0368
 1252ERGO    R418101  10.090  16.165   7.986 -0.0276  0.4128  0.1146
 1252ERGO    R518102  10.286  16.256   8.015  0.1144  0.1372  0.0304
 1252ERGO    C118103  10.268  16.039   8.328 -0.0826  0.2128  0.0715
 1252ERGO    C218104  10.434  15.998   8.618  0.2418 -0.0529 -0.0442
 1253ERGO   ROH18105   6.868   0.612   6.968  0.0975 -0.0729  0.1991
 1253ERGO    R118106   6.736   0.761   7.169  0.1013  0.0185  0.1351
 1253ERGO    R218107   6.487   0.691   7.267  0.0026  0.1899  0.0152
 1253ERGO    R318108   6.614   0.699   7.506 -0.1061  0.1002  0.0762
 1253ERGO    R418109   6.330   0.712   7.574 -0.1301  0.2316 -0.0552
 1253ERGO    R518110   6.484   0.850   7.638 -0.0929  0.1479  0.0326
 1253ERGO    C118111   6.358   0.731   7.978 -0.3095  0.1718 -0.0388
 1253ERGO    C218112   6.268   0.822   8.242  0.0528 -0.0047 -0.1266
 1254ERGO   ROH18113  16.081   4.826   6.599  0.0060  0.3049 -0.1267
 1254ERGO    R118114  15.953   4.794   6.849 -0.0205  0.3789 -0.1309
 1254ERGO    R218115  16.059   4.640   7.052 -0.2378  0.1070 -0.2193
 1254ERGO    R318116  16.030   4.867   7.197  0.1332  0.0853 -0.0990
 1254ERGO    R418117  16.084   4.658   7.396 -0.4167 -0.1627 -0.1892
 1254ERGO    R518118  15.915   4.796   7.396 -0.1427  0.1876 -0.2157
 1254ERGO    C118119  16.071   4.882   7.733 -0.1725 -0.3401 -0.0587
 1254ERGO    C218120  16.004   4.868   8.147  0.1164 -0.2549 -0.1693
 1255ERGO   ROH18121   1.227  11.016   6.490  0.0836 -0.0374  0.0191
 1255ERGO    R118122   1.248  10.927   6.758  0.0451 -0.0824  0.0080
 1255ERGO    R218123   1.381  11.072   6.952  0.1584 -0.1915  0.0173
 1255ERGO    R318124   1.145  11.049   7.085  0.1505 -0.0486  0.0278
 1255ERGO    R418125   1.342  11.112   7.293  0.1516  0.0488 -0.0107
 1255ERGO    R518126   1.203  10.944   7.292  0.1168  0.0810  0.1009
 1255ERGO    C118127   1.097  11.114   7.616  0.1402  0.3229 -0.0173
 1255ERGO    C218128   1.101  11.105   7.919  0.1505 -0.2031 -0.0993
 1256ERGO   ROH18129  13.996   4.337   6.760 -0.0280  0.0632 -0.0339
 1256ERGO    R118130  14.150   4.370   6.996 -0.0482  0.2388 -0.0427
 1256ERGO    R218131  14.165   4.611   7.132 -0.3742  0.2447  0.0001
 1256ERGO    R318132  14.085   4.459   7.343 -0.1449  0.0890 -0.0227
 1256ERGO    R418133  14.270   4.655   7.458 -0.1211  0.0746 -0.0562
 1256ERGO    R518134  14.281   4.438   7.479 -0.0285  0.0697 -0.1963
 1256ERGO    C118135  14.256   4.538   7.846  0.2414 -0.1707 -0.1104
 1256ERGO    C218136  14.214   4.474   8.201  0.2269 -0.2002 -0.0192
 1257ERGO   ROH18137   9.315   9.202   6.797 -0.0804 -0.1415  0.0259
 1257ERGO    R118138   9.475   9.114   7.013 -0.0253 -0.0537  0.0213
 1257ERGO    R218139   9.593   9.289   7.191 -0.0958  0.0134  0.0044
 1257ERGO    R318140   9.465   9.137   7.376 -0.0141 -0.0365  0.0202
 1257ERGO    R418141   9.711   9.225   7.510 -0.0227  0.0379 -0.0175
 1257ERGO    R518142   9.641   9.019   7.489  0.0420  0.0167 -0.0136
 1257ERGO    C118143   9.659   9.044   7.869  0.0964  0.0053 -0.0154
 1257ERGO    C218144   9.741   9.049   8.198  0.1215  0.5653  0.3055
 1258ERGO   ROH18145   8.968   5.478   7.026 -0.1351 -0.1436 -0.0995
 1258ERGO    R118146   8.962   5.390   7.295 -0.0175 -0.0391 -0.0627
 1258ERGO    R218147   9.048   5.548   7.505 -0.1174  0.1192 -0.1443
 1258ERGO    R318148   8.800   5.495   7.603 -0.0574 -0.0509 -0.0781
 1258ERGO    R418149   8.964   5.547   7.840 -0.0635  0.2576 -0.1292
 1258ERGO    R518150   8.840   5.372   7.804  0.0922  0.1126 -0.0009
 1258ERGO    C118151   8.683   5.497   8.128  0.0242  0.1785 -0.0581
 1258ERGO    C218152   8.602   5.503   8.392  0.2164  0.1052 -0.2632
 1259ERGO   ROH18153  17.077  10.994   6.301 -0.0855  0.1312 -0.0097
 1259ERGO    R118154  17.058  10.905   6.570  0.0422  0.0176 -0.0376
 1259ERGO    R218155  17.183  11.035   6.779 -0.0547  0.0677 -0.0139
 1259ERGO    R318156  16.932  11.038   6.884 -0.0437 -0.2164  0.0304
 1259ERGO    R418157  17.107  10.992   7.114  0.0760  0.1672  0.0299
 1259ERGO    R518158  16.936  10.871   7.054  0.2265 -0.1115  0.1356
 1259ERGO    C118159  16.827  10.969   7.406  0.1627 -0.0416  0.0970
 1259ERGO    C218160  16.779  11.073   7.703  0.1009 -0.0757 -0.0719
 1260ERGO   ROH18161   1.651   5.030   6.671 -0.0333  0.1087 -0.0427
 1260ERGO    R118162   1.684   5.106   6.942 -0.2160  0.2257 -0.0529
 1260ERGO    R218163   1.470   5.150   7.112 -0.3262 -0.1519 -0.0982
 1260ERGO    R318164   1.599   4.968   7.268  0.0023  0.1212 -0.0350
 1260ERGO    R418165   1.445   5.132   7.456 -0.4425 -0.1665 -0.1060
 1260ERGO    R518166   1.659   5.090   7.464 -0.3370  0.2827 -0.0154
 1260ERGO    C118167   1.551   4.952   7.803 -0.2017  0.0814 -0.0513
 1260ERGO    C218168   1.432   4.956   8.058  0.1436  0.2040 -0.1546
 1261ERGO   ROH18169   2.380  11.533   6.496 -0.1358  0.1451  0.0462
 1261ERGO    R118170   2.330  11.443   6.759 -0.1469  0.0013 -0.0041
 1261ERGO    R218171   2.486  11.519   6.974 -0.1083 -0.1785  0.0324
 1261ERGO    R318172   2.247  11.595   7.079 -0.0768 -0.1651  0.0947
 1261ERGO    R418173   2.401  11.497   7.309 -0.0454 -0.2382  0.0446
 1261ERGO    R518174   2.201  11.432   7.248 -0.0677 -0.1956  0.0686
 1261ERGO    C118175   2.127  11.555   7.602  0.0207 -0.2602  0.1101
 1261ERGO    C218176   2.084  11.508   7.870  0.1480 -0.1333  0.1549
 1262ERGO   ROH18177   2.460  12.481   6.868  0.1798  0.0764  0.0180
 1262ERGO    R118178   2.408  12.588   7.125  0.3090 -0.0873  0.1144
 1262ERGO    R218179   2.163  12.562   7.251  0.2217  0.2303  0.0189
 1262ERGO    R318180   2.313  12.458   7.452 -0.0148 -0.2541 -0.0416
 1262ERGO    R418181   2.087  12.586   7.587  0.1921  0.0487  0.0261
 1262ERGO    R518182   2.298  12.620   7.627  0.2548 -0.3898  0.1122
 1262ERGO    C118183   2.184  12.502   7.971 -0.0472 -0.5117 -0.0267
 1262ERGO    C218184   2.132  12.515   8.231  0.1467  0.0320 -0.0669
 1263ERGO   ROH18185  12.504   2.779   6.769  0.0371 -0.0345 -0.1281
 1263ERGO    R118186  12.637   2.734   7.015  0.2388  0.1779 -0.1968
 1263ERGO    R218187  12.695   2.939   7.192 -0.1081  0.2609 -0.1774
 1263ERGO    R318188  12.562   2.780   7.368  0.2916 -0.0648 -0.1515
 1263ERGO    R418189  12.720   2.962   7.536 -0.2293  0.4419 -0.1784
 1263ERGO    R518190  12.719   2.745   7.546  0.3746  0.4244 -0.1106
 1263ERGO    C118191  12.610   2.827   7.902  0.0753  0.2416 -0.1548
 1263ERGO    C218192  12.590   2.838   8.191  0.0873  0.1226 -0.1847
 1264ERGO   ROH18193   5.784   9.112   6.692  0.0914  0.1690  0.0208
 1264ERGO    R118194   5.670   9.012   6.931  0.1247  0.0052 -0.0283
 1264ERGO    R218195   5.822   8.903   7.134  0.1799  0.0774 -0.0192
 1264ERGO    R318196   5.693   9.087   7.286 -0.0108 -0.0672 -0.0058
 1264ERGO    R418197   5.800   8.894   7.479  0.2277  0.0638 -0.0182
 1264ERGO    R518198   5.593   8.960   7.463  0.1552 -0.1721  0.0073
 1264ERGO    C118199   5.666   9.062   7.823  0.0765 -0.0799 -0.0050
 1264ERGO    C218200   5.602   9.098   8.146  0.0424  0.0334 -0.3450
 1265ERGO   ROH18201   2.167  10.258   6.538 -0.0031 -0.0572 -0.0922
 1265ERGO    R118202   2.024  10.304   6.777  0.0356 -0.0950 -0.0624
 1265ERGO    R218203   2.056  10.146   7.002  0.1611 -0.0558 -0.0545
 1265ERGO    R318204   2.105  10.385   7.123  0.0837 -0.0205 -0.0908
 1265ERGO    R418205   1.995  10.216   7.335  0.1974 -0.0438 -0.0496
 1265ERGO    R518206   1.923  10.413   7.276  0.1015 -0.0802 -0.0577
 1265ERGO    C118207   2.005  10.481   7.642  0.1460 -0.0036 -0.0808
 1265ERGO    C218208   1.985  10.488   8.014  0.3142  0.0804  0.4385
 1266ERGO   ROH18209   6.248  14.380   6.756  0.0079 -0.1443 -0.2285
 1266ERGO    R118210   6.166  14.211   6.968  0.1623 -0.1664 -0.1858
 1266ERGO    R218211   6.338  14.032   7.091  0.3666  0.1180 -0.0469
 1266ERGO    R318212   6.258  14.161   7.317  0.1090  0.1107 -0.1304
 1266ERGO    R418213   6.368  13.908   7.412  0.0734  0.1460 -0.0054
 1266ERGO    R518214   6.171  13.988   7.457  0.0088  0.1003 -0.2065
 1266ERGO    C118215   6.311  13.956   7.811 -0.3391  0.1553 -0.0598
 1266ERGO    C218216   6.348  13.929   8.207  0.0550  0.2079  0.1873
 1267ERGO   ROH18217   8.504  12.282   7.292 -0.0299  0.0335  0.1996
 1267ERGO    R118218   8.571  12.281   7.567  0.0669 -0.0395  0.1769
 1267ERGO    R218219   8.388  12.341   7.765  0.1647  0.0254  0.2528
 1267ERGO    R318220   8.465  12.100   7.865  0.0790 -0.0291  0.1863
 1267ERGO    R418221   8.397  12.261   8.101 -0.0633 -0.1462  0.2192
 1267ERGO    R518222   8.584  12.155   8.065 -0.0507 -0.1410  0.2922
 1267ERGO    C118223   8.473  11.988   8.390 -0.2764 -0.2973  0.1373
 1267ERGO    C218224   8.524  11.879   8.735  0.0468 -0.0781  0.2357
 1268ERGO   ROH18225  15.037   8.775   6.380  0.2164 -0.1500 -0.0466
 1268ERGO    R118226  15.128   8.753   6.647  0.1551 -0.0238 -0.0143
 1268ERGO    R218227  15.230   8.968   6.787  0.0882  0.0529 -0.0776
 1268ERGO    R318228  15.040   8.899   6.969  0.0531  0.0989 -0.0974
 1268ERGO    R418229  15.285   8.931   7.126  0.0835 -0.1464 -0.0982
 1268ERGO    R518230  15.155   8.756   7.123 -0.0370 -0.0535 -0.1719
 1268ERGO    C118231  15.139   8.844   7.494  0.0477 -0.2194 -0.1288
 1268ERGO    C218232  15.272   8.888   7.866  0.1870  0.3041 -0.1907
 1269ERGO   ROH18233  10.390   0.373   7.106  0.1281 -0.1442 -0.0047
 1269ERGO    R118234  10.369   0.316   7.382 -0.1610 -0.0679 -0.0087
 1269ERGO    R218235  10.573   0.368   7.561 -0.1826 -0.4082  0.1157
 1269ERGO    R318236  10.379   0.506   7.693 -0.0302 -0.0365 -0.0300
 1269ERGO    R418237  10.583   0.452   7.896 -0.2855 -0.4690  0.1353
 1269ERGO    R518238  10.371   0.404   7.909 -0.4049 -0.0563 -0.0431
 1269ERGO    C118239  10.407   0.629   8.215 -0.2024 -0.1555  0.0098
 1269ERGO    C218240  10.357   0.638   8.578  0.1439 -0.2580 -0.1858
 1270ERGO   ROH18241  11.171   7.688   6.965  0.0620  0.0540 -0.0734
 1270ERGO    R118242  11.302   7.650   7.213  0.0290 -0.0065 -0.0644
 1270ERGO    R218243  11.398   7.861   7.364  0.0984 -0.0471 -0.0462
 1270ERGO    R318244  11.246   7.748   7.559  0.0379  0.0010 -0.0661
 1270ERGO    R418245  11.485   7.843   7.698  0.0555 -0.0991 -0.0380
 1270ERGO    R518246  11.404   7.641   7.704 -0.0202 -0.0657 -0.0553
 1270ERGO    C118247  11.393   7.727   8.076 -0.0264 -0.0842 -0.0517
 1270ERGO    C218248  11.518   7.712   8.239  0.0268  0.2834 -0.2507
 1271ERGO   ROH18249   5.662   4.001   6.892 -0.5117 -0.0177 -0.0659
 1271ERGO    R118250   5.504   4.049   7.122 -0.3403 -0.0666  0.0628
 1271ERGO    R218251   5.474   3.862   7.323 -0.1132 -0.0709  0.0905
 1271ERGO    R318252   5.560   4.065   7.481 -0.0547 -0.0408  0.0218
 1271ERGO    R418253   5.457   3.863   7.668 -0.2609  0.1033  0.0840
 1271ERGO    R518254   5.399   4.073   7.659 -0.1315  0.1417 -0.0477
 1271ERGO    C118255   5.527   4.055   8.018 -0.2921  0.2329  0.0156
 1271ERGO    C218256   5.495   4.048   8.394 -0.0660  0.0493 -0.1685
 1272ERGO   ROH18257  13.835  13.059  10.940 -0.1842  0.0469 -0.0201
 1272ERGO    R118258  13.721  13.114  10.687 -0.1370  0.0310 -0.0444
 1272ERGO    R218259  13.734  13.364  10.569 -0.1638  0.0363 -0.0308
 1272ERGO    R318260  13.841  13.225  10.361 -0.0861  0.0686 -0.0137
 1272ERGO    R418261  13.645  13.404  10.238  0.0826  0.2177 -0.0787
 1272ERGO    R518262  13.656  13.188  10.214 -0.0059  0.2187 -0.1579
 1272ERGO    C118263  13.693  13.297   9.850  0.2992  0.3538 -0.0907
 1272ERGO    C218264  13.609  13.531   9.572 -0.2566  0.0228 -0.0959
 1273ERGO   ROH18265   3.244  14.320   7.004 -0.0362 -0.0820  0.0374
 1273ERGO    R118266   3.118  14.309   7.258 -0.0168  0.0742  0.0561
 1273ERGO    R218267   3.155  14.098   7.434 -0.2145  0.0468  0.0734
 1273ERGO    R318268   3.224  14.297   7.605  0.0199 -0.0058  0.0418
 1273ERGO    R418269   3.117  14.087   7.777 -0.0759  0.0853  0.0899
 1273ERGO    R518270   3.053  14.295   7.772  0.0901  0.1356  0.1154
 1273ERGO    C118271   3.159  14.267   8.138  0.2248  0.0584  0.0699
 1273ERGO    C218272   3.200  14.371   8.377 -0.2713 -0.1619 -0.1064
 1274ERGO   ROH18273   8.341   1.978   7.006  0.2070  0.2712 -0.1597
 1274ERGO    R118274   8.487   1.903   7.237  0.1934  0.1697 -0.1830
 1274ERGO    R218275   8.668   2.072   7.360  0.0867  0.1685 -0.0164
 1274ERGO    R318276   8.517   2.020   7.580  0.0607 -0.0694 -0.0886
 1274ERGO    R418277   8.755   2.158   7.684 -0.2070  0.3171  0.0262
 1274ERGO    R518278   8.677   1.965   7.750  0.0691  0.1910 -0.0101
 1274ERGO    C118279   8.664   2.158   8.079 -0.4025  0.1805 -0.0168
 1274ERGO    C218280   8.648   2.419   8.384  0.2775 -0.1076 -0.0708
 1275ERGO   ROH18281   8.904  15.966   7.204  0.1241  0.0576 -0.1089
 1275ERGO    R118282   8.735  16.037   7.420  0.1291 -0.0038 -0.0835
 1275ERGO    R218283   8.790  15.966   7.681  0.1703 -0.0238 -0.0929
 1275ERGO    R318284   8.765  16.233   7.725  0.1197 -0.0338 -0.0650
 1275ERGO    R418285   8.704  16.110   7.984  0.0564 -0.0667 -0.1048
 1275ERGO    R518286   8.580  16.252   7.875  0.0737 -0.0733 -0.1224
 1275ERGO    C118287   8.631  16.445   8.200 -0.0574 -0.1009 -0.0855
 1275ERGO    C218288   8.505  16.519   8.506  0.1538  0.0914 -0.1499
 1276ERGO   ROH18289   8.806   9.935   6.916 -0.0346  0.0601 -0.0071
 1276ERGO    R118290   8.711   9.925   7.182  0.0906 -0.1254  0.0327
 1276ERGO    R218291   8.841   9.785   7.382  0.3790  0.0219 -0.0457
 1276ERGO    R318292   8.832  10.024   7.511  0.0903 -0.0089 -0.0021
 1276ERGO    R418293   8.878   9.826   7.723  0.0004 -0.0216  0.0049
 1276ERGO    R518294   8.720   9.976   7.717 -0.0925 -0.1236 -0.1261
 1276ERGO    C118295   8.891  10.075   8.043 -0.4911 -0.0758  0.0752
 1276ERGO    C218296   9.003  10.196   8.281  0.4593  0.2005 -0.1921
 1277ERGO   ROH18297   3.045   2.174   6.774  0.0658  0.0197 -0.0091
 1277ERGO    R118298   3.064   2.082   7.041  0.0356 -0.0441 -0.0292
 1277ERGO    R218299   3.306   2.028   7.162  0.0315  0.1231  0.0491
 1277ERGO    R318300   3.213   2.201   7.351 -0.1874 -0.0115  0.0682
 1277ERGO    R418301   3.411   2.036   7.492  0.0051  0.1981  0.0563
 1277ERGO    R518302   3.204   2.070   7.551 -0.0445 -0.0557  0.0493
 1277ERGO    C118303   3.384   2.203   7.860 -0.2158  0.1155  0.0785
 1277ERGO    C218304   3.522   2.145   8.173 -0.0079  0.1451  0.1357
 1278ERGO   ROH18305  16.583   1.602   6.612 -0.2468  0.3418 -0.1556
 1278ERGO    R118306  16.689   1.554   6.870 -0.2101  0.2390 -0.1898
 1278ERGO    R218307  16.726   1.756   7.056 -0.1893  0.1630 -0.1145
 1278ERGO    R318308  16.576   1.593   7.214 -0.1623  0.0958 -0.1567
 1278ERGO    R418309  16.737   1.750   7.401 -0.2459  0.1351 -0.1124
 1278ERGO    R518310  16.723   1.533   7.393 -0.1706  0.1285 -0.1367
 1278ERGO    C118311  16.604   1.594   7.750 -0.2533  0.0558 -0.1508
 1278ERGO    C218312  16.675   1.555   8.120 -0.1147 -0.0145 -0.0945
 1279ERGO   ROH18313   9.386   4.512   7.107 -0.1676  0.0957  0.1099
 1279ERGO    R118314   9.338   4.424   7.372  0.0368 -0.0379  0.1049
 1279ERGO    R218315   9.528   4.442   7.571  0.0755  0.1863  0.0493
 1279ERGO    R318316   9.331   4.575   7.703 -0.0781 -0.1242  0.1427
 1279ERGO    R418317   9.537   4.526   7.906  0.1352  0.2570  0.0304
 1279ERGO    R518318   9.326   4.473   7.920  0.2254 -0.1024  0.1651
 1279ERGO    C118319   9.358   4.699   8.225  0.0258  0.0067  0.1070
 1279ERGO    C218320   9.412   4.849   8.553  0.0198 -0.2049  0.1032
 1280ERGO   ROH18321   7.350   2.682   6.817 -0.0034 -0.3314  0.0146
 1280ERGO    R118322   7.266   2.749   7.079  0.0772 -0.0956 -0.0180
 1280ERGO    R218323   7.211   2.558   7.271 -0.0593  0.0705  0.1089
 1280ERGO    R318324   7.391   2.700   7.417  0.0712  0.0182  0.0015
 1280ERGO    R418325   7.247   2.538   7.614  0.1044  0.0992  0.0949
 1280ERGO    R518326   7.275   2.754   7.619  0.1926  0.0900  0.0543
 1280ERGO    C118327   7.437   2.660   7.951  0.3224  0.0667 -0.0142
 1280ERGO    C218328   7.399   2.601   8.270 -0.1592  0.0726  0.1567
 1281ERGO   ROH18329   0.273   9.398   6.347  0.1380 -0.2318 -0.1817
 1281ERGO    R118330   0.315   9.276   6.599  0.1326 -0.1980 -0.1644
 1281ERGO    R218331   0.514   9.358   6.773  0.1339 -0.1787 -0.1732
 1281ERGO    R318332   0.307   9.381   6.947  0.1319 -0.1488 -0.1797
 1281ERGO    R418333   0.533   9.292   7.111  0.2003  0.1570 -0.1080
 1281ERGO    R518334   0.337   9.199   7.099  0.2623  0.0152 -0.0053
 1281ERGO    C118335   0.349   9.275   7.472  0.2371  0.3806 -0.0760
 1281ERGO    C218336   0.444   9.389   7.781  0.1589 -0.1080  0.1851
 1282ERGO   ROH18337   1.159   1.985   6.737 -0.0634 -0.0562 -0.1367
 1282ERGO    R118338   1.116   1.927   7.011 -0.0428 -0.0267 -0.1264
 1282ERGO    R218339   1.248   1.724   7.143 -0.0007  0.0110 -0.1013
 1282ERGO    R318340   1.317   1.922   7.315 -0.0280  0.0495 -0.1361
 1282ERGO    R418341   1.245   1.696   7.487 -0.1500  0.1282 -0.0926
 1282ERGO    R518342   1.164   1.898   7.498 -0.1069  0.1467 -0.1920
 1282ERGO    C118343   1.309   1.866   7.849 -0.2627  0.2326 -0.1202
 1282ERGO    C218344   1.251   1.679   8.119 -0.1112  0.0546 -0.1316
 1283ERGO   ROH18345   2.802   9.447   6.501 -0.0101  0.2785  0.0616
 1283ERGO    R118346   2.725   9.510   6.766 -0.1441  0.0937  0.0703
 1283ERGO    R218347   2.600   9.327   6.932  0.0124 -0.1154 -0.0232
 1283ERGO    R318348   2.805   9.389   7.100 -0.0867  0.0487  0.0378
 1283ERGO    R418349   2.573   9.360   7.275 -0.0728 -0.2809 -0.0142
 1283ERGO    R518350   2.707   9.531   7.265 -0.2671 -0.1303  0.0794
 1283ERGO    C118351   2.750   9.437   7.632 -0.2154 -0.2231  0.0482
 1283ERGO    C218352   2.686   9.469   8.009  0.4866  0.1294 -0.0248
 1284ERGO   ROH18353   3.402   4.476   6.752 -0.1161 -0.0213  0.1669
 1284ERGO    R118354   3.480   4.373   7.004 -0.2367 -0.0535  0.1911
 1284ERGO    R218355   3.693   4.475   7.147 -0.1366 -0.2511  0.1769
 1284ERGO    R318356   3.508   4.499   7.344 -0.1175 -0.0151  0.1694
 1284ERGO    R418357   3.765   4.478   7.485 -0.1210 -0.2122  0.1735
 1284ERGO    R518358   3.588   4.355   7.518 -0.2437 -0.0414  0.2136
 1284ERGO    C118359   3.633   4.503   7.867 -0.0940  0.0321  0.1643
 1284ERGO    C218360   3.558   4.504   8.250  0.1172 -0.0936 -0.0613
 1285ERGO   ROH18361   2.009  14.291   6.819  0.2068 -0.0464  0.0867
 1285ERGO    R118362   2.090  14.337   7.087  0.0693 -0.0018  0.1224
 1285ERGO    R218363   2.069  14.585   7.208 -0.0808  0.0003  0.1046
 1285ERGO    R318364   1.931  14.445   7.396 -0.1136 -0.0467  0.0438
 1285ERGO    R418365   2.092  14.634   7.549 -0.1005 -0.1338  0.1249
 1285ERGO    R518366   2.085  14.419   7.576 -0.1353 -0.1382  0.0448
 1285ERGO    C118367   1.977  14.532   7.924 -0.1428 -0.2561  0.0798
 1285ERGO    C218368   2.086  14.446   8.251  0.1335  0.1402 -0.0416
 1286ERGO   ROH18369  16.546  14.815   6.395 -0.0179  0.2820  0.0463
 1286ERGO    R118370  16.501  14.926   6.651  0.2524  0.2258  0.1190
 1286ERGO    R218371  16.357  14.795   6.847  0.1016  0.3645  0.0895
 1286ERGO    R318372  16.581  14.838   6.995  0.2223 -0.0822  0.0528
 1286ERGO    R418373  16.373  14.771   7.191  0.0058  0.6253  0.1160
 1286ERGO    R518374  16.501  14.947   7.193  0.4802  0.3147 -0.0425
 1286ERGO    C118375  16.592  14.796   7.531  0.0634  0.3578  0.0969
 1286ERGO    C218376  16.552  14.811   7.838  0.3934 -0.0997 -0.0192
 1287ERGO   ROH18377  10.776   2.483   6.955  0.1919  0.3080 -0.0749
 1287ERGO    R118378  10.835   2.573   7.216  0.0713  0.2997 -0.0426
 1287ERGO    R218379  10.645   2.688   7.381 -0.0417  0.1694 -0.0700
 1287ERGO    R318380  10.726   2.494   7.554  0.0210  0.1811 -0.0880
 1287ERGO    R418381  10.670   2.727   7.724  0.0944  0.1818 -0.0816
 1287ERGO    R518382  10.854   2.611   7.719  0.0848  0.1815 -0.1448
 1287ERGO    C118383  10.759   2.568   8.086  0.2326  0.2000 -0.1052
 1287ERGO    C218384  10.761   2.540   8.413  0.4128 -0.1773 -0.1285
 1288ERGO   ROH18385   6.016  13.724   7.178 -0.3373 -0.1603  0.0056
 1288ERGO    R118386   5.953  13.582   7.414 -0.1953 -0.0876  0.0869
 1288ERGO    R218387   6.143  13.518   7.605 -0.1122  0.1060  0.0617
 1288ERGO    R318388   5.970  13.644   7.773 -0.1361  0.0817  0.0578
 1288ERGO    R418389   6.138  13.480   7.948 -0.1245  0.0781  0.0596
 1288ERGO    R518390   5.920  13.480   7.940 -0.1306  0.0590  0.0443
 1288ERGO    C118391   5.972  13.576   8.306 -0.1540  0.0387  0.0547
 1288ERGO    C218392   6.207  13.556   8.612 -0.0450  0.1165  0.1104
 1289ERGO   ROH18393  10.574   9.044   6.645  0.2770  0.1181  0.1536
 1289ERGO    R118394  10.437   9.037   6.893  0.1694  0.0354  0.0926
 1289ERGO    R218395  10.479   8.838   7.080  0.0879 -0.0272  0.0442
 1289ERGO    R318396  10.528   9.049   7.245  0.0167 -0.0821  0.1368
 1289ERGO    R418397  10.530   8.814   7.421 -0.0151 -0.1461  0.0522
 1289ERGO    R518398  10.411   8.995   7.447 -0.0406 -0.1670  0.0815
 1289ERGO    C118399  10.606   8.997   7.774 -0.1418 -0.2668  0.1438
 1289ERGO    C218400  10.705   8.991   8.157 -0.0334 -0.0528  0.2836
 1290ERGO   ROH18401  15.215   3.112   6.891 -0.0128 -0.1200  0.1141
 1290ERGO    R118402  15.207   3.294   7.108  0.0472 -0.0868  0.0884
 1290ERGO    R218403  14.982   3.328   7.264  0.0940 -0.0667  0.1467
 1290ERGO    R318404  15.154   3.273   7.467  0.1518 -0.0297  0.1083
 1290ERGO    R418405  14.901   3.341   7.600  0.1352 -0.1665  0.1611
 1290ERGO    R518406  15.096   3.431   7.638  0.1047 -0.0851  0.1477
 1290ERGO    C118407  15.016   3.297   7.986  0.2134 -0.1899  0.1334
 1290ERGO    C218408  14.961   3.364   8.341  0.2027 -0.3385 -0.3532
 1291ERGO   ROH18409  10.751   7.870   6.789  0.2537  0.2411  0.0145
 1291ERGO    R118410  10.624   7.801   7.033  0.2748  0.0774 -0.0180
 1291ERGO    R218411  10.763   7.703   7.250  0.3327  0.1500 -0.0121
 1291ERGO    R318412  10.643   7.909   7.380  0.1320  0.0241  0.0045
 1291ERGO    R418413  10.731   7.728   7.593  0.0264 -0.0358 -0.0246
 1291ERGO    R518414  10.529   7.806   7.563  0.0240 -0.1144 -0.1474
 1291ERGO    C118415  10.599   7.936   7.915 -0.3403 -0.2621 -0.0163
 1291ERGO    C218416  10.607   7.876   8.321  0.0883 -0.0086  0.1842
 1292ERGO   ROH18417  15.886   3.164   6.733 -0.0884  0.0571 -0.0932
 1292ERGO    R118418  15.851   3.292   6.983 -0.1312  0.0982 -0.1204
 1292ERGO    R218419  15.669   3.204   7.171 -0.0883  0.0656 -0.0953
 1292ERGO    R318420  15.887   3.202   7.334 -0.0814  0.1904 -0.1011
 1292ERGO    R418421  15.658   3.209   7.517 -0.0877 -0.0859 -0.0925
 1292ERGO    R518422  15.827   3.346   7.515 -0.2064  0.0653 -0.0402
 1292ERGO    C118423  15.856   3.209   7.870 -0.0807 -0.0569 -0.0963
 1292ERGO    C218424  15.860   3.152   8.260  0.1444 -0.1422  0.1075
 1293ERGO   ROH18425   6.502   1.982   6.773  0.0125 -0.0134  0.0185
 1293ERGO    R118426   6.309   2.103   6.940 -0.0625 -0.0017 -0.0714
 1293ERGO    R218427   6.163   1.961   7.128 -0.0766  0.0226 -0.0423
 1293ERGO    R318428   6.260   2.149   7.298 -0.1510  0.1118 -0.1019
 1293ERGO    R418429   6.046   2.018   7.448 -0.0050  0.0267 -0.0189
 1293ERGO    R518430   6.067   2.231   7.413 -0.1505  0.0174 -0.0592
 1293ERGO    C118431   6.070   2.228   7.794 -0.0331  0.1127 -0.0612
 1293ERGO    C218432   6.085   2.158   8.051  0.0115  0.2041 -0.0110
 1294ERGO   ROH18433   8.729   8.475   6.839 -0.1007  0.0908  0.0138
 1294ERGO    R118434   8.707   8.624   7.079  0.1255  0.1307  0.0142
 1294ERGO    R218435   8.564   8.533   7.298 -0.1359  0.4020 -0.0287
 1294ERGO    R318436   8.799   8.578   7.428 -0.0712 -0.0805  0.0394
 1294ERGO    R418437   8.594   8.591   7.638 -0.0764  0.1280  0.0142
 1294ERGO    R518438   8.744   8.743   7.594  0.1884 -0.0956  0.1398
 1294ERGO    C118439   8.830   8.667   7.957  0.0190 -0.4843  0.1029
 1294ERGO    C218440   8.638   8.630   8.211  0.0422  0.1072 -0.0119
 1295ERGO   ROH18441  10.128  11.670   6.720  0.2312  0.3727  0.0281
 1295ERGO    R118442  10.174  11.779   6.977  0.0582  0.1829  0.1433
 1295ERGO    R218443   9.985  11.771   7.179  0.0026 -0.1691  0.0856
 1295ERGO    R318444  10.186  11.654   7.319  0.0666 -0.1188  0.0359
 1295ERGO    R418445  10.017  11.778   7.523  0.0798 -0.1733  0.0786
 1295ERGO    R518446  10.231  11.806   7.498  0.0659 -0.1137  0.0310
 1295ERGO    C118447  10.224  11.671   7.854  0.1850 -0.1285  0.0280
 1295ERGO    C218448  10.230  11.606   8.207 -0.0169 -0.1109 -0.0998
 1296ERGO   ROH18449   0.875   6.171   6.523  0.3444  0.2470  0.0920
 1296ERGO    R118450   0.755   6.080   6.763  0.1836  0.1300 -0.0292
 1296ERGO    R218451   0.901   5.981   6.975  0.0514  0.0946  0.0548
 1296ERGO    R318452   0.766   6.171   7.115 -0.1078  0.0134  0.0115
 1296ERGO    R418453   0.865   5.984   7.318  0.3168  0.3167  0.0838
 1296ERGO    R518454   0.659   6.049   7.291  0.2031  0.0004  0.1935
 1296ERGO    C118455   0.717   6.163   7.650  0.3218  0.3698  0.0601
 1296ERGO    C218456   0.775   6.142   7.950  0.0158  0.1630  0.0495
 1297ERGO   ROH18457  13.580   1.598   6.761 -0.0019  0.0973 -0.1543
 1297ERGO    R118458  13.628   1.439   6.990 -0.0642 -0.0313 -0.2289
 1297ERGO    R218459  13.870   1.441   7.125 -0.1100 -0.0855 -0.1456
 1297ERGO    R318460  13.713   1.497   7.339 -0.1873 -0.2252 -0.1642
 1297ERGO    R418461  13.942   1.354   7.451 -0.0198  0.0535 -0.1280
 1297ERGO    R518462  13.732   1.305   7.480  0.0298 -0.1832 -0.1296
 1297ERGO    C118463  13.837   1.356   7.843 -0.0399  0.0033 -0.1352
 1297ERGO    C218464  13.824   1.287   8.258 -0.1164  0.1762 -0.1200
 1298ERGO   ROH18465  15.719  11.283   6.525  0.0090 -0.2310 -0.0882
 1298ERGO    R118466  15.587  11.323   6.772  0.0268 -0.2617 -0.0747
 1298ERGO    R218467  15.595  11.137   6.977  0.3454 -0.1265  0.0347
 1298ERGO    R318468  15.684  11.349   7.122  0.0949  0.0873 -0.1143
 1298ERGO    R418469  15.550  11.177   7.317  0.5371 -0.0935  0.0579
 1298ERGO    R518470  15.511  11.388   7.283  0.1397 -0.1610  0.0065
 1298ERGO    C118471  15.607  11.399   7.651  0.4136  0.1264 -0.0683
 1298ERGO    C218472  15.657  11.558   7.854 -0.0441 -0.3284 -0.1701
 1299ERGO   ROH18473  14.713  11.867   6.593 -0.4318  0.1638  0.1080
 1299ERGO    R118474  14.792  12.028   6.812 -0.0414  0.0392  0.0654
 1299ERGO    R218475  14.612  12.132   6.993  0.2123  0.4368  0.1004
 1299ERGO    R318476  14.773  12.009   7.175  0.0169  0.1300  0.0739
 1299ERGO    R418477  14.565  12.137   7.336  0.1679  0.3586  0.0960
 1299ERGO    R518478  14.780  12.160   7.360  0.2021  0.0461  0.1391
 1299ERGO    C118479  14.688  12.025   7.705 -0.0414  0.0251  0.0685
 1299ERGO    C218480  14.691  12.267   7.993 -0.1053  0.1582  0.0428
 1300ERGO   ROH18481  10.855   8.864  10.869  0.0238 -0.0625  0.1925
 1300ERGO    R118482  10.759   8.994  10.637  0.1728 -0.0012  0.1678
 1300ERGO    R218483  10.906   9.008  10.404  0.1568 -0.2846  0.1508
 1300ERGO    R318484  10.682   8.900  10.293 -0.0162  0.0018  0.2053
 1300ERGO    R418485  10.849   8.978  10.064  0.0785 -0.2668  0.1600
 1300ERGO    R518486  10.641   9.035  10.099  0.1496  0.0340  0.1816
 1300ERGO    C118487  10.606   8.859   9.763 -0.1295  0.0123  0.2165
 1300ERGO    C218488  10.722   8.952   9.452  0.3708  0.0309 -0.2808
 1301ERGO   ROH18489   7.233   5.481   7.007 -0.1864  0.2700 -0.0475
 1301ERGO    R118490   7.294   5.400   7.272 -0.2841  0.0255 -0.0987
 1301ERGO    R218491   7.392   5.575   7.462 -0.0678 -0.2187  0.0061
 1301ERGO    R318492   7.180   5.485   7.607 -0.1758 -0.0496 -0.0388
 1301ERGO    R418493   7.374   5.573   7.807 -0.0468 -0.3668  0.0084
 1301ERGO    R518494   7.279   5.378   7.796 -0.2800 -0.2648 -0.0919
 1301ERGO    C118495   7.166   5.487   8.144 -0.1360 -0.2943 -0.0324
 1301ERGO    C218496   7.156   5.403   8.385  0.0823  0.3155 -0.2774
 1302ERGO   ROH18497  15.092   2.239   6.842 -0.1314  0.2143 -0.0690
 1302ERGO    R118498  15.049   2.351   7.098 -0.0823  0.0419  0.0154
 1302ERGO    R218499  14.810   2.323   7.234 -0.0803  0.0155  0.0079
 1302ERGO    R318500  14.971   2.226   7.431 -0.1000 -0.1748 -0.0669
 1302ERGO    R418501  14.745   2.349   7.572  0.1152  0.1239  0.0391
 1302ERGO    R518502  14.957   2.391   7.605  0.1907 -0.1387 -0.0689
 1302ERGO    C118503  14.857   2.274   7.954  0.2105  0.0083 -0.0129
 1302ERGO    C218504  14.869   2.185   8.414 -0.0458 -0.3332  0.1953
 1303ERGO   ROH18505   2.985   4.535   6.422  0.0818 -0.1205  0.0442
 1303ERGO    R118506   3.002   4.576   6.701  0.0444 -0.1869  0.0565
 1303ERGO    R218507   2.806   4.492   6.877 -0.0339 -0.1269 -0.0024
 1303ERGO    R318508   3.015   4.368   6.999 -0.1200 -0.2551  0.0171
 1303ERGO    R418509   2.879   4.513   7.214 -0.0749 -0.2041  0.0118
 1303ERGO    R518510   3.090   4.525   7.163 -0.0592 -0.3138  0.0463
 1303ERGO    C118511   3.118   4.409   7.525 -0.1796 -0.3694  0.0383
 1303ERGO    C218512   3.151   4.594   7.822  0.2128  0.3492 -0.1125
 1304ERGO   ROH18513   9.949   6.594   7.049  0.0533 -0.2608 -0.1772
 1304ERGO    R118514  10.008   6.539   7.320  0.1204 -0.1672 -0.1716
 1304ERGO    R218515  10.167   6.704   7.475 -0.0246  0.0079 -0.2012
 1304ERGO    R318516   9.952   6.701   7.641 -0.0170 -0.1716 -0.1940
 1304ERGO    R418517  10.183   6.667   7.818  0.0157  0.0734 -0.1964
 1304ERGO    R518518  10.008   6.538   7.808  0.1390 -0.0930 -0.1719
 1304ERGO    C118519   9.991   6.643   8.174  0.0463 -0.0570 -0.1868
 1304ERGO    C218520  10.093   6.555   8.478 -0.0978 -0.0670 -0.0291
 1305ERGO   ROH18521   3.806   2.863   6.806  0.0783 -0.1410  0.0448
 1305ERGO    R118522   3.856   2.846   7.084 -0.1483 -0.1747  0.0868
 1305ERGO    R218523   4.029   3.017   7.215 -0.0138 -0.3810  0.1954
 1305ERGO    R318524   3.813   3.062   7.373 -0.0810 -0.0792  0.0246
 1305ERGO    R418525   4.042   3.086   7.553 -0.1865 -0.3000  0.1853
 1305ERGO    R518526   3.869   2.958   7.582 -0.3595 -0.0855  0.0969
 1305ERGO    C118527   3.847   3.169   7.899 -0.3502  0.0304  0.0192
 1305ERGO    C218528   3.793   3.330   8.319 -0.3415 -0.2679 -0.1645
 1306ERGO   ROH18529   9.336  13.848   7.002  0.0629 -0.0700  0.0479
 1306ERGO    R118530   9.287  13.902   7.275  0.0749 -0.0584  0.0475
 1306ERGO    R218531   9.201  13.708   7.453  0.1601 -0.0673  0.0749
 1306ERGO    R318532   9.419  13.787   7.595  0.1470  0.0192  0.0473
 1306ERGO    R418533   9.222  13.709   7.798  0.2057 -0.0967  0.0724
 1306ERGO    R518534   9.328  13.900   7.785  0.1183 -0.0419  0.0742
 1306ERGO    C118535   9.439  13.785   8.132  0.2200 -0.0326  0.0450
 1306ERGO    C218536   9.351  13.810   8.489  0.3179  0.0399 -0.2554
 1307ERGO   ROH18537   4.001   1.622   6.712  0.0675 -0.3856  0.0907
 1307ERGO    R118538   4.189   1.609   6.924  0.1661 -0.1289  0.0218
 1307ERGO    R218539   4.220   1.814   7.107 -0.0586 -0.0907  0.0184
 1307ERGO    R318540   4.178   1.615   7.287  0.2918 -0.1635  0.0271
 1307ERGO    R418541   4.239   1.850   7.450 -0.2190 -0.0085  0.0195
 1307ERGO    R518542   4.338   1.656   7.461  0.1720  0.1801  0.0648
 1307ERGO    C118543   4.211   1.685   7.819  0.0166 -0.0290  0.0282
 1307ERGO    C218544   4.219   1.601   8.218 -0.1823  0.0318 -0.2134
 1308ERGO   ROH18545   3.433  12.683   6.951  0.0815  0.1491 -0.0881
 1308ERGO    R118546   3.439  12.545   7.198  0.1128  0.0965 -0.1169
 1308ERGO    R218547   3.501  12.669   7.436  0.1761  0.0417 -0.0973
 1308ERGO    R318548   3.264  12.563   7.516  0.1763  0.0564 -0.0814
 1308ERGO    R418549   3.408  12.619   7.765  0.2156 -0.0276 -0.0972
 1308ERGO    R518550   3.320  12.429   7.706  0.1817  0.0047 -0.1255
 1308ERGO    C118551   3.130  12.491   8.032  0.2388 -0.0541 -0.0823
 1308ERGO    C218552   3.130  12.398   8.341 -0.0432 -0.1377  0.1097
 1309ERGO   ROH18553   4.784   6.155   6.847  0.0422  0.0745 -0.0709
 1309ERGO    R118554   4.703   6.325   7.057 -0.1333 -0.0490 -0.0349
 1309ERGO    R218555   4.543   6.239   7.266 -0.0512 -0.2571 -0.0474
 1309ERGO    R318556   4.745   6.338   7.418 -0.1446 -0.0849 -0.0341
 1309ERGO    R418557   4.548   6.240   7.611 -0.0688 -0.2361 -0.0480
 1309ERGO    R518558   4.635   6.439   7.605 -0.2350 -0.1694 -0.0470
 1309ERGO    C118559   4.740   6.333   7.956 -0.1668 -0.0623 -0.0358
 1309ERGO    C218560   4.644   6.254   8.347  0.1274  0.2141 -0.0907
 1310ERGO   ROH18561   0.486  15.739   6.551 -0.1624  0.0704  0.0826
 1310ERGO    R118562   0.428  15.875   6.793 -0.0711  0.1162  0.0778
 1310ERGO    R218563   0.223  15.798   6.962 -0.0339  0.1771  0.1439
 1310ERGO    R318564   0.422  15.793   7.147  0.0143  0.1734  0.0942
 1310ERGO    R418565   0.177  15.742   7.300  0.0506  0.1313  0.1491
 1310ERGO    R518566   0.326  15.896   7.341  0.0489  0.1433  0.1311
 1310ERGO    C118567   0.337  15.704   7.670  0.1450  0.1012  0.1055
 1310ERGO    C218568   0.329  15.715   8.037  0.3890  0.1536  0.0392
 1311ERGO   ROH18569  13.749   5.999  10.947  0.1766 -0.0987 -0.0292
 1311ERGO    R118570  13.706   5.926  10.677  0.2609 -0.1036 -0.0414
 1311ERGO    R218571  13.650   6.112  10.480 -0.0381 -0.1391  0.0058
 1311ERGO    R318572  13.863   5.996  10.356  0.1293  0.2075 -0.0418
 1311ERGO    R418573  13.694   6.095  10.137 -0.0859 -0.0608 -0.0043
 1311ERGO    R518574  13.769   5.892  10.162  0.2539  0.0551 -0.0229
 1311ERGO    C118575  13.919   5.978   9.822  0.0434  0.3101 -0.0547
 1311ERGO    C218576  13.827   6.054   9.520  0.0956  0.1841 -0.1534
 1312ERGO   ROH18577  13.252  10.475   6.262 -0.2279 -0.0461  0.0255
 1312ERGO    R118578  13.228  10.552   6.533 -0.1857 -0.0197  0.0219
 1312ERGO    R218579  13.004  10.493   6.685 -0.1517 -0.0260  0.0692
 1312ERGO    R318580  13.187  10.384   6.854 -0.1097  0.0103  0.0477
 1312ERGO    R418581  13.018  10.550   7.026 -0.0901  0.0200  0.0592
 1312ERGO    R518582  13.236  10.558   7.011 -0.0929  0.0353  0.0155
 1312ERGO    C118583  13.198  10.480   7.382 -0.0148  0.0810  0.0331
 1312ERGO    C218584  13.156  10.480   7.734  0.0374  0.0788  0.2154
 1313ERGO   ROH18585   1.749   9.258   6.465 -0.0664 -0.1374  0.0643
 1313ERGO    R118586   1.622   9.331   6.707 -0.1435 -0.2649  0.0641
 1313ERGO    R218587   1.553   9.146   6.901  0.1158 -0.3310  0.1036
 1313ERGO    R318588   1.698   9.309   7.062 -0.0792 -0.1098  0.0593
 1313ERGO    R418589   1.571   9.118   7.245  0.0532 -0.1267  0.1235
 1313ERGO    R518590   1.563   9.336   7.258 -0.1523 -0.1300  0.0073
 1313ERGO    C118591   1.718   9.256   7.597 -0.1664  0.1999  0.0934
 1313ERGO    C218592   1.879   9.428   7.873  0.0474  0.1046  0.0099
 1314ERGO   ROH18593  10.299  13.224   7.278 -0.0296 -0.0788  0.0366
 1314ERGO    R118594  10.341  13.260   7.556 -0.0319  0.0253  0.0229
 1314ERGO    R218595  10.146  13.361   7.724 -0.1392 -0.1996  0.0328
 1314ERGO    R318596  10.194  13.134   7.864  0.1819 -0.1145  0.0704
 1314ERGO    R418597  10.108  13.328   8.065 -0.3326 -0.2570  0.0078
 1314ERGO    R518598  10.291  13.209   8.069 -0.1059  0.0767  0.1438
 1314ERGO    C118599  10.132  13.094   8.396 -0.1437 -0.2106  0.0286
 1314ERGO    C218600   9.939  13.074   8.664 -0.2950 -0.0070  0.0635
 1315ERGO   ROH18601  11.447   8.758   6.861  0.2833  0.1253 -0.1194
 1315ERGO    R118602  11.551   8.877   7.096  0.2550  0.1229 -0.1052
 1315ERGO    R218603  11.389   8.983   7.294  0.2308  0.1877 -0.1561
 1315ERGO    R318604  11.532   8.816   7.454  0.1461  0.1650 -0.1039
 1315ERGO    R418605  11.430   9.022   7.635  0.1510  0.2013 -0.1481
 1315ERGO    R518606  11.638   8.961   7.612  0.1399  0.1483 -0.0870
 1315ERGO    C118607  11.589   8.889   7.983  0.0250  0.1879 -0.0945
 1315ERGO    C218608  11.737   8.741   8.326  0.0234 -0.0518 -0.0239
 1316ERGO   ROH18609  14.939   0.448   6.794  0.0757  0.0200 -0.0566
 1316ERGO    R118610  15.045   0.352   7.038  0.3317  0.2721 -0.0625
 1316ERGO    R218611  15.134   0.521   7.239 -0.0180  0.4985 -0.0843
 1316ERGO    R318612  14.960   0.378   7.391  0.3142  0.1079 -0.0553
 1316ERGO    R418613  15.124   0.525   7.584 -0.0446  0.5561 -0.0857
 1316ERGO    R518614  15.089   0.310   7.581  0.4745  0.4621 -0.0333
 1316ERGO    C118615  14.955   0.392   7.928  0.2518  0.2228 -0.0593
 1316ERGO    C218616  14.885   0.381   8.133 -0.4587 -0.1643  0.2171
 1317ERGO   ROH18617   2.633  17.055   6.764 -0.0372 -0.3354  0.0479
 1317ERGO    R118618   2.621  17.133   7.036  0.0813 -0.2777  0.0376
 1317ERGO    R218619   2.389  17.117   7.186  0.0654  0.0439  0.0615
 1317ERGO    R318620   2.547  16.973   7.354 -0.1054 -0.1352  0.0650
 1317ERGO    R418621   2.399  17.155   7.529  0.3735  0.2990  0.0283
 1317ERGO    R518622   2.615  17.130   7.521  0.3206 -0.1350 -0.1024
 1317ERGO    C118623   2.552  17.042   7.887  0.3926  0.2794  0.0123
 1317ERGO    C218624   2.455  17.107   8.184  0.2150 -0.0985 -0.0453
 1318ERGO   ROH18625   1.718   5.899   6.450 -0.0803  0.1214 -0.1104
 1318ERGO    R118626   1.836   6.008   6.683  0.0455  0.0614 -0.1452
 1318ERGO    R218627   1.700   6.179   6.852  0.2230  0.2276 -0.1696
 1318ERGO    R318628   1.772   5.997   7.041  0.0690  0.2005 -0.1360
 1318ERGO    R418629   1.684   6.232   7.193  0.4003  0.3654 -0.1813
 1318ERGO    R518630   1.874   6.128   7.214  0.2871  0.1396 -0.2138
 1318ERGO    C118631   1.741   6.093   7.569  0.3590  0.4202 -0.1564
 1318ERGO    C218632   1.644   5.995   7.940  0.0679  0.4315  0.0526
 1319ERGO   ROH18633   9.969   5.312   7.069  0.0111  0.1199  0.2423
 1319ERGO    R118634  10.038   5.170   7.304  0.1235  0.0945  0.1957
 1319ERGO    R218635  10.261   5.230   7.454  0.1060  0.1884  0.1881
 1319ERGO    R318636  10.081   5.248   7.657  0.1157  0.0235  0.2121
 1319ERGO    R418637  10.345   5.259   7.788  0.1221  0.1238  0.1892
 1319ERGO    R518638  10.181   5.122   7.835  0.2015  0.0193  0.1606
 1319ERGO    C118639  10.225   5.292   8.173  0.1404 -0.0685  0.2125
 1319ERGO    C218640  10.251   5.264   8.630 -0.0982  0.0490  0.4716
 1320ERGO   ROH18641  14.003   8.167  10.542  0.2057  0.0948 -0.0098
 1320ERGO    R118642  13.833   8.105  10.325  0.0211  0.1841  0.1076
 1320ERGO    R218643  13.699   8.298  10.181  0.3283  0.2901 -0.0421
 1320ERGO    R318644  13.819   8.179   9.969  0.0486 -0.1497  0.0334
 1320ERGO    R418645  13.613   8.350   9.850  0.4045  0.2276 -0.0721
 1320ERGO    R518646  13.640   8.137   9.815 -0.0708  0.1246  0.0894
 1320ERGO    C118647  13.676   8.268   9.459  0.1863 -0.2216 -0.0187
 1320ERGO    C218648  13.629   8.172   9.274 -0.0842  0.0857  0.1566
 1321ERGO   ROH18649   1.054   7.313   6.497 -0.0111 -0.0196  0.0758
 1321ERGO    R118650   0.923   7.203   6.723 -0.0322  0.0067  0.0775
 1321ERGO    R218651   1.055   7.050   6.912 -0.0631 -0.0332  0.0730
 1321ERGO    R318652   0.952   7.232   7.085 -0.0119 -0.0081  0.0758
 1321ERGO    R418653   1.045   7.014   7.255 -0.1065 -0.0444  0.0699
 1321ERGO    R518654   0.846   7.101   7.254 -0.0715  0.0246  0.0594
 1321ERGO    C118655   0.942   7.165   7.618 -0.0837 -0.0274  0.0707
 1321ERGO    C218656   0.999   7.184   8.001 -0.0258 -0.5071 -0.1845
 1322ERGO   ROH18657   2.529  13.345   6.729  0.0531 -0.3210  0.0941
 1322ERGO    R118658   2.429  13.513   6.934  0.2137 -0.1327  0.0206
 1322ERGO    R218659   2.241  13.427   7.118  0.0584  0.1599 -0.0039
 1322ERGO    R318660   2.427  13.511   7.298  0.1185 -0.0216  0.0227
 1322ERGO    R418661   2.170  13.540   7.437  0.1184  0.1678  0.0077
 1322ERGO    R518662   2.321  13.694   7.411  0.2540  0.0522  0.0418
 1322ERGO    C118663   2.302  13.684   7.791  0.2098  0.0018  0.0394
 1322ERGO    C218664   2.249  13.684   8.019 -0.1950 -0.0559 -0.0019
 1323ERGO   ROH18665   5.587  15.970   6.802 -0.1296  0.1153 -0.0293
 1323ERGO    R118666   5.511  15.854   7.049  0.0302  0.1409  0.0327
 1323ERGO    R218667   5.692  15.734   7.219  0.1687  0.3361  0.0183
 1323ERGO    R318668   5.586  15.906   7.401  0.0929  0.3149 -0.0042
 1323ERGO    R418669   5.712  15.696   7.562 -0.0017  0.2647  0.0220
 1323ERGO    R518670   5.505  15.765   7.577 -0.0087  0.2831 -0.0696
 1323ERGO    C118671   5.624  15.836   7.932 -0.1721  0.2032  0.0029
 1323ERGO    C218672   5.782  15.706   8.251  0.3311  0.0419  0.1474
 1324ERGO   ROH18673   0.821   3.337   6.263  0.0623 -0.0009 -0.0011
 1324ERGO    R118674   0.775   3.284   6.537  0.0925 -0.0668 -0.0082
 1324ERGO    R218675   0.959   3.155   6.697  0.2942  0.2704  0.0426
 1324ERGO    R318676   0.930   3.375   6.853 -0.1373  0.2356  0.0224
 1324ERGO    R418677   0.973   3.154   7.042  0.0591  0.2976  0.0536
 1324ERGO    R518678   0.808   3.296   7.044 -0.1553  0.0578 -0.0603
 1324ERGO    C118679   0.954   3.361   7.390 -0.4828  0.2807  0.0411
 1324ERGO    C218680   1.012   3.266   7.667  0.0856 -0.0036 -0.3065
 1325ERGO   ROH18681   5.882  17.135   6.975 -0.2122  0.1527 -0.1645
 1325ERGO    R118682   5.875  17.021   7.234 -0.0700  0.2069 -0.1368
 1325ERGO    R218683   6.036  17.111   7.440 -0.1319  0.4130 -0.1789
 1325ERGO    R318684   5.799  17.136   7.571 -0.1415  0.2125 -0.1543
 1325ERGO    R418685   6.001  17.135   7.783 -0.1160  0.3695 -0.1738
 1325ERGO    R518686   5.826  17.005   7.770 -0.0128  0.2247 -0.1619
 1325ERGO    C118687   5.758  17.172   8.106 -0.1158  0.1558 -0.1477
 1325ERGO    C218688   5.731  17.391   8.425  0.2488 -0.2830  0.2950
 1326ERGO   ROH18689  14.434  15.361   6.375  0.0689  0.0405  0.0265
 1326ERGO    R118690  14.291  15.352   6.619  0.0094 -0.0286 -0.0116
 1326ERGO    R218691  14.309  15.139   6.794  0.0342 -0.0361 -0.0303
 1326ERGO    R318692  14.374  15.333   6.973 -0.0779 -0.0335  0.0100
 1326ERGO    R418693  14.268  15.114   7.136  0.2174 -0.2101 -0.0183
 1326ERGO    R518694  14.202  15.321   7.139  0.0054 -0.2725  0.0884
 1326ERGO    C118695  14.305  15.281   7.504  0.2188 -0.3091  0.0265
 1326ERGO    C218696  14.234  15.321   7.857  0.0535  0.0120  0.1320
 1327ERGO   ROH18697   2.669  15.757   6.817 -0.0845  0.0286  0.0319
 1327ERGO    R118698   2.763  15.808   7.079 -0.0316 -0.0743  0.0327
 1327ERGO    R218699   2.613  15.755   7.304 -0.0214 -0.0732  0.0343
 1327ERGO    R318700   2.833  15.613   7.377 -0.0668 -0.1752 -0.0230
 1327ERGO    R418701   2.744  15.744   7.624  0.1215 -0.0257 -0.0211
 1327ERGO    R518702   2.944  15.752   7.537  0.0907 -0.1731 -0.1254
 1327ERGO    C118703   3.026  15.604   7.879  0.1621 -0.0941 -0.1072
 1327ERGO    C218704   3.079  15.639   8.339  0.1406  0.0949 -0.1128
 1328ERGO   ROH18705   9.778  12.735   6.864  0.1036  0.1174  0.0221
 1328ERGO    R118706   9.725  12.535   7.057  0.4034  0.1227  0.1134
 1328ERGO    R218707   9.838  12.538   7.309  0.1503  0.5946  0.2321
 1328ERGO    R318708   9.579  12.520   7.390  0.0940  0.0163 -0.0232
 1328ERGO    R418709   9.737  12.440   7.625  0.0969  0.9148  0.3184
 1328ERGO    R518710   9.575  12.327   7.532  0.5037  0.2597  0.3454
 1328ERGO    C118711   9.435  12.366   7.885  0.0129  0.5581  0.1290
 1328ERGO    C218712   9.480  12.239   8.236 -0.0425 -0.3532  0.1329
 1329ERGO   ROH18713   7.780  14.127   7.082 -0.2129 -0.0294 -0.0380
 1329ERGO    R118714   7.899  14.013   7.312 -0.1818 -0.0480 -0.0632
 1329ERGO    R218715   7.977  14.164   7.530 -0.0758 -0.0553 -0.0960
 1329ERGO    R318716   7.821  13.990   7.667 -0.0888  0.0011 -0.0387
 1329ERGO    R418717   7.938  14.161   7.873  0.0493 -0.0359 -0.0814
 1329ERGO    R518718   7.944  13.944   7.867 -0.0303 -0.0398 -0.0824
 1329ERGO    C118719   7.768  13.996   8.202  0.1099  0.0284 -0.0190
 1329ERGO    C218720   7.611  14.008   8.475  0.1264 -0.1724 -0.2005
 1330ERGO   ROH18721   7.620   4.516   6.962  0.2385 -0.0189  0.0698
 1330ERGO    R118722   7.769   4.469   7.198  0.1262  0.0225  0.1496
 1330ERGO    R218723   7.833   4.670   7.377  0.0395  0.0528  0.1441
 1330ERGO    R318724   7.715   4.502   7.556 -0.0441  0.0843  0.1194
 1330ERGO    R418725   7.848   4.704   7.721  0.0446  0.0064  0.1490
 1330ERGO    R518726   7.871   4.488   7.737 -0.0545 -0.0083  0.1236
 1330ERGO    C118727   7.747   4.568   8.089 -0.0309  0.0088  0.1286
 1330ERGO    C218728   7.735   4.605   8.408 -0.0454 -0.0664 -0.0337
 1331ERGO   ROH18729  13.225  14.152   6.575 -0.2648 -0.1137 -0.1488
 1331ERGO    R118730  13.130  14.091   6.835 -0.1381 -0.1090 -0.1011
 1331ERGO    R218731  13.219  13.873   6.978 -0.1662 -0.1811 -0.1969
 1331ERGO    R318732  13.272  14.059   7.168  0.0501 -0.2447 -0.1917
 1331ERGO    R418733  13.209  13.815   7.319 -0.2562 -0.1778 -0.1981
 1331ERGO    R518734  13.116  14.011   7.344 -0.0228 -0.0607 -0.2013
 1331ERGO    C118735  13.254  13.957   7.696 -0.1056 -0.2356 -0.1939
 1331ERGO    C218736  13.238  13.921   8.059 -0.0652  0.1640  0.0777
 1332ERGO   ROH18737   4.302  12.743   7.126 -0.2071  0.2939 -0.1270
 1332ERGO    R118738   4.291  12.944   7.325  0.1214  0.1224  0.0719
 1332ERGO    R218739   4.064  12.991   7.475  0.2029  0.3358  0.1230
 1332ERGO    R318740   4.233  12.956   7.684  0.1607 -0.1366  0.0905
 1332ERGO    R418741   3.990  13.072   7.803  0.4126  0.3603  0.1665
 1332ERGO    R518742   4.194  13.147   7.824  0.5972 -0.0974  0.1796
 1332ERGO    C118743   4.106  13.085   8.191  0.4950 -0.0690  0.1614
 1332ERGO    C218744   4.044  12.952   8.481  0.0671  0.0972  0.1028
 1333ERGO   ROH18745   9.970   0.123   7.181 -0.0318  0.2389 -0.0754
 1333ERGO    R118746  10.031   0.014   7.435 -0.0524 -0.0175 -0.1765
 1333ERGO    R218747  10.075   0.170   7.658  0.4448 -0.2093 -0.1198
 1333ERGO    R318748   9.881   0.014   7.766  0.2010  0.1276 -0.0606
 1333ERGO    R418749  10.069   0.066   7.987  0.5360 -0.4551 -0.1951
 1333ERGO    R518750   9.999  -0.129   7.918  0.0378 -0.2555 -0.2873
 1333ERGO    C118751   9.882  -0.141   8.281  0.3601 -0.2821 -0.1834
 1333ERGO    C218752   9.934  -0.013   8.626 -0.0274 -0.1459  0.3566
 1334ERGO   ROH18753   8.467   5.332   7.033 -0.0026 -0.0946 -0.2680
 1334ERGO    R118754   8.500   5.424   7.299  0.1405 -0.1313 -0.2723
 1334ERGO    R218755   8.344   5.625   7.408  0.2292 -0.1153 -0.1749
 1334ERGO    R318756   8.296   5.439   7.600  0.2858 -0.1279 -0.1729
 1334ERGO    R418757   8.266   5.696   7.737 -0.0116 -0.1269 -0.2277
 1334ERGO    R518758   8.394   5.531   7.798  0.1005 -0.0087 -0.1328
 1334ERGO    C118759   8.176   5.563   8.109 -0.0988 -0.1454 -0.2566
 1334ERGO    C218760   8.130   5.412   8.516  0.1503  0.2205 -0.0390
 1335ERGO   ROH18761   6.616   8.208   6.826  0.0171  0.0516  0.0793
 1335ERGO    R118762   6.777   8.219   7.059 -0.1079  0.0956  0.1653
 1335ERGO    R218763   6.737   8.407   7.258 -0.3051  0.0473  0.1787
 1335ERGO    R318764   6.725   8.187   7.417 -0.2806  0.0133  0.1331
 1335ERGO    R418765   6.767   8.411   7.602 -0.0952 -0.0546  0.1636
 1335ERGO    R518766   6.887   8.230   7.589 -0.1652 -0.0879  0.0467
 1335ERGO    C118767   6.773   8.208   7.953  0.0500 -0.1461  0.1121
 1335ERGO    C218768   6.765   8.232   8.369 -0.2518 -0.3814  0.1615
 1336ERGO   ROH18769   3.811   7.577   7.029 -0.0248  0.1977  0.0250
 1336ERGO    R118770   3.821   7.476   7.293  0.1544  0.2352  0.0339
 1336ERGO    R218771   3.964   7.599   7.494 -0.1237  0.5562  0.0414
 1336ERGO    R318772   3.725   7.592   7.624 -0.1347  0.0664  0.0133
 1336ERGO    R418773   3.921   7.505   7.824  0.0393  0.5047  0.0491
 1336ERGO    R518774   3.739   7.399   7.765  0.2612  0.1063  0.0406
 1336ERGO    C118775   3.671   7.443   8.137  0.1239  0.0148  0.0271
 1336ERGO    C218776   3.686   7.474   8.521 -0.2280 -0.3311  0.1939
 1337ERGO   ROH18777   1.912   7.664   6.841  0.0941 -0.1694  0.1504
 1337ERGO    R118778   2.003   7.655   7.108  0.1397 -0.1050  0.1383
 1337ERGO    R218779   1.949   7.855   7.292  0.1016 -0.0960  0.1249
 1337ERGO    R318780   1.852   7.649   7.439  0.1908 -0.1119  0.1600
 1337ERGO    R418781   1.957   7.838   7.637 -0.0485  0.0383  0.1354
 1337ERGO    R518782   2.007   7.626   7.620  0.1194  0.0735  0.2412
 1337ERGO    C118783   1.870   7.634   7.976 -0.0522  0.1014  0.1745
 1337ERGO    C218784   1.784   7.719   8.390  0.1338  0.2963 -0.1338
 1338ERGO   ROH18785   4.513   3.977   6.702 -0.0610 -0.2065  0.0314
 1338ERGO    R118786   4.474   4.056   6.972 -0.0728 -0.1735  0.0205
 1338ERGO    R218787   4.254   3.979   7.119 -0.0082 -0.2776  0.0670
 1338ERGO    R318788   4.442   3.889   7.294  0.0714 -0.1275  0.0590
 1338ERGO    R418789   4.230   3.999   7.463  0.0379 -0.2085  0.0660
 1338ERGO    R518790   4.441   4.051   7.470  0.0085 -0.0861  0.0195
 1338ERGO    C118791   4.392   3.927   7.828  0.1395 -0.0273  0.0579
 1338ERGO    C218792   4.400   4.021   8.235 -0.0152 -0.3737 -0.0596
 1339ERGO   ROH18793  12.285  12.115   6.518  0.3009 -0.0252 -0.1079
 1339ERGO    R118794  12.421  12.122   6.766  0.1778 -0.0001 -0.0403
 1339ERGO    R218795  12.362  12.306   6.964  0.0894  0.0306 -0.0947
 1339ERGO    R318796  12.334  12.083   7.117 -0.0005  0.0522 -0.0781
 1339ERGO    R418797  12.382  12.299   7.309  0.1771  0.0277 -0.0993
 1339ERGO    R518798  12.493  12.112   7.294  0.0628 -0.0365 -0.1213
 1339ERGO    C118799  12.369  12.087   7.653  0.1437  0.0464 -0.0863
 1339ERGO    C218800  12.362  12.238   7.912  0.1302 -0.1505 -0.3122
 1340ERGO   ROH18801   9.955   3.629   7.199  0.0097 -0.1932  0.0634
 1340ERGO    R118802   9.895   3.585   7.472 -0.0216 -0.1100  0.0698
 1340ERGO    R218803  10.075   3.470   7.647 -0.0636 -0.1095  0.1112
 1340ERGO    R318804  10.029   3.694   7.792 -0.0198 -0.0620  0.0532
 1340ERGO    R418805  10.084   3.486   7.992 -0.0215 -0.0134  0.1063
 1340ERGO    R518806   9.909   3.617   7.985 -0.0074  0.0061  0.0895
 1340ERGO    C118807  10.045   3.707   8.329  0.0442  0.0871  0.0488
 1340ERGO    C218808  10.059   3.791   8.671 -0.0169  0.4828  0.1133
 1341ERGO   ROH18809  15.066  10.306   6.452  0.0863 -0.0328 -0.1064
 1341ERGO    R118810  15.073  10.346   6.732  0.1621 -0.0432 -0.1065
 1341ERGO    R218811  14.853  10.308   6.894  0.1093  0.2815 -0.0928
 1341ERGO    R318812  15.021  10.143   7.030 -0.1212  0.0290 -0.1051
 1341ERGO    R418813  14.874  10.288   7.238  0.1567  0.2981 -0.0948
 1341ERGO    R518814  15.091  10.272   7.219  0.1307 -0.0529 -0.1406
 1341ERGO    C118815  15.045  10.122   7.566 -0.0323  0.0707 -0.1075
 1341ERGO    C218816  14.948  10.127   7.936  0.1175 -0.3033  0.2121
 1342ERGO   ROH18817  15.373  12.161  10.629  0.1859  0.0474  0.1045
 1342ERGO    R118818  15.356  12.059  10.365  0.3270  0.0500  0.0937
 1342ERGO    R218819  15.139  12.106  10.201  0.2769 -0.1984  0.0833
 1342ERGO    R318820  15.329  12.197  10.029  0.1807  0.0506  0.1056
 1342ERGO    R418821  15.083  12.193   9.871  0.1625 -0.0543  0.1400
 1342ERGO    R518822  15.272  12.099   9.819  0.2299  0.1253  0.0580
 1342ERGO    C118823  15.229  12.330   9.518  0.0054  0.2633  0.1940
 1342ERGO    C218824  15.030  12.378   9.258 -0.1268  0.0520  0.0438
 1343ERGO   ROH18825  16.059  12.496   6.627 -0.0742  0.2107 -0.0320
 1343ERGO    R118826  15.906  12.572   6.852 -0.0633  0.0424  0.0334
 1343ERGO    R218827  15.801  12.388   7.030  0.0281 -0.0844 -0.0461
 1343ERGO    R318828  15.933  12.539   7.214  0.0046 -0.1356  0.0139
 1343ERGO    R418829  15.718  12.411   7.365 -0.0355 -0.1633 -0.0561
 1343ERGO    R518830  15.761  12.624   7.356 -0.0206 -0.1604  0.0024
 1343ERGO    C118831  15.793  12.566   7.732 -0.0946 -0.2575 -0.0055
 1343ERGO    C218832  15.719  12.490   8.097 -0.0880  0.0997 -0.3147
 1344ERGO   ROH18833  12.125   7.309   6.830 -0.1177  0.2892  0.1904
 1344ERGO    R118834  12.108   7.314   7.113  0.2048  0.3552  0.2142
 1344ERGO    R218835  11.988   7.111   7.258 -0.1185  0.6337  0.3581
 1344ERGO    R318836  12.226   7.107   7.388  0.0371  0.0885  0.0900
 1344ERGO    R418837  12.026   7.066   7.598  0.1643  0.6433  0.3293
 1344ERGO    R518838  12.182   7.218   7.596  0.5450  0.2661  0.1134
 1344ERGO    C118839  12.272   7.037   7.919  0.4751  0.1371  0.0608
 1344ERGO    C218840  12.323   7.050   8.225 -0.2718  0.0582 -0.1141
 1345ERGO   ROH18841   8.728   7.480   6.913  0.0328 -0.2201 -0.0502
 1345ERGO    R118842   8.757   7.591   7.172 -0.1423 -0.0012 -0.1203
 1345ERGO    R218843   8.540   7.649   7.334 -0.2431 -0.2746 -0.1455
 1345ERGO    R318844   8.673   7.492   7.512  0.0487  0.0618 -0.0542
 1345ERGO    R418845   8.534   7.690   7.677 -0.2841 -0.0772 -0.1686
 1345ERGO    R518846   8.746   7.643   7.682 -0.1996  0.2964 -0.1509
 1345ERGO    C118847   8.654   7.565   8.044 -0.0342  0.3536 -0.0962
 1345ERGO    C218848   8.473   7.546   8.297  0.1762 -0.0417  0.0236
 1346ERGO   ROH18849   1.324  16.066   6.723 -0.1833  0.0879 -0.1711
 1346ERGO    R118850   1.400  16.171   6.975 -0.0305 -0.0557 -0.1562
 1346ERGO    R218851   1.220  16.290   7.147  0.1259  0.1154 -0.1090
 1346ERGO    R318852   1.318  16.108   7.324 -0.0622 -0.0398 -0.1608
 1346ERGO    R418853   1.195  16.314   7.491 -0.0985 -0.1069 -0.1068
 1346ERGO    R518854   1.399  16.239   7.507 -0.1366 -0.1924 -0.0161
 1346ERGO    C118855   1.272  16.157   7.857 -0.4058 -0.3820 -0.1542
 1346ERGO    C218856   1.330  16.104   8.140  0.1196 -0.3275  0.0779
 1347ERGO   ROH18857   3.930  15.686   6.666 -0.0241  0.0893  0.1295
 1347ERGO    R118858   3.852  15.783   6.921  0.1039  0.2264  0.1177
 1347ERGO    R218859   3.806  15.616   7.136 -0.1877  0.3057  0.1205
 1347ERGO    R318860   3.988  15.776   7.259  0.0622  0.0221  0.1318
 1347ERGO    R418861   3.853  15.636   7.478 -0.2569  0.3133  0.1291
 1347ERGO    R518862   3.877  15.852   7.457  0.1301  0.2723  0.0778
 1347ERGO    C118863   4.050  15.798   7.792 -0.0626  0.0516  0.1447
 1347ERGO    C218864   4.122  15.738   8.102 -0.0507 -0.0460  0.2182
 1348ERGO   ROH18865  16.905  13.500   6.546 -0.1446  0.3839 -0.1470
 1348ERGO    R118866  16.900  13.423   6.818 -0.0617  0.1904 -0.1965
 1348ERGO    R218867  17.113  13.468   6.990 -0.0030  0.0693 -0.2217
 1348ERGO    R318868  16.923  13.591   7.140  0.0385 -0.0326 -0.0886
 1348ERGO    R418869  17.060  13.413   7.327  0.1729 -0.0322 -0.2112
 1348ERGO    R518870  16.846  13.422   7.290  0.1616 -0.0856 -0.0968
 1348ERGO    C118871  16.851  13.496   7.664  0.3144 -0.1870 -0.0800
 1348ERGO    C218872  16.790  13.437   7.964 -0.2182  0.2372  0.2761
 1349W        W18873   2.887   7.689   0.273 -0.3682  0.2020 -0.1296
 1350W        W18874  12.929   5.569  12.008  0.1912  0.2240  0.1353
 1351W        W18875  13.104   5.058  14.898  0.0864  0.1128 -0.1981
 1352W        W18876  11.324   6.305   0.614 -0.0883  0.1339 -0.2333
 1353W        W18877  13.088  10.364   3.061 -0.2961 -0.0328  0.1916
 1354W        W18878   7.801  13.179   5.198  0.3195 -0.1111 -0.3039
 1355W        W18879  15.178   9.492  12.925  0.1125 -0.0186 -0.0602
 1356W        W18880   1.843   0.441   4.446 -0.3702  0.2259  0.0923
 1357W        W18881   9.269   6.150  11.545  0.1321  0.2301 -0.1835
 1358W        W18882  12.779  15.892  13.487  0.3306  0.3634  0.0526
 1359W        W18883   2.646   7.827  13.896  0.0532 -0.0362 -0.2478
 1360W        W18884   9.293   8.997   2.155 -0.2174 -0.0318  0.0531
 1361W        W18885  13.702   4.224   3.901 -0.2334  0.1258 -0.0458
 1362W        W18886   2.541  12.545  15.643  0.1077  0.0007  0.3128
 1363W        W18887   4.382  11.298  13.441  0.0288  0.0001 -0.1961
 1364W        W18888   9.204  12.657   3.195  0.2878 -0.1266 -0.0032
 1365W        W18889  16.645  16.910   4.969  0.0230 -0.1192 -0.0343
 1366W        W18890   7.100   1.450  16.984 -0.2898  0.1675  0.1243
 1367W        W18891   6.629  14.719  16.450  0.1060 -0.3843  0.1629
 1368W        W18892  16.012   5.785  13.311  0.0718  0.1502 -0.1313
 1369W        W18893   7.112   5.483   4.383 -0.0878 -0.0321  0.1989
 1370W        W18894   4.806   4.145  14.254 -0.2011 -0.5000 -0.4203
 1371W        W18895  14.908   5.649  16.667  0.2633  0.1748 -0.0195
 1372W        W18896   1.527  14.092   2.656 -0.0392 -0.0808 -0.0126
 1373W        W18897   8.041  14.668  14.336  0.1160  0.1187 -0.1176
 1374W        W18898   1.490   6.178   1.035 -0.0322 -0.1214 -0.3386
 1375W        W18899  15.501   3.417   3.946 -0.1734 -0.4136  0.2352
 1376W        W18900   1.028   1.433  11.966 -0.1081  0.3178 -0.1410
 1377W        W18901   3.035   6.232   2.522  0.3359  0.3256  0.1008
 1378W        W18902   9.017   9.834  14.537 -0.0037  0.0218 -0.0200
 1379W        W18903   3.938   1.824  15.337 -0.1613  0.0728 -0.0880
 1380W        W18904  12.913  10.999  16.581 -0.4704  0.0263 -0.1565
 1381W        W18905  12.090   6.543   4.666 -0.3556  0.2011 -0.1946
 1382W        W18906  12.781   0.009  12.355 -0.1820  0.0224 -0.0721
 1383W        W18907  13.718  11.879   3.064  0.4067 -0.2047 -0.2405
 1384W        W18908   9.337   4.379   5.184  0.0704 -0.1166 -0.3847
 1385W        W18909   6.482   7.255  12.527 -0.0556  0.2396 -0.1772
 1386W        W18910   3.117  12.922  16.852 -0.0381 -0.0090  0.0437
 1387W        W18911  16.765  13.283   3.553  0.1980 -0.1451  0.1521
 1388W        W18912  16.599   4.202  14.001  0.1436  0.0512  0.1766
 1389W        W18913  14.978   5.089   4.470 -0.0710 -0.0384  0.0779
 1390W        W18914   6.018   1.690  13.020 -0.0570 -0.0255 -0.3245
 1391W        W18915   7.372   9.092  12.621 -0.0496 -0.1859 -0.1306
 1392W        W18916   1.555   0.219  17.319  0.0197 -0.1480 -0.3843
 1393W        W18917   8.944   6.423   1.106 -0.0452 -0.0843  0.1653
 1394W        W18918   7.468  12.422  17.366 -0.0431 -0.0042 -0.0032
 1395W        W18919   3.793   3.267  16.944 -0.0950  0.0998  0.0883
 1396W        W18920   2.182   6.519  14.374  0.1201  0.0227  0.0284
 1397W        W18921   5.914  12.158   4.494  0.1300  0.0730  0.2224
 1398W        W18922   1.824  16.962   1.564 -0.2208  0.1742  0.0673
 1399W        W18923  12.189  14.697   3.435 -0.2670 -0.2043  0.3380
 1400W        W18924  12.787   6.758   0.027  0.1101  0.0327  0.3269
 1401W        W18925   3.480   1.354   4.279 -0.0106 -0.0276 -0.2913
 1402W        W18926  12.316  12.678  16.455  0.2021 -0.0876  0.1401
 1403W        W18927   7.255   0.583  17.448 -0.1086 -0.1526  0.0697
 1404W        W18928  16.201   2.677  17.139  0.0780 -0.2907  0.0227
 1405W        W18929   1.704  15.223   2.913  0.2151 -0.1150 -0.1113
 1406W        W18930   5.920  16.987   0.995 -0.2109  0.1176  0.1788
 1407W        W18931  14.693  13.669  14.180  0.1314  0.0479  0.2386
 1408W        W18932  16.316  11.603  11.967  0.2858  0.0463 -0.3097
 1409W        W18933   2.340   7.819  13.480 -0.1296 -0.0122  0.2540
 1410W        W18934  13.318   7.168  16.469  0.1607 -0.0446  0.2262
 1411W        W18935  15.478   0.351   4.109 -0.0006 -0.0309 -0.2245
 1412W        W18936  11.348  14.104  13.650  0.0766 -0.1587 -0.1720
 1413W        W18937  11.219   9.750   0.090 -0.0019  0.1057  0.1972
 1414W        W18938   0.634   0.587   4.269  0.1693 -0.0337 -0.1588
 1415W        W18939   4.963   2.713   2.359 -0.0883  0.1083 -0.0052
 1416W        W18940   4.755   1.867  12.768  0.1555  0.0831 -0.1128
 1417W        W18941   0.355   8.320   4.066 -0.2816 -0.2506 -0.1903
 1418W        W18942   5.385   6.294  12.664 -0.1407 -0.1057 -0.2894
 1419W        W18943  13.426   3.917   3.030  0.0828 -0.0070 -0.2315
 1420W        W18944   3.393   4.161  16.082 -0.2506  0.1294 -0.2719
 1421W        W18945  12.835  10.631  13.871 -0.1394  0.1250 -0.1872
 1422W        W18946   4.672   5.728  15.296  0.2388 -0.0311  0.1245
 1423W        W18947   7.167  10.876   2.542  0.0718 -0.1958 -0.1802
 1424W        W18948   5.487   7.439  15.550  0.1372 -0.0160 -0.1658
 1425W        W18949   8.346  16.048   4.450  0.1996 -0.0077  0.2962
 1426W        W18950   4.374  10.589  14.692 -0.0781 -0.2603 -0.2876
 1427W        W18951  12.813  15.685  16.097  0.0466  0.0389  0.0720
 1428W        W18952   0.712   5.955   3.861 -0.1142 -0.0248  0.0762
 1429W        W18953   8.511  11.564   4.670 -0.0754 -0.1225  0.2486
 1430W        W18954   8.307  12.226   1.730 -0.1122 -0.0583 -0.1611
 1431W        W18955   0.504   1.605  17.096 -0.2873 -0.0859  0.2102
 1432W        W18956   5.838   8.792   3.252  0.2968 -0.2688 -0.2186
 1433W        W18957  14.532   0.400   4.938 -0.1355  0.0407  0.0674
 1434W        W18958  16.878  11.763  15.217  0.1579  0.1028 -0.0107
 1435W        W18959  10.000  13.934   2.637  0.1349  0.0180  0.1646
 1436W        W18960   7.952   8.404   1.880 -0.2357  0.1014 -0.0263
 1437W        W18961  16.417  12.279  14.540  0.2054 -0.1159 -0.1963
 1438W        W18962   4.895  17.010   3.611 -0.1705 -0.1610 -0.0710
 1439W        W18963   6.026   8.332   0.960  0.1605  0.0951 -0.0848
 1440W        W18964  14.814   5.392   0.825  0.0636 -0.2421 -0.3707
 1441W        W18965   6.109   6.615  15.331 -0.1704 -0.2358  0.1792
 1442W        W18966   1.005   0.829  16.093 -0.0571 -0.0847  0.3048
 1443W        W18967   7.862   1.110  15.764 -0.3054  0.0875  0.0781
 1444W        W18968   9.525  16.490   0.936 -0.2470  0.0382 -0.1199
 1445W        W18969   0.922  11.803  16.341  0.2411 -0.2071 -0.0599
 1446W        W18970   7.918   3.361   0.086  0.0121 -0.1169 -0.0271
 1447W        W18971  15.318  13.614   2.391 -0.0063 -0.0588  0.3344
 1448W        W18972  15.216   8.406  14.525  0.1161 -0.0215  0.3237
 1449W        W18973  14.451  10.932  13.071 -0.0021 -0.0577 -0.1973
 1450W        W18974   8.368   6.252  13.497 -0.0392  0.2566  0.0982
 1451W        W18975   7.182   3.688   5.728  0.0719  0.3646 -0.2527
 1452W        W18976   6.241  14.926  15.715 -0.2111  0.0882  0.2294
 1453W        W18977   1.816  13.458  16.681  0.2491 -0.1965 -0.0274
 1454W        W18978   9.473  14.549   3.557 -0.1204  0.1726 -0.1737
 1455W        W18979   6.161  10.119   0.478 -0.1140  0.1372 -0.1060
 1456W        W18980   4.581   0.342   3.012  0.0961 -0.1821  0.0759
 1457W        W18981   1.305   0.111  16.475 -0.0501  0.2714  0.0135
 1458W        W18982   4.135  14.631  15.189  0.3831  0.0927 -0.2499
 1459W        W18983   7.851   0.809   0.119  0.0011  0.1176 -0.1890
 1460W        W18984   7.980  13.144   0.396 -0.1178 -0.2381  0.0379
 1461W        W18985  12.242   7.879   3.154 -0.1711  0.0679  0.4034
 1462W        W18986  10.374   8.292   0.954  0.2194 -0.2395  0.0262
 1463W        W18987   0.832  13.263  15.347 -0.0346  0.0121  0.0947
 1464W        W18988   9.674  14.411  16.260  0.1155  0.2662  0.1285
 1465W        W18989   2.098   2.884  16.336  0.0839 -0.2764 -0.2114
 1466W        W18990   0.518  13.648  11.906 -0.1425  0.3248  0.0072
 1467W        W18991  16.582   6.854  12.158  0.1042  0.0038 -0.2202
 1468W        W18992  14.432   8.263  15.906 -0.2934 -0.3917  0.1979
 1469W        W18993   1.924   3.331   1.943  0.0262 -0.0559  0.1269
 1470W        W18994   2.011   9.189  15.364  0.3490 -0.1894 -0.2581
 1471W        W18995   1.899  14.251   4.609  0.2283 -0.0805  0.3359
 1472W        W18996   1.262  16.221  17.620  0.0701  0.1157 -0.0211
 1473W        W18997  15.446   4.011  13.484  0.0231  0.1690 -0.2017
 1474W        W18998   2.195   8.215  11.727 -0.0215 -0.2252 -0.1404
 1475W        W18999   6.789   1.887  12.514 -0.1520 -0.1271 -0.0193
 1476W        W19000   1.803   6.463  17.498 -0.3537  0.2661 -0.3185
 1477W        W19001   0.826   1.821   2.434 -0.0546  0.2073  0.1302
 1478W        W19002   7.691  15.064   2.938 -0.3739 -0.1692  0.5562
 1479W        W19003   2.254  16.995  13.065  0.1525  0.4115 -0.1928
 1480W        W19004  14.934   4.876  13.667 -0.2015  0.1397  0.3182
 1481W        W19005  13.948   5.441  12.279 -0.2279  0.2447 -0.2604
 1482W        W19006  13.963   0.069  13.048  0.1156  0.0520 -0.2379
 1483W        W19007   1.719   7.377  14.267  0.2542 -0.1694  0.2184
 1484W        W19008   6.847   7.381  13.786 -0.2437  0.1619 -0.2751
 1485W        W19009   8.456  10.431   3.439 -0.0772 -0.0991 -0.0520
 1486W        W19010  15.827  15.232   0.364 -0.0594  0.1263 -0.5013
 1487W        W19011  14.009   5.961   0.850 -0.0885  0.1120 -0.2172
 1488W        W19012   1.796   1.363   2.590  0.1690 -0.0577 -0.1409
 1489W        W19013   0.253   8.941  17.477 -0.0754 -0.1262  0.0936
 1490W        W19014  13.892   6.863  16.162  0.0185 -0.0316 -0.0841
 1491W        W19015   9.371  15.765   1.320 -0.1844 -0.1448  0.0605
 1492W        W19016   9.484  15.106   5.838  0.2959 -0.4816  0.1042
 1493W        W19017   2.967   3.364   0.492  0.1886  0.0658  0.1461
 1494W        W19018  13.018  12.093  13.911  0.0413  0.3297 -0.1044
 1495W        W19019   7.517  10.421  14.068  0.2879  0.2244  0.2238
 1496W        W19020  13.367  12.897  14.074 -0.1048  0.1730  0.1420
 1497W        W19021  12.585  11.498   4.387 -0.3569 -0.0518 -0.0771
 1498W        W19022  14.442  12.949   3.104  0.0882  0.1733  0.5885
 1499W        W19023  12.173   1.627  16.166  0.0160 -0.0813  0.1867
 1500W        W19024   6.111   0.231  14.901 -0.2164 -0.2651 -0.3211
 1501W        W19025  14.401  11.859   3.201 -0.0461  0.2601 -0.3864
 1502W        W19026  13.514  16.650   4.815 -0.0475 -0.1062  0.0031
 1503W        W19027   5.638   2.896  15.874 -0.3259  0.2672  0.0630
 1504W        W19028  11.839   4.470   1.729  0.3582 -0.2216  0.0328
 1505W        W19029  13.241   7.903  17.178 -0.2221 -0.2007  0.2326
 1506W        W19030  16.288   0.520  13.396  0.0180 -0.1784 -0.1892
 1507W        W19031   4.986  16.903   5.419  0.2025 -0.2519 -0.1773
 1508W        W19032  15.121  15.021  12.718 -0.2372  0.1718  0.0865
 1509W        W19033   8.776   0.047   0.616 -0.1935 -0.3543 -0.0365
 1510W        W19034   9.512  16.085  13.202  0.0779 -0.1895 -0.0192
 1511W        W19035   3.585   3.761   4.030  0.0416  0.2445 -0.0973
 1512W        W19036   7.871   9.439   1.076  0.1374  0.0482  0.0669
 1513W        W19037   6.641  16.961  14.376  0.1540  0.2917  0.0613
 1514W        W19038   9.074  13.984  16.925 -0.1159  0.2191 -0.0881
 1515W        W19039   0.608   8.660  12.225  0.0622  0.1350 -0.1478
 1516W        W19040   8.714  10.146  14.883 -0.2816 -0.1494 -0.0997
 1517W        W19041   0.538   2.116   0.363  0.0893  0.0703  0.1603
 1518W        W19042  11.199   5.620  14.497  0.0851 -0.0695  0.6133
 1519W        W19043  16.565   4.534   2.388 -0.0525 -0.2220  0.1355
 1520W        W19044   6.112   2.815   0.578 -0.0056 -0.0521  0.0347
 1521W        W19045   5.148   9.062   4.654  0.0342  0.0693  0.0219
 1522W        W19046  10.378  13.002   0.873 -0.0325 -0.0357  0.0838
 1523W        W19047   4.903   6.537   2.620  0.1088  0.3556  0.2800
 1524W        W19048   4.859  12.627   0.795  0.2144  0.0685  0.1515
 1525W        W19049   3.935   4.076  16.858  0.1315  0.0177  0.2535
 1526W        W19050   5.719   1.280   5.729 -0.1364  0.3214  0.0215
 1527W        W19051  12.528   1.195   5.447 -0.2990 -0.1691 -0.0560
 1528W        W19052   5.051   8.557   4.512 -0.0251  0.0322  0.0137
 1529W        W19053   5.806   7.499  15.179  0.3880 -0.1659 -0.1276
 1530W        W19054   9.204  10.048   5.874  0.0066  0.0277  0.0444
 1531W        W19055  14.707  17.090   4.224 -0.0109 -0.0371  0.3192
 1532W        W19056   2.371   3.993   1.756  0.0486  0.1059 -0.1341
 1533W        W19057   6.234   1.085   4.165 -0.2567 -0.0201 -0.0237
 1534W        W19058   8.684   9.054   0.888  0.0940 -0.1783 -0.0858
 1535W        W19059  13.724   8.433  13.956  0.0285 -0.3274 -0.3158
 1536W        W19060   2.740   7.987  15.863 -0.0021 -0.0801 -0.0331
 1537W        W19061   4.036  15.551   4.900 -0.1630 -0.0606 -0.1474
 1538W        W19062   1.239  14.145  13.365 -0.1343 -0.0044 -0.0071
 1539W        W19063  12.654  10.355   0.124 -0.0496 -0.0043 -0.2968
 1540W        W19064   5.477   3.714   2.867 -0.1775  0.1227  0.0546
 1541W        W19065  14.295  12.604   1.981  0.0184 -0.0535  0.1939
 1542W        W19066  10.968   1.006   5.463 -0.1945  0.3108  0.2399
 1543W        W19067   6.275  10.888  13.723 -0.1148  0.2312 -0.2968
 1544W        W19068  15.250   2.445  16.880 -0.0039 -0.3648  0.0402
 1545W        W19069   0.706   9.213   0.049 -0.0256  0.0961 -0.0134
 1546W        W19070   1.102   0.811   4.021  0.1569 -0.1093 -0.2114
 1547W        W19071   1.387   0.210  14.419 -0.0577  0.0895  0.1753
 1548W        W19072   4.674   7.920  14.183  0.0767  0.0812 -0.0135
 1549W        W19073   6.565  15.605   4.175  0.3584 -0.0094  0.1876
 1550W        W19074   7.509   9.975  13.860 -0.2607 -0.0840  0.0909
 1551W        W19075   3.475   6.579  12.772 -0.1223 -0.1536 -0.3479
 1552W        W19076  14.404   5.329  15.476  0.1550  0.2333  0.0071
 1553W        W19077   5.389   7.939  15.443  0.0974 -0.1123  0.2321
 1554W        W19078   1.360   9.051  11.821  0.0172 -0.0981 -0.3659
 1555W        W19079   1.758  17.100   2.901  0.1121 -0.1525 -0.1315
 1556W        W19080   5.971  11.307  16.510  0.2007  0.1725  0.4373
 1557W        W19081   6.522   5.413  15.151  0.3089  0.0755  0.0441
 1558W        W19082  14.703   4.804   0.038 -0.0192  0.0713 -0.1853
 1559W        W19083  16.577   2.772   2.598  0.1535  0.1100 -0.1774
 1560W        W19084   9.830  10.126   3.570 -0.1702 -0.0179  0.0094
 1561W        W19085  13.144   4.458  12.762 -0.0649 -0.0852 -0.3064
 1562W        W19086  11.053   8.824   3.787  0.4051 -0.0087 -0.0045
 1563W        W19087  12.120   2.820  14.381 -0.1179  0.1310 -0.0250
 1564W        W19088   3.132  16.139   5.247  0.2019 -0.3364 -0.1217
 1565W        W19089   2.042   3.553   5.088  0.1194 -0.2934  0.2460
 1566W        W19090   6.301   5.134   0.435 -0.1642 -0.1552 -0.3036
 1567W        W19091   8.164   0.022  13.247  0.0179 -0.4363 -0.1763
 1568W        W19092  16.866  12.263   2.586  0.1000 -0.0418  0.3012
 1569W        W19093   6.381  11.787  17.153 -0.0911 -0.0697  0.2166
 1570W        W19094  16.813   5.330   1.403  0.0823 -0.1183 -0.0999
 1571W        W19095  11.927  11.052  13.500 -0.2168 -0.0948  0.0126
 1572W        W19096   7.748  14.381   5.029 -0.1680  0.1861 -0.3000
 1573W        W19097   8.760  12.370   0.297 -0.0379 -0.5199  0.2192
 1574W        W19098  12.600  10.953   2.085 -0.2826  0.0554  0.5063
 1575W        W19099   4.255  11.229  15.043 -0.0440 -0.0846  0.1118
 1576W        W19100   3.704  15.767   1.548 -0.0796  0.2223 -0.4095
 1577W        W19101   2.111   2.881  15.009  0.2484  0.0935  0.0913
 1578W        W19102  16.249  11.043  15.096 -0.1903  0.0380  0.2152
 1579W        W19103   1.609  15.937  13.750  0.1052 -0.1207 -0.0250
 1580W        W19104   5.674  10.053  12.823  0.5877  0.2748  0.1629
 1581W        W19105  14.256   3.977  13.361  0.1709 -0.2150 -0.0898
 1582W        W19106  12.914  11.079  13.052 -0.2353 -0.4250  0.0897
 1583W        W19107   4.460   0.695  12.838 -0.0755 -0.0318 -0.0736
 1584W        W19108   1.625   3.512   1.215 -0.0422 -0.1911  0.0074
 1585W        W19109   7.977   0.068   2.678 -0.0095  0.0468  0.0932
 1586W        W19110   2.924   0.720  17.185  0.0795  0.1908  0.1860
 1587W        W19111  16.875  11.460   0.772 -0.0869 -0.1487  0.3543
 1588W        W19112   3.436   8.778   0.537  0.0175 -0.1473  0.2500
 1589W        W19113   7.149   0.133  17.197 -0.0753 -0.0266  0.0013
 1590W        W19114   6.769   9.154   2.055 -0.1000  0.2376 -0.0834
 1591W        W19115  15.255   3.321  15.717 -0.0139 -0.1105 -0.0986
 1592W        W19116  14.313   0.740   4.399 -0.1461 -0.1446 -0.1038
 1593W        W19117  15.218   0.006  12.650  0.2558 -0.2224  0.2423
 1594W        W19118   7.591  15.652   4.661  0.1097  0.1472  0.1811
 1595W        W19119  12.033  13.273  17.572  0.0473 -0.1777  0.0707
 1596W        W19120   3.569  15.271   1.571 -0.0816  0.0021  0.1534
 1597W        W19121   8.562   2.202  16.886 -0.0610  0.2448 -0.0092
 1598W        W19122  17.093  14.519   4.157  0.1252  0.0245  0.0833
 1599W        W19123  16.604  10.229   2.181  0.2730  0.0321 -0.2084
 1600W        W19124  12.297  13.511  15.337 -0.0615  0.0429  0.2122
 1601W        W19125   9.743  12.843   4.865  0.0205 -0.0172 -0.2153
 1602W        W19126   0.143   5.922   2.642  0.0127 -0.1211 -0.0115
 1603W        W19127   2.460  13.195   3.448 -0.1118 -0.1025  0.2189
 1604W        W19128  17.080  14.643   3.667  0.0689 -0.0251  0.1732
 1605W        W19129   5.337   5.475  13.564 -0.0287 -0.0432 -0.2261
 1606W        W19130  17.106  10.826  16.244  0.0581  0.1229  0.1534
 1607W        W19131  14.601   1.405   1.797 -0.0364  0.0824 -0.1868
 1608W        W19132  14.092  12.545  13.276  0.0213 -0.0208 -0.0404
 1609W        W19133   0.823   7.074   1.937  0.0094 -0.0106 -0.1191
 1610W        W19134   0.270  10.390  16.288  0.0744  0.0947 -0.1213
 1611W        W19135   9.849   2.069   4.157  0.0192 -0.0941  0.1863
 1612W        W19136  14.408   1.561   2.457  0.1249  0.0796  0.1198
 1613W        W19137   4.387   2.580   1.695  0.0153  0.1351 -0.1566
 1614W        W19138  11.104   9.748  14.625  0.2008  0.2453 -0.1007
 1615W        W19139   7.668   6.567   2.172 -0.2509  0.0612 -0.0291
 1616W        W19140  14.070  12.506  13.809  0.2717 -0.2073 -0.0915
 1617W        W19141  10.089   9.236   2.391  0.2359 -0.1201  0.2308
 1618W        W19142  16.744  14.841   0.338  0.1918 -0.0647 -0.0271
 1619W        W19143   2.249   4.352  15.321  0.0063 -0.1183  0.3110
 1620W        W19144   6.606   0.706  12.787  0.1345  0.2142 -0.1932
 1621W        W19145   1.038   9.485   0.786  0.1884 -0.0563  0.3600
 1622W        W19146   2.103   1.562  12.389 -0.2211 -0.1591  0.0209
 1623W        W19147  11.296   2.157   1.372 -0.0643  0.0279  0.2759
 1624W        W19148  15.490  11.768  12.521 -0.4204 -0.0270  0.1180
 1625W        W19149   2.983   5.242  12.282 -0.0944 -0.1682  0.4668
 1626W        W19150  12.528   1.964  14.691  0.1402 -0.1424  0.1157
 1627W        W19151  10.492   1.916   3.229  0.2087 -0.0080  0.2362
 1628W        W19152  16.527   0.328   4.257 -0.2102 -0.2621  0.2515
 1629W        W19153   4.483   7.576   0.861  0.1157  0.0396  0.0921
 1630W        W19154   4.097  12.372   0.275  0.0860 -0.1043 -0.0467
 1631W        W19155  10.776   2.606   0.846 -0.0258  0.0880  0.3913
 1632W        W19156   9.437  17.180   5.542  0.0085 -0.0449  0.0180
 1633W        W19157   0.794   4.893   2.706 -0.1057  0.1142 -0.0095
 1634W        W19158  14.733  14.907   5.697  0.0952  0.0751  0.1007
 1635W        W19159   1.481  15.412  13.879  0.0903 -0.2408  0.1713
 1636W        W19160  12.163   9.295  14.821  0.2488 -0.0137 -0.0620
 1637W        W19161  12.985  13.659   5.865  0.0390  0.1269  0.3827
 1638W        W19162  14.247   6.924   3.958 -0.0022 -0.1241 -0.0898
 1639W        W19163  14.021   2.338   3.853  0.0198 -0.1351  0.1848
 1640W        W19164   0.064  14.089  16.706 -0.2861 -0.0789 -0.0082
 1641W        W19165   2.197   8.691  16.970  0.0863  0.1663 -0.1902
 1642W        W19166   3.431   9.296   3.051 -0.1294  0.1893 -0.1138
 1643W        W19167   7.597  14.540   1.991 -0.3853 -0.1488 -0.2635
 1644W        W19168  13.655   8.074  13.274 -0.3432 -0.4605 -0.1353
 1645W        W19169   8.244   5.893  15.345 -0.1131 -0.4119  0.2023
 1646W        W19170  16.277   5.802   3.108 -0.0370 -0.0390 -0.2510
 1647W        W19171   5.263   7.120  13.133 -0.0928  0.0135  0.1078
 1648W        W19172   6.094  11.725   3.265  0.1755 -0.2720 -0.0922
 1649W        W19173   1.064   2.002  13.075 -0.0208 -0.1816  0.0485
 1650W        W19174   8.585   4.210   2.975 -0.2243  0.1086 -0.0813
 1651W        W19175  10.035   8.892  13.816 -0.0580 -0.2217  0.2980
 1652W        W19176   9.868  12.058   2.500  0.1190  0.1551  0.0027
 1653W        W19177  13.939   6.892  12.497  0.0304  0.2107 -0.3233
 1654W        W19178   9.394   7.920   1.196  0.1662 -0.3542  0.0198
 1655W        W19179   8.328   7.456   2.466 -0.0143  0.1185  0.0081
 1656W        W19180   7.561   1.098   5.732 -0.3469  0.1446  0.1421
 1657W        W19181  12.574   3.817  16.904  0.0833 -0.1597  0.0281
 1658W        W19182  14.058   1.752  13.231 -0.0979 -0.0877  0.0623
 1659W        W19183  11.265   6.396   2.207  0.1214 -0.1751  0.1460
 1660W        W19184  12.674  10.278   3.840 -0.2396 -0.1097 -0.0411
 1661W        W19185   8.634   9.729   1.105  0.2849  0.0873  0.0832
 1662W        W19186   0.731   6.141  15.599  0.0648 -0.1778  0.0667
 1663W        W19187  16.479  14.725  17.028  0.0588 -0.1279  0.1566
 1664W        W19188  12.590   6.258  16.222  0.1260 -0.2087 -0.0790
 1665W        W19189  16.760  13.514   1.985 -0.2360  0.2040  0.0633
 1666W        W19190   9.519   2.311  13.913  0.2520  0.0761  0.0302
 1667W        W19191   5.708  11.450   2.381  0.1760  0.0733  0.0996
 1668W        W19192  14.058   8.291  16.330 -0.1530  0.2117 -0.1691
 1669W        W19193  10.943   9.139  16.212  0.2623 -0.1105  0.2648
 1670W        W19194   6.771   4.789  15.577  0.1342  0.0770  0.3737
 1671W        W19195  14.481   4.412  13.110  0.1501  0.2998 -0.3362
 1672W        W19196   3.436  13.787  12.643  0.1340 -0.2638 -0.0839
 1673W        W19197   9.239   9.753   4.843  0.0552  0.1433  0.0717
 1674W        W19198   9.841   2.154  14.819 -0.1975 -0.1076  0.1125
 1675W        W19199  11.185   4.059  16.297  0.1935 -0.0264 -0.1271
 1676W        W19200   5.978   0.481  16.921  0.2056 -0.1903 -0.1665
 1677W        W19201   6.861   1.685   0.629 -0.0611 -0.2198  0.1683
 1678W        W19202   6.720  16.099   5.475  0.3678  0.2385  0.0189
 1679W        W19203   1.662   0.963  17.591  0.0943 -0.1260  0.1754
 1680W        W19204   7.139   4.608  14.174  0.1552  0.0456  0.0585
 1681W        W19205   0.491   3.591   0.636 -0.1161 -0.1029  0.0657
 1682W        W19206   2.351  14.067   1.995 -0.2224 -0.0634  0.0889
 1683W        W19207   2.750  12.946   3.066 -0.0318  0.0594 -0.1701
 1684W        W19208  16.475  16.722  12.014 -0.0320 -0.3078 -0.0611
 1685W        W19209  16.092  10.464  12.559  0.0555 -0.1128 -0.0810
 1686W        W19210  15.695  11.102  13.209 -0.0886  0.3742  0.1797
 1687W        W19211  11.097   9.786   2.977  0.0467 -0.6327  0.2548
 1688W        W19212   2.493  11.822  14.735 -0.1130  0.0598 -0.2956
 1689W        W19213  12.771  15.473  12.315 -0.0805  0.0298 -0.1348
 1690W        W19214  12.570  11.323  16.606  0.0306 -0.1896 -0.1045
 1691W        W19215  11.167   0.427   4.263 -0.0002 -0.2795 -0.2368
 1692W        W19216   9.529   6.050  14.456  0.2519 -0.0207  0.0391
 1693W        W19217   8.765   4.319   1.612  0.1155  0.0483  0.2584
 1694W        W19218   1.209  16.183  16.544 -0.1164 -0.3525  0.0729
 1695W        W19219   5.504   5.516   5.898 -0.2688  0.1996 -0.0978
 1696W        W19220  10.693   1.507  16.095  0.0520  0.1860  0.3630
 1697W        W19221   2.133   0.966   0.139 -0.1040  0.1675 -0.1494
 1698W        W19222  12.622   8.852   1.620 -0.0545  0.1399 -0.0521
 1699W        W19223   4.637   7.685   4.933 -0.0533  0.1564  0.0550
 1700W        W19224   4.781   5.115   1.740 -0.3065 -0.0083 -0.0016
 1701W        W19225   2.063   4.601  14.479 -0.3002  0.0924 -0.0515
 1702W        W19226   0.730   8.576   1.218  0.0884  0.0739 -0.0993
 1703W        W19227   3.516   1.984  15.506 -0.1874 -0.0153  0.3883
 1704W        W19228   1.181   1.673   3.697 -0.1307  0.0045  0.0331
 1705W        W19229   1.016  13.603   2.102 -0.1441  0.2945 -0.3224
 1706W        W19230  15.255   6.769   2.359 -0.0602 -0.1601  0.2068
 1707W        W19231  17.130  15.813  16.422  0.2121 -0.2652  0.0337
 1708W        W19232   0.963  10.407  15.818  0.2229 -0.4740  0.2318
 1709W        W19233  11.423   3.065  17.465  0.2574  0.1359 -0.1561
 1710W        W19234   8.219   2.186  15.574 -0.1035  0.0254 -0.0878
 1711W        W19235   8.282  10.469  13.026  0.0929  0.1303 -0.1291
 1712W        W19236   8.790   0.383   4.810 -0.1847  0.0558  0.1156
 1713W        W19237   6.746   7.341  14.281  0.3896  0.0646  0.1087
 1714W        W19238   8.925   1.731  15.807  0.0438 -0.1447 -0.1694
 1715W        W19239   1.131  16.548   4.145  0.3565  0.0540 -0.0137
 1716W        W19240   7.324  10.363  17.429  0.1649  0.0982  0.0252
 1717W        W19241  13.096  11.401  12.368 -0.0325  0.2070  0.0430
 1718W        W19242   0.401   0.502   3.782 -0.0886  0.0524 -0.5842
 1719W        W19243   2.953   4.387   5.552  0.2739  0.2751  0.0061
 1720W        W19244  15.624   8.965   1.792 -0.0456 -0.1075 -0.0038
 1721W        W19245   9.224   4.423   1.158 -0.0181 -0.0453 -0.0082
 1722W        W19246   9.118   8.328   2.457  0.1840  0.1927  0.1857
 1723W        W19247  15.780   8.140   1.405  0.1424 -0.0192  0.4674
 1724W        W19248  12.660   7.319  15.049 -0.2860  0.1364 -0.1240
 1725W        W19249  11.768  16.105   0.860 -0.0381 -0.0920 -0.1987
 1726W        W19250   3.356   3.280   5.606  0.0670 -0.0196  0.1087
 1727W        W19251   3.466  10.700   3.029 -0.1381  0.4195  0.1788
 1728W        W19252   6.998   3.231   4.371 -0.0429  0.3398 -0.0158
 1729W        W19253   0.393  15.513  12.395 -0.0249 -0.0273 -0.0201
 1730W        W19254   4.437   5.575  16.963  0.1188  0.2720  0.1098
 1731W        W19255   4.098   7.733  14.815 -0.0620 -0.3125 -0.0231
 1732W        W19256   3.699   1.896   4.968  0.1516 -0.0090  0.3426
 1733W        W19257   3.752  10.869  13.832  0.2502 -0.2007 -0.0217
 1734W        W19258   3.986   2.316   5.038  0.0608  0.2211  0.1480
 1735W        W19259  14.956   7.457  17.571  0.1546 -0.1267 -0.0765
 1736W        W19260   1.019   5.427  12.027  0.0033 -0.0229  0.0417
 1737W        W19261  13.566   8.637  16.928 -0.0941  0.1946 -0.1557
 1738W        W19262   5.407   2.740  16.519  0.0668 -0.1711 -0.0212
 1739W        W19263   2.785  16.963  14.495  0.1521  0.3472 -0.0495
 1740W        W19264   3.469   9.915  16.524 -0.1596  0.3847 -0.3895
 1741W        W19265   1.497  11.327   0.055  0.1136 -0.2093  0.1948
 1742W        W19266   8.987  16.634  17.504  0.2469  0.1287 -0.1552
 1743W        W19267  14.736   9.927  16.308  0.0058  0.4192  0.3474
 1744W        W19268  16.241   7.464  12.705 -0.0842  0.1511 -0.1675
 1745W        W19269   9.368   5.887  12.980  0.1859 -0.2566  0.1052
 1746W        W19270   7.403   6.881   4.035 -0.1275  0.3047 -0.3688
 1747W        W19271   6.325  10.441   0.851  0.1313 -0.0570  0.1239
 1748W        W19272   3.294   6.893  15.307 -0.1452  0.3148 -0.1951
 1749W        W19273   8.641   6.929  12.881  0.0147  0.2707  0.0249
 1750W        W19274   6.103  10.451   4.552 -0.1654  0.3186  0.2281
 1751W        W19275   3.297   4.872  15.903 -0.0168  0.2821  0.1490
 1752W        W19276   0.524   3.680   4.854  0.5176 -0.4965 -0.0359
 1753W        W19277   5.696   9.818   4.576  0.0547  0.1017 -0.0678
 1754W        W19278  10.986   2.849   2.530 -0.2188  0.1434 -0.2275
 1755W        W19279  12.435   2.519   5.346  0.1491 -0.0210  0.0799
 1756W        W19280  10.988  10.330  12.489 -0.1880  0.0299 -0.0877
 1757W        W19281   9.341   7.595   1.955 -0.1078 -0.2945 -0.0846
 1758W        W19282  16.999   3.781   3.139  0.2312 -0.0488 -0.1262
 1759W        W19283   3.544  14.751  14.108  0.1789  0.0881  0.0494
 1760W        W19284   0.777   2.974  13.245 -0.1245  0.1570  0.1375
 1761W        W19285  16.751   5.264  17.312 -0.2183 -0.1182  0.1759
 1762W        W19286  16.982   2.891   2.269  0.0592  0.1432  0.1562
 1763W        W19287  11.664  15.790  13.851  0.1604  0.1162 -0.2922
 1764W        W19288   2.959   1.339   5.319 -0.0220  0.1518  0.4008
 1765W        W19289  16.301  15.825  17.521  0.0621  0.0288  0.0850
 1766W        W19290  15.604   7.746  17.243  0.1521 -0.2809  0.0982
 1767W        W19291   9.317   0.128   3.360 -0.1019  0.0746 -0.3298
 1768W        W19292   9.530   4.711   0.839  0.2304 -0.6377 -0.0837
 1769W        W19293   9.458  10.005   5.247 -0.1200 -0.0739  0.0421
 1770W        W19294   2.273   5.266   3.243 -0.1307 -0.0176  0.3161
 1771W        W19295   4.771   8.001   2.920 -0.0679  0.0277 -0.1438
 1772W        W19296  13.374   5.553   1.439 -0.0951 -0.2036  0.0271
 1773W        W19297  10.429   9.431  17.617 -0.0572 -0.1685  0.0444
 1774W        W19298   7.309   3.826   1.593 -0.0663 -0.3050 -0.0852
 1775W        W19299   5.141   5.410  15.574 -0.2961  0.3384 -0.0697
 1776W        W19300  14.301   6.791  12.845  0.1878  0.1812  0.1570
 1777W        W19301   9.208  13.663  13.209  0.1625  0.1084 -0.3214
 1778W        W19302   4.523   4.617   3.613 -0.2587  0.3355  0.1748
 1779W        W19303  16.289   1.255   4.643  0.3022 -0.1767 -0.1031
 1780W        W19304  14.642  13.252   3.521 -0.1978 -0.1896  0.2542
 1781W        W19305  14.798  16.384   1.098 -0.2241 -0.0886  0.0857
 1782W        W19306   7.848   0.391  14.432  0.2512 -0.3925 -0.1082
 1783W        W19307   6.340  12.270  13.294  0.2128  0.2076  0.1088
 1784W        W19308   8.151  12.958   1.323  0.1141  0.3492  0.0406
 1785W        W19309  12.241   5.254  16.021 -0.0592 -0.0994  0.0786
 1786W        W19310  15.449  14.188  15.568  0.1503  0.0003  0.2684
 1787W        W19311   6.154  12.257  14.003 -0.1604  0.0800 -0.0490
 1788W        W19312  15.416   8.961  11.921  0.1419 -0.0424 -0.0722
 1789W        W19313   6.521  15.351  14.930  0.2446  0.4202 -0.2329
 1790W        W19314  14.185  15.253   2.383 -0.0197 -0.0708  0.2898
 1791W        W19315   3.329  13.262   1.733 -0.1686  0.0307 -0.0561
 1792W        W19316   9.181   1.181  17.541  0.6111 -0.1271  0.0530
 1793W        W19317   0.276  13.514  12.362 -0.1382  0.1688  0.2333
 1794W        W19318   2.160  12.882   5.325 -0.1019 -0.0038 -0.0224
 1795W        W19319   2.504   8.047   0.390  0.2057 -0.0741  0.0868
 1796W        W19320  13.174   5.116  14.392  0.1601 -0.1011 -0.1510
 1797W        W19321  14.949  12.104   5.266 -0.1048  0.0088  0.4414
 1798W        W19322   3.009   7.133   4.469  0.0167 -0.2507  0.0440
 1799W        W19323   3.636  13.413   6.738  0.0427  0.2784  0.0582
 1800W        W19324  13.924  14.904   5.580  0.2144 -0.0937  0.0639
 1801W        W19325   7.858  12.021  15.651 -0.1519 -0.1004 -0.3748
 1802W        W19326   1.540  11.867   3.965  0.1947 -0.1175  0.2532
 1803W        W19327  14.699   8.628  15.683  0.0210 -0.1244  0.0921
 1804W        W19328  11.741  11.779   4.006 -0.4736  0.0353  0.2195
 1805W        W19329   6.151   7.265  11.644 -0.0037  0.1199 -0.0373
 1806W        W19330   3.018  13.021   1.356 -0.2922  0.0817 -0.0451
 1807W        W19331   8.874   4.718   2.444  0.3460  0.0437  0.2885
 1808W        W19332   6.407   6.776   1.001 -0.2626  0.1012 -0.1301
 1809W        W19333  11.760   9.208   2.775  0.2528  0.2905 -0.1032
 1810W        W19334   7.685  16.435   4.328 -0.2066 -0.2738 -0.1798
 1811W        W19335  13.322  11.099   1.322  0.1467 -0.0659  0.0884
 1812W        W19336  10.351   9.467   4.029 -0.0608 -0.1452 -0.0082
 1813W        W19337  13.175   9.483  17.468 -0.0965 -0.0037  0.0027
 1814W        W19338   4.440   6.207   0.743  0.0801 -0.1276 -0.2209
 1815W        W19339  13.311   4.484  14.909 -0.0377  0.1181 -0.3679
 1816W        W19340  10.134   8.287   2.924 -0.1503 -0.0763  0.0329
 1817W        W19341  17.169   0.420   3.761 -0.0169 -0.1477 -0.0641
 1818W        W19342  11.474  15.561   0.136  0.1094  0.0948 -0.1978
 1819W        W19343   9.709   4.649   4.894 -0.0468  0.0717 -0.3357
 1820W        W19344   1.490   1.964  15.854  0.0057  0.3130 -0.0778
 1821W        W19345   0.388  15.048   2.971 -0.1087  0.3179 -0.0859
 1822W        W19346   9.814   1.591   2.803 -0.0990 -0.3906  0.1501
 1823W        W19347   2.834  12.255   0.135  0.0426  0.1067  0.0445
 1824W        W19348   7.583   5.475   1.437  0.0265  0.3421 -0.0580
 1825W        W19349  12.591  10.047  15.892  0.3087 -0.1938  0.3750
 1826W        W19350   7.936  13.110  13.871 -0.1486  0.0393 -0.3428
 1827W        W19351   8.636  12.443  12.034  0.0596 -0.2558 -0.2265
 1828W        W19352   9.695  10.810   2.138 -0.0512 -0.0054 -0.1536
 1829W        W19353   5.363   7.513   5.457 -0.0173 -0.3220  0.0786
 1830W        W19354   6.991  15.349  17.545 -0.1425 -0.1266 -0.0137
 1831W        W19355  16.844   5.221  16.095 -0.2140  0.2192 -0.1150
 1832W        W19356  15.467   8.533  14.969  0.1864  0.2249  0.3453
 1833W        W19357   8.736   8.351  15.463 -0.0387 -0.0988  0.1200
 1834W        W19358  15.538   7.648  16.191 -0.2503  0.0077  0.0223
 1835W        W19359   6.486   1.992  16.770 -0.2402  0.3748 -0.0708
 1836W        W19360   8.787   3.213   4.986 -0.2009  0.0206  0.2273
 1837W        W19361  12.827  13.171   3.909  0.1183  0.1842  0.2520
 1838W        W19362   6.182   7.881  15.993  0.1747 -0.0228 -0.0494
 1839W        W19363   0.121  13.476   3.325 -0.0930 -0.1022 -0.2397
 1840W        W19364   9.336   2.255  16.519  0.3342  0.1640 -0.0222
 1841W        W19365  16.804   8.898   1.873  0.1914  0.1747  0.2142
 1842W        W19366   3.708   3.251   1.478 -0.0370  0.0105 -0.0766
 1843W        W19367  12.270   1.405   3.571  0.0541 -0.1176  0.1616
 1844W        W19368   4.759  15.805  15.387 -0.0083 -0.0108  0.1225
 1845W        W19369   7.738   2.138   4.622 -0.3442 -0.1173  0.1913
 1846W        W19370   9.345  10.420   2.879  0.0574  0.0911  0.2023
 1847W        W19371  16.167   9.865   0.850  0.1685  0.1678  0.1704
 1848W        W19372   9.700   7.355   0.436  0.0269  0.0847 -0.1474
 1849W        W19373   0.959   0.192   3.051 -0.0425  0.2294  0.2512
 1850W        W19374  15.265   8.967  13.784  0.0273 -0.1226  0.1348
 1851W        W19375  10.429   8.953  12.309  0.1755  0.2693 -0.2195
 1852W        W19376   6.100   0.594   1.985  0.0747 -0.2072 -0.0867
 1853W        W19377   6.604  12.804   4.118  0.2207  0.1144  0.0100
 1854W        W19378  15.997   5.871  16.853 -0.0831  0.0299  0.0235
 1855W        W19379  14.666   6.633   4.115  0.1482 -0.2975  0.0755
 1856W        W19380   1.209   4.059  16.288  0.0367 -0.2529 -0.1752
 1857W        W19381   0.218  15.330  14.627 -0.0081 -0.1086  0.2462
 1858W        W19382   5.361  16.177  17.403  0.1658  0.3818 -0.0099
 1859W        W19383   8.041  13.661   1.869 -0.1561 -0.1615 -0.0826
 1860W        W19384   8.065   0.278  16.322  0.2252 -0.1445  0.1312
 1861W        W19385  11.703   4.105   0.870  0.1882 -0.0095 -0.2398
 1862W        W19386   8.454   2.723  14.748 -0.1836  0.0723  0.0431
 1863W        W19387  16.809   5.620   4.863  0.1619  0.0961 -0.0096
 1864W        W19388  10.796  15.613  14.025  0.1778 -0.0140 -0.3153
 1865W        W19389  11.516  15.421  16.495 -0.1651  0.0843 -0.2814
 1866W        W19390   2.679  14.183   6.032 -0.1062 -0.1827  0.0197
 1867W        W19391  15.135   9.746   0.903 -0.2349 -0.2102  0.0660
 1868W        W19392  13.472  10.291   3.915 -0.2703 -0.1304 -0.1798
 1869W        W19393   8.648   3.421  15.460 -0.1124  0.0871 -0.0799
 1870W        W19394  11.305  14.769   5.499 -0.0970 -0.0840  0.0453
 1871W        W19395   2.389   2.334  12.232  0.2438  0.0311 -0.2349
 1872W        W19396   2.758   0.043   5.025  0.0344  0.0717 -0.0780
 1873W        W19397  12.369  12.289  13.976 -0.0170 -0.2230 -0.0920
 1874W        W19398  10.123  11.493   3.440 -0.1262  0.0155  0.3291
 1875W        W19399   9.433   0.361   1.784 -0.1165 -0.3651  0.2829
 1876W        W19400  14.614   7.381   0.787  0.1462 -0.0446  0.4404
 1877W        W19401  14.985   6.194  15.104  0.3484 -0.0807  0.0408
 1878W        W19402   4.954   5.366   4.086  0.0254 -0.1493 -0.2784
 1879W        W19403  14.570   4.815  12.792  0.0559 -0.1861 -0.0755
 1880W        W19404   6.113   8.601  15.269 -0.4321 -0.2170  0.2864
 1881W        W19405   7.093  10.179  17.002  0.0270 -0.0194  0.0108
 1882W        W19406  15.642  10.219  16.930  0.1126  0.0450  0.0984
 1883W        W19407  12.723  11.412   3.512 -0.1849  0.0859 -0.1416
 1884W        W19408   3.712  13.838  15.217  0.1913 -0.0887  0.2054
 1885W        W19409  10.404  17.143  14.783 -0.0084  0.0983 -0.0418
 1886W        W19410   1.952   2.296   4.547 -0.3139 -0.2810 -0.2085
 1887W        W19411  12.181   7.610   1.286 -0.2467  0.1234 -0.3700
 1888W        W19412  12.468   9.003   5.405  0.2970  0.2204  0.1043
 1889W        W19413  11.598   5.034  12.317 -0.0486  0.0628 -0.0819
 1890W        W19414  16.622   1.133   0.515 -0.2635 -0.3239  0.0875
 1891W        W19415   7.336   8.199  16.641 -0.0290  0.2896 -0.0557
 1892W        W19416   8.919   6.076  12.762 -0.1503  0.2261  0.3694
 1893W        W19417   9.242   8.116  13.824  0.0751 -0.0411 -0.0763
 1894W        W19418  16.264  16.311  12.128 -0.3634 -0.0537 -0.2347
 1895W        W19419  16.778   3.136   4.757 -0.1520  0.2286 -0.2093
 1896W        W19420  10.559  16.425   0.179 -0.0366 -0.0271 -0.0488
 1897W        W19421  14.174  16.764   0.448  0.1185 -0.1564 -0.1349
 1898W        W19422   0.870  13.522   1.110  0.0312 -0.0214  0.0518
 1899W        W19423   3.945  17.197  13.317 -0.0604 -0.1973  0.1332
 1900W        W19424   1.992  11.571   4.836 -0.1116 -0.0898  0.0661
 1901W        W19425   2.640  14.104  12.947 -0.2599 -0.1630  0.0087
 1902W        W19426   6.417  13.023   5.524 -0.2393  0.0428  0.1346
 1903W        W19427  12.570  16.467   3.682 -0.2256  0.3577 -0.1220
 1904W        W19428   9.376   7.118   5.258  0.1503  0.0624 -0.0118
 1905W        W19429   0.999   6.372   4.016 -0.1645  0.1016  0.1424
 1906W        W19430   0.515   9.804   1.325 -0.0006  0.2915  0.0555
 1907W        W19431  10.402   2.547   4.298  0.0394  0.0717  0.1555
 1908W        W19432  10.061  12.890  15.389  0.0220 -0.1623  0.0341
 1909W        W19433  13.373   6.867  15.999  0.0038 -0.1865  0.0620
 1910W        W19434  10.325  16.283   5.329  0.1130 -0.2918 -0.4132
 1911W        W19435   0.712  13.081  13.158  0.0389 -0.3564 -0.1787
 1912W        W19436   5.235   8.845   2.574 -0.2907  0.0625  0.2135
 1913W        W19437   6.914   6.381   4.665 -0.0045  0.1187  0.1739
 1914W        W19438  17.011  13.030   6.312 -0.0145 -0.0389 -0.1843
 1915W        W19439   8.926   8.220   5.087  0.2781 -0.0390  0.1749
 1916W        W19440   2.918   8.767  14.036 -0.1574 -0.0096  0.0113
 1917W        W19441   3.975  16.808   2.972  0.1576 -0.2140 -0.1721
 1918W        W19442   8.534  11.383  15.471 -0.0911  0.0640 -0.1637
 1919W        W19443  10.691   0.641   1.370  0.1969 -0.0521 -0.0276
 1920W        W19444  10.952  14.551  14.277  0.0361  0.4509  0.2427
 1921W        W19445   4.814   1.589  13.536  0.4406 -0.1336  0.2942
 1922W        W19446   5.974   1.661  14.053  0.2680  0.2857  0.1293
 1923W        W19447   9.540  15.720  16.308 -0.0704  0.0260  0.0940
 1924W        W19448  17.162   9.239  13.071  0.1166  0.2035 -0.0477
 1925W        W19449  13.618  11.788   5.740 -0.0039  0.1178  0.4043
 1926W        W19450   1.355   3.142   4.415 -0.0050  0.1205 -0.1170
 1927W        W19451   4.410   1.794   2.456 -0.0660 -0.2030 -0.2413
 1928W        W19452  12.546  11.442  15.588  0.1136 -0.1136 -0.5252
 1929W        W19453   5.220   6.554   0.955  0.0797 -0.0652  0.0328
 1930W        W19454   2.208  16.323  15.035 -0.0007 -0.0565  0.0465
 1931W        W19455   8.843   7.279  12.551 -0.0613 -0.2515  0.0029
 1932W        W19456  11.458   2.105   4.454 -0.0811  0.0475 -0.0579
 1933W        W19457   0.638   7.102  15.403  0.1150  0.5130 -0.0757
 1934W        W19458   4.013   4.044   4.167 -0.6387 -0.2717 -0.1497
 1935W        W19459   4.086   1.221   5.848  0.0293  0.2812  0.0730
 1936W        W19460  17.201  13.029  15.711  0.1479  0.1481 -0.2759
 1937W        W19461   1.122   3.544  12.213 -0.0426 -0.0771  0.0717
 1938W        W19462  14.636  10.472   2.619 -0.1557 -0.0920  0.1042
 1939W        W19463   7.873  16.010  12.348  0.0049 -0.0185  0.0744
 1940W        W19464   9.792  14.617  16.840  0.1480 -0.0744  0.0171
 1941W        W19465   0.409   3.575  17.308  0.2008  0.3554 -0.3364
 1942W        W19466   6.382   0.911   0.247 -0.0998  0.1770 -0.2973
 1943W        W19467  13.647   8.456  14.892 -0.3051  0.0319 -0.0013
 1944W        W19468   2.306   0.151   4.297 -0.3639 -0.1320  0.3611
 1945W        W19469  12.992   5.679   5.195 -0.1237  0.4216  0.0151
 1946W        W19470   9.735   6.275  17.579  0.1906  0.0846 -0.1333
 1947W        W19471   2.802  11.060   5.220  0.2617 -0.0608  0.0701
 1948W        W19472   6.078   8.009   2.035 -0.0972  0.1842 -0.2339
 1949W        W19473  16.661   9.352   0.362 -0.0915 -0.2084  0.1241
 1950W        W19474  11.142  14.322  14.643 -0.0952 -0.2654  0.0312
 1951W        W19475   0.013   4.794   0.246 -0.0672 -0.2169 -0.0153
 1952W        W19476   7.158  11.502   1.311 -0.4344  0.3482 -0.1809
 1953W        W19477  12.790  15.442   0.120  0.0584 -0.3081 -0.2046
 1954W        W19478  10.514   3.179  13.510  0.4225 -0.1463  0.1070
 1955W        W19479   7.678   7.109   2.288 -0.3655  0.3355  0.0375
 1956W        W19480  15.692  12.701   4.628  0.1145  0.0314  0.0373
 1957W        W19481  17.108   6.941  14.374 -0.0139  0.0733  0.2055
 1958W        W19482   9.697   2.618  16.263 -0.0602  0.1030  0.2046
 1959W        W19483   7.503   2.518  14.928  0.1828  0.1627  0.2417
 1960W        W19484  15.013   7.510   3.769 -0.2329 -0.1864  0.0312
 1961W        W19485  10.100   9.500  16.795 -0.0257  0.1247 -0.1097
 1962W        W19486  12.689   8.650  15.926  0.0658 -0.3644 -0.1747
 1963W        W19487   9.811  11.862   5.387 -0.1550  0.2328  0.3635
 1964W        W19488  10.600   0.534  17.120  0.3248  0.2902  0.0406
 1965W        W19489  10.560   0.146  14.327  0.1133 -0.0180  0.1803
 1966W        W19490  10.497  12.443   0.637  0.1325  0.1024  0.2096
 1967W        W19491   3.327   4.548   1.005  0.0677 -0.0159 -0.0995
 1968W        W19492   9.025   8.658   1.084 -0.0510 -0.0031  0.1818
 1969W        W19493   8.527   1.762   4.897 -0.2176 -0.3232 -0.0473
 1970W        W19494   2.106  15.751   0.946 -0.0391  0.1478  0.0132
 1971W        W19495  14.141   3.368  17.594  0.2665  0.0514 -0.1812
 1972W        W19496  16.937   1.024  13.704  0.0445 -0.0036 -0.0198
 1973W        W19497   6.767  15.290  16.577  0.2569 -0.0030  0.0399
 1974W        W19498  10.089  13.947  12.797  0.0693  0.0806  0.1689
 1975W        W19499  11.937  14.738  13.350  0.2879  0.3559 -0.0706
 1976W        W19500  11.586  11.852  13.808  0.1144 -0.1083 -0.1755
 1977W        W19501   6.106   5.710  15.394  0.0069  0.2848  0.0652
 1978W        W19502   5.199   8.014  14.109 -0.0949  0.0452 -0.0912
 1979W        W19503  13.657   2.972  16.458  0.0359 -0.2523  0.4412
 1980W        W19504   1.763   5.857  11.552  0.0881 -0.2530  0.2453
 1981W        W19505  15.902  10.493   3.677  0.0866 -0.0447 -0.0062
 1982W        W19506   4.942   1.083   4.160  0.2259 -0.2730  0.0865
 1983W        W19507  16.026  15.446  15.800 -0.1433  0.1329  0.0345
 1984W        W19508   4.875  12.829  14.950 -0.1052 -0.0941 -0.2085
 1985W        W19509   8.893   1.266  16.147  0.3354 -0.1510 -0.0944
 1986W        W19510   3.883  16.155  15.185 -0.1641 -0.2650  0.2929
 1987W        W19511   7.114  10.716   3.766 -0.3628  0.0501 -0.1424
 1988W        W19512  16.795  16.711   4.134 -0.0472  0.3172 -0.0180
 1989W        W19513  14.698  16.073   2.378  0.3323  0.0649  0.0474
 1990W        W19514   5.403   8.726  12.732 -0.3214 -0.0895  0.1701
 1991W        W19515  11.324   3.103  12.749 -0.0529 -0.4370 -0.1948
 1992W        W19516  10.959  11.655  14.497  0.1450 -0.0170 -0.1510
 1993W        W19517  11.927   9.733   0.185 -0.0672 -0.0806 -0.0226
 1994W        W19518   0.867   6.122  13.950 -0.0421 -0.2125 -0.2014
 1995W        W19519   1.840   1.944  17.389  0.1566 -0.0487 -0.0062
 1996W        W19520   9.570   3.019   2.038 -0.1493 -0.2266  0.2402
 1997W        W19521  13.413   7.142  12.870  0.0163 -0.1039 -0.0452
 1998W        W19522   2.763  12.977  12.943 -0.2367 -0.3674  0.0333
 1999W        W19523  11.708  13.201   1.677  0.3596  0.2470 -0.0132
 2000W        W19524  11.917  10.517   4.831  0.0352 -0.0996 -0.0987
 2001W        W19525   5.889   1.282   3.428 -0.1400  0.1773  0.1777
 2002W        W19526   8.853  11.715   3.545  0.0135  0.3598 -0.0940
 2003W        W19527  10.551   8.784   1.611  0.0072 -0.0156 -0.2413
 2004W        W19528  14.896   1.977   5.046  0.1327  0.1051  0.2709
 2005W        W19529  17.154  14.223   0.381  0.2697 -0.1843 -0.2451
 2006W        W19530  13.039   9.870   4.579 -0.2181  0.0244 -0.1557
 2007W        W19531   3.825   3.176  13.493  0.1320  0.0695 -0.1607
 2008W        W19532  14.461  13.513  12.820 -0.0056  0.0768 -0.0623
 2009W        W19533   4.960   1.831   5.292 -0.0214 -0.2678 -0.0194
 2010W        W19534   8.666   5.864  15.971  0.1168 -0.0614 -0.1580
 2011W        W19535   7.564   3.042   5.153 -0.0417  0.0659 -0.1656
 2012W        W19536   3.179   2.992  12.927  0.0092  0.2338 -0.0916
 2013W        W19537  15.349  12.367   2.870  0.2161 -0.2110 -0.1090
 2014W        W19538  13.098  16.671  14.503 -0.1190  0.0484 -0.0342
 2015W        W19539   7.059   5.872   3.333  0.4516 -0.1461 -0.0380
 2016W        W19540   3.259   5.172  13.531 -0.0022 -0.1555 -0.0410
 2017W        W19541  11.233   2.358  15.429 -0.1318 -0.1664 -0.0897
 2018W        W19542   0.189   8.433   0.951 -0.0254  0.0763 -0.1137
 2019W        W19543  15.024   7.177   5.059 -0.1373  0.2373 -0.0175
 2020W        W19544   6.329  11.181  14.437 -0.2121  0.0389  0.0156
 2021W        W19545   0.325  12.806   3.872  0.0207 -0.0755  0.2362
 2022W        W19546   5.565  17.117   1.941 -0.1754 -0.0684 -0.1153
 2023W        W19547   3.423   1.198   3.524 -0.1382  0.0755  0.3733
 2024W        W19548  14.367  14.034  15.533 -0.1084 -0.1353  0.0505
 2025W        W19549   9.344   1.552   4.542  0.1204 -0.0272  0.1454
 2026W        W19550  16.131   5.222   3.142 -0.1035  0.1918  0.1465
 2027W        W19551   3.371   7.329  14.947 -0.0466  0.0441 -0.0207
 2028W        W19552  12.832  10.504  16.496  0.5157 -0.0540 -0.3086
 2029W        W19553   6.488  14.600   4.388  0.0204 -0.0022  0.3503
 2030W        W19554   6.990   5.518   3.005 -0.1385  0.0151 -0.2356
 2031W        W19555  14.932  14.263   3.629  0.1452  0.1056 -0.0444
 2032W        W19556  11.939  16.712  11.946  0.0674  0.1675 -0.0135
 2033W        W19557   6.682   3.805   5.559 -0.3142  0.0108  0.0182
 2034W        W19558  15.586  10.342  14.294 -0.1659  0.1777  0.4206
 2035W        W19559   2.373   7.708   4.872  0.3521 -0.2251  0.2126
 2036W        W19560   8.788   6.738   1.422  0.0266  0.4267 -0.3962
 2037W        W19561  16.996   0.368   0.279 -0.0432 -0.0445  0.0165
 2038W        W19562   2.138   1.653   5.680  0.1093 -0.2293 -0.1086
 2039W        W19563  14.292  10.452  16.831 -0.0266 -0.0506 -0.0776
 2040W        W19564   9.360  15.078  17.472  0.1451  0.1886 -0.0611
 2041W        W19565  15.502   3.350   4.500 -0.0810 -0.1048 -0.1040
 2042W        W19566  13.523  11.312  14.168 -0.0156 -0.1266  0.1201
 2043W        W19567   3.823   7.652   2.850 -0.4750  0.1110 -0.2602
 2044W        W19568  15.127  12.711   4.679 -0.2718  0.0374 -0.1067
 2045W        W19569   6.501   6.742  12.569  0.2977  0.3482  0.4134
 2046W        W19570  14.052  10.318   0.216  0.2709  0.1109  0.1129
 2047W        W19571  13.183  12.431  16.177 -0.1381 -0.0227  0.2183
 2048W        W19572  16.263   9.953  17.463 -0.1130 -0.1137  0.0992
 2049W        W19573  15.556   1.040  13.530 -0.1138  0.0108  0.2115
 2050W        W19574  15.849  17.181  15.857  0.2245  0.3493 -0.1021
 2051W        W19575  10.451   4.417   0.299 -0.2985  0.0652 -0.0188
 2052W        W19576   6.239   3.946  15.478 -0.1680 -0.0044  0.0617
 2053W        W19577   5.227  12.445  16.192  0.0762  0.1868 -0.2783
 2054W        W19578  15.675   9.325   2.572 -0.0775 -0.0748 -0.0981
 2055W        W19579  12.837  17.181  17.189  0.1177 -0.1208  0.0475
 2056W        W19580   4.430  11.208  12.573  0.1780  0.1402  0.0012
 2057W        W19581   2.644   8.616  12.512 -0.3190  0.0588 -0.0822
 2058W        W19582  14.238  11.246  11.596 -0.0301  0.3064  0.0876
 2059W        W19583  12.843  13.295  16.229 -0.0461 -0.2665 -0.0050
 2060W        W19584   9.865  16.154   0.264  0.4298  0.4189 -0.2538
 2061W        W19585   8.923  11.923   5.391 -0.0885  0.2863  0.0982
 2062W        W19586  16.598  17.134   4.113  0.3425 -0.0191  0.1557
 2063W        W19587   0.184   3.690  14.894 -0.2864 -0.3787 -0.3017
 2064W        W19588  11.921   0.048   2.800 -0.1290  0.2873 -0.1309
 2065W        W19589  11.769  14.336  14.376  0.0034 -0.0159 -0.2031
 2066W        W19590   5.154  10.181   1.906  0.0310 -0.0959 -0.0910
 2067W        W19591   1.824   4.621  13.158  0.0259  0.0311  0.1002
 2068W        W19592   4.641   3.962   5.269 -0.1766  0.2325 -0.1818
 2069W        W19593  16.760  15.498   3.603 -0.1381  0.0903  0.0155
 2070W        W19594   6.234  14.573  14.078 -0.2757  0.0871  0.1501
 2071W        W19595   3.156   1.635   3.304  0.0862 -0.0027  0.0624
 2072W        W19596  12.564   2.399   0.043 -0.2884 -0.3063  0.0684
 2073W        W19597  11.538   9.887   3.268 -0.1203  0.1337  0.2583
 2074W        W19598   1.928  11.101   1.729 -0.0312  0.1900  0.0900
 2075W        W19599   7.121  12.404  14.269  0.0703 -0.1051  0.3393
 2076W        W19600   6.543  12.686  14.746 -0.1108 -0.1566 -0.1796
 2077W        W19601   7.125  17.151   4.581  0.2886  0.1319  0.0414
 2078W        W19602   1.118   2.140  12.327 -0.1114 -0.2433  0.1453
 2079W        W19603   9.810  15.361   2.969 -0.1680  0.0955  0.0311
 2080W        W19604  13.639   1.230   5.829  0.1384  0.0833 -0.1477
 2081W        W19605   8.167   0.412   2.371 -0.0342  0.2462  0.0068
 2082W        W19606  16.195   8.353   2.314  0.0363 -0.0157 -0.2842
 2083W        W19607  15.785   7.301   1.121  0.3445  0.0086  0.0316
 2084W        W19608  13.561   8.958  13.699 -0.0937 -0.1677 -0.2314
 2085W        W19609   2.308  13.369  16.536  0.1412 -0.1129 -0.1048
 2086W        W19610  12.948   8.185  15.022  0.0917 -0.1645  0.1094
 2087W        W19611   2.307  13.926  12.168  0.2675 -0.0849  0.2256
 2088W        W19612  15.738  16.217  16.186 -0.0255 -0.1480  0.2130
 2089W        W19613   3.830   9.752   1.557  0.1878 -0.2876 -0.2557
 2090W        W19614   2.046  10.074  16.484 -0.1472  0.1355 -0.4193
 2091W        W19615  12.318   0.667  17.444  0.0291 -0.0259  0.1104
 2092W        W19616   1.821   8.722  14.520  0.3091 -0.0338  0.0188
 2093W        W19617   8.421   2.225   2.861  0.1465 -0.2766  0.0776
 2094W        W19618  16.348  15.623  16.201 -0.0362  0.0536  0.1246
 2095W        W19619  13.855   3.659  13.814  0.0661 -0.1686 -0.2080
 2096W        W19620  13.561  15.735   4.972  0.1254 -0.1430  0.0574
 2097W        W19621   6.412   8.613  13.971  0.1209 -0.1356  0.1079
 2098W        W19622   2.059   6.085  16.831 -0.1872  0.0691  0.0389
 2099W        W19623  11.562   5.470  16.537 -0.3185  0.0930  0.2275
 2100W        W19624  17.096  15.494  16.902  0.2494  0.0475  0.3080
 2101W        W19625  11.116   7.243   4.093 -0.1018 -0.0953  0.2204
 2102W        W19626   9.198  10.373  16.473 -0.4220  0.1118 -0.2208
 2103W        W19627  12.478   0.681  16.746  0.0398 -0.1382  0.2095
 2104W        W19628   4.228  11.028   1.940 -0.2191 -0.2647 -0.1182
 2105W        W19629   2.341  11.387   1.462 -0.2338 -0.0426 -0.1075
 2106W        W19630   4.675  11.068  14.144  0.3707 -0.0143  0.0846
 2107W        W19631   8.696   9.587   3.729 -0.0230 -0.0553 -0.2810
 2108W        W19632   7.049   6.414  13.759  0.1529  0.0089 -0.3430
 2109W        W19633  14.730   4.413   3.444  0.1740 -0.0456 -0.2592
 2110W        W19634   7.438   9.889   6.698  0.0099 -0.3199 -0.1688
 2111W        W19635   3.499   6.296   4.923 -0.0885 -0.0797 -0.3728
 2112W        W19636   2.272  14.213   0.567 -0.1621  0.0737  0.0623
 2113W        W19637   4.013  10.276   0.388  0.3430 -0.0042 -0.1084
 2114W        W19638  11.126   2.210   4.852  0.0734 -0.1888 -0.1900
 2115W        W19639   7.924   1.613   1.632  0.1049 -0.3203  0.0883
 2116W        W19640   2.947  11.097  14.111 -0.2457  0.2271  0.3249
 2117W        W19641   1.543  11.659   3.180  0.5576 -0.1353 -0.0001
 2118W        W19642   4.466   5.367  17.453 -0.0571  0.2424 -0.0967
 2119W        W19643  14.481   3.313   2.324  0.0154 -0.1675  0.2474
 2120W        W19644   4.866   2.751   1.705 -0.0764 -0.0203 -0.1541
 2121W        W19645   7.048   9.641   4.599 -0.0790 -0.1364  0.1654
 2122W        W19646  15.599   5.005  16.928  0.1888  0.2436  0.2660
 2123W        W19647  11.107   7.536   4.694  0.2517 -0.2687  0.0540
 2124W        W19648  14.396   1.332   5.316  0.0513  0.3170 -0.1394
 2125W        W19649  13.883  14.209   3.591 -0.1454  0.2228  0.0638
 2126W        W19650   9.000  11.351  15.633  0.2156 -0.0896  0.3092
 2127W        W19651   3.248   3.250   2.927  0.3192 -0.1955 -0.0974
 2128W        W19652   9.247  16.096  11.522  0.0407 -0.0763 -0.0829
 2129W        W19653  14.696  13.370  11.953  0.0583  0.1323  0.1674
 2130W        W19654  16.075  17.198  14.726  0.1609 -0.0267 -0.2023
 2131W        W19655   2.862  10.480  12.416 -0.3133  0.0216 -0.1867
 2132W        W19656  15.341  17.243  16.174 -0.1459 -0.1590  0.0778
 2133W        W19657  16.228   2.369  14.429  0.2202  0.1212 -0.0795
 2134W        W19658  10.309  15.358   2.577 -0.4187 -0.3227  0.0346
 2135W        W19659   4.234   8.844  16.982  0.1948  0.0568 -0.0521
 2136W        W19660  16.807   3.867   0.740 -0.2336 -0.1397  0.0500
 2137W        W19661   1.563   7.833  13.972  0.0364  0.0161 -0.0659
 2138W        W19662   2.440  14.737  17.632  0.1152  0.4498  0.2571
 2139W        W19663   3.544   9.446   2.045 -0.2556 -0.0115 -0.1546
 2140W        W19664   6.584  11.211  15.460 -0.0846  0.1307  0.0022
 2141W        W19665  17.039  13.627  14.799 -0.0508  0.3500 -0.0479
 2142W        W19666   9.859   8.977  15.312  0.2374 -0.0798 -0.0713
 2143W        W19667  13.009   2.375   1.720 -0.1746  0.1080 -0.0868
 2144W        W19668   8.913  15.507  14.940  0.0505 -0.1069 -0.1311
 2145W        W19669  13.393  14.936  13.137 -0.0051 -0.0463  0.1488
 2146W        W19670   3.788  16.223   0.437 -0.2917  0.4462 -0.2378
 2147W        W19671   5.113  10.083   1.007  0.0565  0.3159 -0.2437
 2148W        W19672   6.279  15.119   1.267  0.1402 -0.0269 -0.1965
 2149W        W19673  16.248   6.509  12.278  0.1574  0.0231  0.0780
 2150W        W19674  14.115   5.197   1.052 -0.3197  0.0182  0.2297
 2151W        W19675   3.367   2.702  12.436  0.3158 -0.0875 -0.0850
 2152W        W19676   9.533  13.110   3.048  0.2965  0.1232 -0.3188
 2153W        W19677  16.869  11.707   1.923  0.0402 -0.0849 -0.1823
 2154W        W19678   1.256   3.033   0.690  0.0551 -0.2897 -0.1268
 2155W        W19679  10.217   3.537  16.390 -0.0799  0.0549  0.1529
 2156W        W19680  17.186  11.641   2.948  0.2110  0.1940  0.3887
 2157W        W19681   8.071  15.289  13.700 -0.1945  0.2695 -0.0386
 2158W        W19682  10.535   1.142  16.465 -0.2078  0.0838  0.2252
 2159W        W19683   8.005   5.053   3.895  0.3479  0.2088  0.0403
 2160W        W19684  16.011   1.884   3.148 -0.0628  0.1402 -0.0214
 2161W        W19685   1.502   4.866  14.161 -0.0375 -0.0169  0.0441
 2162W        W19686   6.646   8.173   5.104  0.0661  0.1556 -0.3822
 2163W        W19687   8.835   1.510   4.510  0.0964  0.0935  0.0055
 2164W        W19688   7.498   9.079   0.081 -0.2922 -0.4627 -0.1910
 2165W        W19689   6.103  12.782  13.219 -0.2175  0.0149  0.0071
 2166W        W19690  13.027   4.690  15.263  0.3052  0.1761  0.2817
 2167W        W19691   1.144   4.270   3.462  0.2337 -0.1053  0.0422
 2168W        W19692   0.867   8.176  15.639 -0.0161 -0.1468 -0.3802
 2169W        W19693   2.309  15.432   2.476 -0.1325 -0.0643  0.1616
 2170W        W19694   4.403   1.544  14.391  0.0952 -0.1935 -0.3529
 2171W        W19695   8.751   5.922   0.912  0.1994  0.0734  0.0286
 2172W        W19696   2.725   4.125  17.511 -0.0157 -0.1664  0.1838
 2173W        W19697   7.581   1.215  16.252  0.0109 -0.2635  0.0814
 2174W        W19698   3.311   9.142  12.047  0.0318 -0.2064 -0.0740
 2175W        W19699  16.233   1.288   2.435  0.3101  0.1558  0.1185
 2176W        W19700  16.747  15.007  12.248  0.0958  0.3231 -0.2490
 2177W        W19701   7.186   7.402  15.227 -0.2971 -0.3941  0.0200
 2178W        W19702   4.547  14.422  13.482  0.1433  0.0104  0.0632
 2179W        W19703  13.821  15.863   5.792 -0.0026  0.3432 -0.0409
 2180W        W19704  10.503   9.416  12.311  0.0145 -0.4245 -0.0706
 2181W        W19705  14.940   3.549   2.011 -0.2878  0.0961 -0.1082
 2182W        W19706   4.992   8.180  17.656  0.5159 -0.2664 -0.1591
 2183W        W19707   7.809  11.328   5.287 -0.0499 -0.2968 -0.0816
 2184W        W19708   5.286  16.407  14.658  0.0446  0.1512  0.0834
 2185W        W19709   8.188  14.874   4.616 -0.1150  0.0598  0.0763
 2186W        W19710   8.888   6.505   4.260  0.0922 -0.1172 -0.0354
 2187W        W19711  13.128  16.248  13.479 -0.1072 -0.1331  0.2960
 2188W        W19712   4.610   3.357  13.880  0.0729  0.0816  0.0673
 2189W        W19713  10.908   4.898   4.145 -0.0938  0.0825 -0.0606
 2190W        W19714  14.113  14.018   1.259 -0.4577  0.5124  0.1329
 2191W        W19715  11.520  13.998   3.886 -0.0611 -0.0947  0.3580
 2192W        W19716  12.243  15.203  12.560  0.0125  0.1447  0.0453
 2193W        W19717   8.557   4.601  15.568  0.0545  0.3515  0.1459
 2194W        W19718   1.115  13.892  12.895  0.0527  0.0189 -0.0007
 2195W        W19719   8.863   4.487   4.825 -0.0047 -0.0558 -0.1775
 2196W        W19720   9.936   6.639   0.428  0.0975 -0.2340  0.0345
 2197W        W19721   7.840  10.322  15.761  0.1113  0.0591  0.1587
 2198W        W19722  13.933   2.144  16.827 -0.1395  0.0089  0.1883
 2199W        W19723  17.025  13.983   1.937  0.1717 -0.0349 -0.1264
 2200W        W19724   3.722   7.690  14.437  0.1322 -0.0201  0.0826
 2201W        W19725   9.714   4.326   1.249  0.1430  0.1289 -0.0581
 2202W        W19726  11.238  14.102  15.087 -0.1778  0.1074  0.2210
 2203W        W19727  12.153   4.200   2.802  0.1512 -0.3209 -0.0507
 2204W        W19728   7.360   9.527  13.214  0.0301 -0.2606  0.0587
 2205W        W19729   5.497  15.427   4.842  0.2946 -0.1633 -0.0150
 2206W        W19730   4.511  12.716   1.723 -0.0522 -0.1432  0.1962
 2207W        W19731   5.832   7.505   1.910  0.1998  0.0990  0.0687
 2208W        W19732  13.547   4.905   4.361 -0.0093 -0.1687 -0.0164
 2209W        W19733   7.541   8.387   5.104  0.1285 -0.0811  0.1734
 2210W        W19734   6.655   5.954   3.731 -0.0324 -0.1722  0.0076
 2211W        W19735   7.500   0.748  15.934  0.1196  0.1488  0.1183
 2212W        W19736  10.734   0.063  13.859  0.2445 -0.1279  0.0094
 2213W        W19737  14.572  11.542  14.275  0.1664  0.2489  0.0676
 2214W        W19738  10.455  13.002   0.161  0.2916  0.0694 -0.2971
 2215W        W19739   2.776  11.590   3.291 -0.2026  0.0174  0.2809
 2216W        W19740   9.027   9.337  15.816 -0.3391 -0.1421  0.0361
 2217W        W19741   8.743   9.813   4.737  0.1368  0.2202  0.2089
 2218W        W19742  10.658  16.128   0.984 -0.0591  0.0393 -0.1640
 2219W        W19743  12.060   4.297   0.646 -0.1231 -0.0101  0.4003
 2220W        W19744   3.413  10.378   5.507  0.2990  0.0052  0.0157
 2221W        W19745   8.587  11.210   2.021 -0.2485 -0.2204 -0.1588
 2222W        W19746  13.809   6.138  14.465 -0.0473 -0.0118 -0.0586
 2223W        W19747   0.855  15.926   4.627  0.2205 -0.0311  0.2622
 2224W        W19748   1.201   1.262   0.131 -0.0180  0.1588 -0.2730
 2225W        W19749  14.699  11.288  11.838  0.0303  0.1687  0.0490
 2226W        W19750   2.713  14.038   2.841  0.2326  0.1212 -0.1936
 2227W        W19751   7.427   3.393   2.634  0.1817 -0.3171  0.0284
 2228W        W19752   9.754   8.541  12.717 -0.2136 -0.0589  0.0281
 2229W        W19753   1.271   9.583  15.931  0.0606 -0.1065  0.0435
 2230W        W19754  16.192   9.841  11.782 -0.0121  0.0241  0.1519
 2231W        W19755   1.707   4.913  12.494  0.0525  0.0096  0.0420
 2232W        W19756   0.209  10.779  11.583 -0.1331  0.0490  0.2513
 2233W        W19757   1.807   0.589  15.867  0.1009  0.2337 -0.1292
 2234W        W19758   5.890   9.373  14.895  0.1664 -0.2821 -0.1358
 2235W        W19759   4.551   1.651   1.464  0.0263  0.1800  0.0443
 2236W        W19760  12.243   3.211   1.735 -0.1139  0.0948 -0.2522
 2237W        W19761   8.997   5.618   4.804  0.0533 -0.0243 -0.1512
 2238W        W19762   2.603   8.198   3.317 -0.1192 -0.0075  0.1839
 2239W        W19763  12.426  12.594   2.479  0.0205  0.3413 -0.0149
 2240W        W19764  14.554  16.991  16.770  0.1070  0.0476 -0.3065
 2241W        W19765  12.618  15.315  13.809 -0.4657  0.0926  0.2503
 2242W        W19766  15.968  13.834  14.342 -0.3826 -0.1160  0.2006
 2243W        W19767  11.197   9.465  13.029 -0.1780 -0.1410  0.0398
 2244W        W19768   6.315   3.091  16.057  0.2745  0.1782 -0.0677
 2245W        W19769   6.842   4.237  14.732  0.0900 -0.0651 -0.4526
 2246W        W19770   7.181   8.496   1.472  0.1982 -0.0248  0.0395
 2247W        W19771  14.962   6.512  16.834 -0.3821 -0.2272 -0.3052
 2248W        W19772   7.705   2.816  15.592 -0.1255 -0.1362  0.0661
 2249W        W19773  12.731   4.521  16.134  0.2399 -0.3873  0.0623
 2250W        W19774   2.056   1.864   1.370  0.0616 -0.0448 -0.1312
 2251W        W19775   6.876  11.100   4.087  0.1344  0.0750  0.0627
 2252W        W19776   4.406   8.712   5.276  0.2490 -0.0560 -0.1456
 2253W        W19777   1.785   5.936  15.505  0.2229 -0.2403  0.1846
 2254W        W19778   2.247  13.497   1.441 -0.3305  0.1579 -0.2851
 2255W        W19779   7.988  16.778   0.769  0.2515 -0.0029 -0.0061
 2256W        W19780   0.287   6.411  12.131  0.1827 -0.1282 -0.4117
 2257W        W19781  10.166   8.693   2.047 -0.0011  0.2497 -0.1089
 2258W        W19782  16.711  15.614  13.250  0.3650 -0.0331  0.0785
 2259W        W19783   2.244  14.318  12.603 -0.0514  0.1004 -0.1537
 2260W        W19784  15.526  16.487  16.570  0.1929 -0.0523 -0.1109
 2261W        W19785   4.099  11.491   0.763  0.1288 -0.2219 -0.3697
 2262W        W19786  15.847  14.723   0.437  0.1685  0.3315 -0.1227
 2263W        W19787   0.218  13.602  13.484 -0.0487 -0.0179  0.0326
 2264W        W19788   8.390   3.057  16.194  0.0097  0.0223 -0.3652
 2265W        W19789   0.247   3.566  15.392 -0.0246 -0.0122 -0.0077
 2266W        W19790   6.626   4.618   0.422  0.3316 -0.1219  0.0020
 2267W        W19791  12.668   7.323  15.526 -0.1267 -0.3004 -0.0394
 2268W        W19792  10.454   7.465   6.009  0.3128 -0.1479  0.1274
 2269W        W19793   7.692   1.540   5.602 -0.0303 -0.0768 -0.1213
 2270W        W19794   5.382   9.660   2.660 -0.0441 -0.0860 -0.0922
 2271W        W19795  12.780   1.987   0.279 -0.4478 -0.2555 -0.2236
 2272W        W19796   7.037  16.338   2.006 -0.1212  0.2942  0.2414
 2273W        W19797  11.645  17.139   0.118  0.0253 -0.0845  0.0448
 2274W        W19798   5.664   5.301  17.036 -0.2962 -0.2522 -0.1154
 2275W        W19799   7.578  17.037  12.423  0.0137 -0.1515 -0.0001
 2276W        W19800  15.096  12.911   1.136 -0.0866  0.0659  0.2230
 2277W        W19801  11.388   0.045   4.575  0.1779  0.2085 -0.1146
 2278W        W19802  10.554   7.199  17.520  0.2999  0.2751  0.0842
 2279W        W19803   1.100   2.657  16.440 -0.0224 -0.0454 -0.1951
 2280W        W19804   3.931   6.062   1.742 -0.0315 -0.0935 -0.1007
 2281W        W19805   2.224   3.881  16.567  0.4332 -0.1807  0.1259
 2282W        W19806   6.519   5.896   1.431 -0.0506  0.2106  0.3877
 2283W        W19807  13.755   8.580  12.747 -0.0407 -0.0005 -0.0409
 2284W        W19808  15.399   5.052   2.421  0.0568 -0.0553  0.1029
 2285W        W19809  14.273  14.002   0.537  0.2126 -0.3361  0.3021
 2286W        W19810  16.365  11.601   2.197 -0.1609 -0.3254 -0.1007
 2287W        W19811  10.676  10.061  16.495  0.2065 -0.0943 -0.0606
 2288W        W19812  14.294  14.676  12.904 -0.1552 -0.1914  0.1488
 2289W        W19813   4.258  11.830  14.860  0.1527 -0.0782 -0.0034
 2290W        W19814   2.628   7.067   4.802  0.0334  0.0546 -0.1275
 2291W        W19815  15.361   5.438   2.863  0.1165  0.0961 -0.0835
 2292W        W19816  10.647   2.462  15.540  0.2501  0.2637  0.3728
 2293W        W19817   6.982   9.040   4.635  0.0294  0.2010 -0.2715
 2294W        W19818  15.653   5.955   3.605  0.2278  0.1813  0.1098
 2295W        W19819   0.368   2.048   4.780  0.0116  0.1616  0.3097
 2296W        W19820   1.869   9.056   1.552  0.0816  0.0788  0.3409
 2297W        W19821   3.732  15.496  12.832  0.1193  0.0574  0.0019
 2298W        W19822   0.338  14.580  12.293  0.3826 -0.0191  0.1266
 2299W        W19823   5.319   0.123  16.812  0.2372 -0.1135 -0.0346
 2300W        W19824   3.552   1.490   1.098  0.2489  0.1995  0.0164
 2301W        W19825  13.809   1.542   3.464 -0.0135 -0.0258 -0.0908
 2302W        W19826  13.583   4.744   4.952  0.0203 -0.1546  0.1298
 2303W        W19827  12.017  11.834   0.911  0.0373  0.1894 -0.0565
 2304W        W19828   1.500   0.669   1.835 -0.2329 -0.1406  0.1097
 2305W        W19829   4.355  14.149   1.501 -0.2937  0.1280 -0.0078
 2306W        W19830   2.506   2.446   0.315 -0.4608  0.1839  0.1032
 2307W        W19831   3.775   3.328  15.693 -0.1684 -0.0934  0.0426
 2308W        W19832   6.875   0.170  16.220 -0.1141  0.2287 -0.1254
 2309W        W19833   8.121   2.036   3.755 -0.1639  0.0938  0.0739
 2310W        W19834   9.992  10.724  14.753 -0.1822  0.2324  0.2334
 2311W        W19835   0.964  16.604   3.304 -0.2004 -0.0566  0.1705
 2312W        W19836   8.341   7.817   3.897 -0.1185  0.4102 -0.0175
 2313W        W19837   5.244   0.881   5.367 -0.1308 -0.0663 -0.0334
 2314W        W19838   5.538  14.635   2.918 -0.3850 -0.0326  0.0092
 2315W        W19839   1.164   6.919  16.390  0.1528 -0.2347  0.2632
 2316W        W19840  13.647  12.168  16.062  0.0060  0.0391  0.0334
 2317W        W19841   1.722   1.291   0.306  0.0837 -0.0461 -0.0443
 2318W        W19842   9.484   6.074   0.330 -0.0409  0.0910 -0.0583
 2319W        W19843  11.069  15.577  16.627 -0.0986 -0.0159  0.0311
 2320W        W19844   4.703  13.132  13.508 -0.0859  0.0768 -0.0019
 2321W        W19845   8.914   7.918   3.255  0.0260 -0.0874  0.1014
 2322W        W19846  13.215   1.092   3.940  0.0069  0.0468 -0.0700
 2323W        W19847   6.364  10.218   2.570  0.0382 -0.1089 -0.2175
 2324W        W19848  11.227  15.337   4.498 -0.1442  0.1407 -0.0230
 2325W        W19849   7.017   2.029  15.269  0.0421 -0.1589 -0.0358
 2326W        W19850   4.271   0.182  12.030 -0.0773 -0.1491  0.0386
 2327W        W19851   0.204  10.438  12.918  0.2335 -0.3168 -0.0708
 2328W        W19852   9.727  11.830  14.247 -0.0325  0.2300  0.3547
 2329W        W19853   6.754   3.480  17.285 -0.1067  0.0685 -0.3955
 2330W        W19854  15.109   1.198  13.742 -0.1305 -0.3120  0.0734
 2331W        W19855   9.275   7.048   0.385 -0.1470 -0.3310  0.3245
 2332W        W19856   5.319  16.179   1.386 -0.2079  0.1168  0.0399
 2333W        W19857   5.372   9.650   3.194  0.2836  0.2704 -0.3156
 2334W        W19858   4.278   1.867   4.217 -0.0409  0.0529 -0.1595
 2335W        W19859  15.284   2.188   0.648 -0.0435  0.1103 -0.1478
 2336W        W19860  11.481   9.852   5.337  0.0197  0.0948  0.3233
 2337W        W19861  12.446   9.203  12.580 -0.0307  0.2652  0.0391
 2338W        W19862   9.739  16.558   3.264 -0.0492  0.1662 -0.0591
 2339W        W19863  11.976   2.667  15.874 -0.1157 -0.1799 -0.2561
 2340W        W19864   7.224   4.738  17.061 -0.0810  0.3112  0.0166
 2341W        W19865  13.362   0.912  13.443  0.3719  0.1073  0.0391
 2342W        W19866  16.087  16.594  16.415  0.1619  0.1932  0.1563
 2343W        W19867  11.577  16.386   3.016 -0.0044  0.0230  0.2715
 2344W        W19868   4.045  10.684   2.393  0.0604 -0.0605 -0.1072
 2345W        W19869   1.866   2.859   0.399  0.3746 -0.0418  0.1394
 2346W        W19870   9.826   5.843  16.760  0.4634  0.0188 -0.1309
 2347W        W19871   0.205  11.637   0.846 -0.2621  0.0365 -0.1869
 2348W        W19872  14.563   9.065   6.240 -0.1564 -0.0258  0.1110
 2349W        W19873   3.657   3.106  16.143  0.3411 -0.0636  0.0089
 2350W        W19874  11.189   0.987  14.927 -0.0583  0.0586  0.2901
 2351W        W19875   6.945   1.577   5.010  0.3024 -0.2866 -0.1340
 2352W        W19876  13.771   2.094   3.475  0.1861 -0.0148  0.0560
 2353W        W19877  11.604   6.060   0.291 -0.0093 -0.0807 -0.3770
 2354W        W19878   3.822  14.747   2.846 -0.1780  0.1593  0.0968
 2355W        W19879  14.529   5.672   0.411 -0.0995 -0.3493  0.0460
 2356W        W19880   9.180  15.361  17.038 -0.1333  0.0276  0.0897
 2357W        W19881  16.067   0.455  17.347  0.1422  0.0134 -0.1589
 2358W        W19882  12.492   5.771  17.618 -0.0301  0.1256  0.2150
 2359W        W19883  14.680  15.434   2.954 -0.0273  0.1091  0.1524
 2360W        W19884  14.132  14.310   4.070  0.4185  0.0389 -0.0896
 2361W        W19885   7.699   1.345   1.276 -0.0236 -0.1269  0.2097
 2362W        W19886  14.272   1.956   0.075 -0.1118 -0.2158 -0.2014
 2363W        W19887   0.005  10.638   0.741  0.0203  0.1024 -0.0617
 2364W        W19888   9.951  13.188  13.185  0.1977  0.1035 -0.0456
 2365W        W19889   6.911  11.222   2.863 -0.4295 -0.1750  0.0155
 2366W        W19890   6.667   8.958  14.388 -0.2437 -0.0276 -0.0563
 2367W        W19891   1.507  14.889   0.127 -0.1227  0.0881 -0.1943
 2368W        W19892  14.940   1.932   0.948 -0.0259 -0.1403  0.1606
 2369W        W19893   8.219   2.414  16.024  0.3860 -0.1145  0.1602
 2370W        W19894  11.219   6.805   4.205  0.4949  0.3013 -0.1614
 2371W        W19895  10.141  15.801   3.801  0.1191 -0.0957  0.1243
 2372W        W19896  14.604   2.767  15.177 -0.4510 -0.1459  0.1259
 2373W        W19897   4.782   1.329  17.409 -0.2064  0.4385  0.0014
 2374W        W19898  15.574   0.380  15.848  0.0382  0.1910  0.1010
 2375W        W19899  16.191   8.862   1.894 -0.1366  0.2349  0.0240
 2376W        W19900   6.141   5.795  12.381 -0.1019  0.0727 -0.1204
 2377W        W19901   7.257  14.638  17.079  0.0099 -0.0984 -0.1895
 2378W        W19902  17.201  16.699   0.186 -0.1653 -0.1607 -0.0789
 2379W        W19903  17.076  10.202  17.037 -0.1431 -0.0898  0.1833
 2380W        W19904  15.206   4.603   3.271  0.1514  0.1273  0.0925
 2381W        W19905   6.528   8.139  12.049  0.1539 -0.2507 -0.0716
 2382W        W19906  13.914   8.027  14.730  0.1462 -0.0771 -0.1782
 2383W        W19907  15.331  10.913   0.221 -0.1201  0.3891 -0.0659
 2384W        W19908  15.782   6.224  13.200 -0.2902  0.0106  0.3044
 2385W        W19909  14.349  17.113  16.321 -0.0262  0.0957 -0.0994
 2386W        W19910   1.257  12.800  14.580 -0.1626 -0.1579  0.2710
 2387W        W19911  14.544   6.523  17.224  0.1504 -0.0963 -0.1829
 2388W        W19912  14.251   2.448   4.435  0.2265  0.0510 -0.2161
 2389W        W19913  11.451   5.186   1.729 -0.1974 -0.0509 -0.0292
 2390W        W19914  12.739  17.243  13.765 -0.0585 -0.5023  0.1966
 2391W        W19915  17.170   1.050   2.921 -0.1537  0.3229 -0.0946
 2392W        W19916  10.087   8.992   0.790  0.1691 -0.1112  0.0743
 2393W        W19917   1.336  12.723  13.621  0.0277 -0.0733  0.2226
 2394W        W19918  13.480   3.367   1.430  0.1532 -0.0381 -0.0829
 2395W        W19919  13.520   2.460   0.463  0.0882  0.0852  0.2098
 2396W        W19920   9.519   9.979  16.379 -0.2317  0.0058 -0.2045
 2397W        W19921  14.013   9.368   0.243  0.0437  0.0814 -0.0307
 2398W        W19922  10.331  10.503  16.330  0.0713  0.1518  0.2429
 2399W        W19923  16.444  13.216   4.172  0.1809  0.0555  0.0547
 2400W        W19924   5.166  10.389   5.059 -0.1222 -0.0335  0.2997
 2401W        W19925  13.937  10.139   3.626  0.1302  0.4200  0.1816
 2402W        W19926  13.347  14.224   4.235  0.0445 -0.1988  0.1663
 2403W        W19927  10.685   5.133   2.245  0.2359 -0.0569 -0.0507
 2404W        W19928  12.618   7.849  14.714 -0.0643 -0.1033 -0.3291
 2405W        W19929   8.958  16.019  14.987  0.0270 -0.0970 -0.1441
 2406W        W19930  11.519  15.709   4.345  0.0250 -0.3376  0.1357
 2407W        W19931   4.339  11.087  14.562  0.2644  0.0261 -0.0957
 2408W        W19932   3.076  11.811  17.634 -0.1106 -0.2590  0.1809
 2409W        W19933   4.459   2.032   5.104  0.3005  0.1717 -0.0098
 2410W        W19934  14.274   0.321   3.541  0.0689 -0.1467  0.0578
 2411W        W19935  11.211  13.337  17.447  0.0087 -0.3262 -0.0004
 2412W        W19936   3.673  12.152  14.433 -0.0914 -0.1798  0.0327
 2413W        W19937  16.705  14.344  17.241  0.0589  0.2602  0.1290
 2414W        W19938   6.507  17.074  14.848 -0.0830  0.1165  0.2113
 2415W        W19939  13.292  10.998   2.180  0.1393 -0.1672  0.1457
 2416W        W19940   6.151   6.148   2.302  0.1092  0.0952 -0.0185
 2417W        W19941  13.086  14.284  15.783 -0.0222 -0.3125  0.3337
 2418W        W19942   4.848   1.786   5.806  0.0017  0.0941  0.0874
 2419W        W19943   3.841   9.200   2.636  0.0299 -0.0154  0.3437
 2420W        W19944   4.779  11.107  13.584 -0.4995  0.0789  0.0432
 2421W        W19945  17.242  11.384   1.675 -0.0345  0.0175 -0.0245
 2422W        W19946  16.803  10.655   1.882  0.0324 -0.1157 -0.0034
 2423W        W19947  13.306  13.570  13.766 -0.0742 -0.3821  0.0952
 2424W        W19948   5.312   9.693  12.874 -0.0917 -0.1893  0.4446
 2425W        W19949   9.029   8.180   0.896  0.2642  0.0935 -0.1716
 2426W        W19950   5.985   9.819  16.293  0.0308 -0.1467 -0.1600
 2427W        W19951   3.691  15.648  13.938 -0.0675  0.0748  0.0937
 2428W        W19952   1.498   3.294  13.010 -0.3297 -0.0632 -0.1286
 2429W        W19953   6.220  15.420  16.734 -0.1222  0.1673 -0.0274
 2430W        W19954   2.196   9.681   4.257 -0.0855 -0.0917  0.0220
 2431W        W19955  12.315  10.088   6.386  0.2743 -0.0402 -0.2978
 2432W        W19956   2.129   8.050  16.417  0.0485 -0.0311 -0.0221
 2433W        W19957   0.633  16.376  12.722  0.4108 -0.1734 -0.0586
 2434W        W19958   5.028   7.614  13.052  0.0954 -0.2667 -0.3746
 2435W        W19959   3.542  16.347  12.975  0.1140 -0.2233 -0.3654
 2436W        W19960   3.396   2.659  16.167  0.0561 -0.2860  0.0206
 2437W        W19961  12.895   1.784  14.345 -0.1653  0.1510  0.1973
 2438W        W19962   9.480   2.498  12.923 -0.1321 -0.0302  0.1922
 2439W        W19963   9.524   0.649  15.641 -0.0045 -0.0965 -0.0500
 2440W        W19964   9.678   2.379   4.495  0.2643  0.2146  0.0377
 2441W        W19965   5.794   5.337   1.431  0.2217  0.1678 -0.0927
 2442W        W19966   7.507  12.911  14.192 -0.2731 -0.4027 -0.0890
 2443W        W19967  13.473   5.714  11.790 -0.3505  0.1398  0.1642
 2444W        W19968   8.421   3.624   3.140  0.2387 -0.2908 -0.0844
 2445W        W19969   6.039   1.074   1.371 -0.1013  0.2698 -0.1310
 2446W        W19970  15.560  16.226   3.276 -0.2360 -0.2235  0.2072
 2447W        W19971   4.047   5.870  14.797  0.1760 -0.0096 -0.1498
 2448W        W19972  17.198   9.116  12.206 -0.1054  0.0796 -0.2242
 2449W        W19973   2.600   6.274   0.848  0.0456 -0.0339  0.0727
 2450W        W19974   3.242   1.467  14.176 -0.2364 -0.0711 -0.3738
 2451W        W19975  13.810   5.662  14.219  0.0474  0.1931 -0.4893
 2452W        W19976   8.422   5.071   1.042  0.0120 -0.3164  0.1124
 2453W        W19977   2.886  14.698  14.484  0.1214  0.1492  0.0593
 2454W        W19978  16.038   0.390   0.352 -0.0621  0.1070  0.0024
 2455W        W19979   6.564   0.190   4.539 -0.4317  0.2188 -0.2904
 2456W        W19980   9.285   2.973   5.027  0.0875  0.0965 -0.0437
 2457W        W19981  14.689   7.768  12.657 -0.5065 -0.1456  0.1398
 2458W        W19982   3.024   5.733  12.259 -0.0325 -0.2206  0.0089
 2459W        W19983  12.760  11.594   2.589 -0.2293  0.1909  0.0366
 2460W        W19984   1.701  14.451   0.194  0.0304  0.3384  0.1498
 2461W        W19985   0.376   4.298   0.384  0.1361 -0.1957  0.2496
 2462W        W19986   6.750   4.755   4.042  0.1820  0.0276 -0.1890
 2463W        W19987   2.623   4.621   4.877 -0.0405 -0.0423  0.1785
 2464W        W19988   6.250   9.694   2.475 -0.1023 -0.1008  0.0984
 2465W        W19989   0.581  12.534   1.784  0.2353  0.1969  0.1783
 2466W        W19990   9.317  11.694  12.460  0.0148  0.0288 -0.1835
 2467W        W19991   0.689   6.302   2.413 -0.0119  0.0605  0.0468
 2468W        W19992  13.075  17.059   3.158 -0.0036  0.1764  0.2113
 2469W        W19993   6.352  13.747   3.985 -0.1947  0.3111 -0.2136
 2470W        W19994   9.674  16.603   2.748  0.1058 -0.0172 -0.2758
 2471W        W19995   9.557   3.760  14.752  0.1430 -0.1181 -0.1788
 2472W        W19996   0.445  17.153   4.983 -0.1274  0.3084  0.0525
 2473W        W19997   2.134  10.004  15.079 -0.0135 -0.0037 -0.4101
 2474W        W19998  15.704   1.190  12.442 -0.0167 -0.0914  0.0827
 2475W        W19999  13.575  11.227   4.626  0.2010 -0.0099  0.2503
 2476W        W20000   2.678   2.614  14.962  0.0676  0.4383 -0.1087
 2477W        W20001   7.192   1.664   3.589  0.4151  0.2665  0.0058
 2478W        W20002  15.882  16.557  15.767  0.2079 -0.1978  0.1573
 2479W        W20003  12.146  10.285   0.904 -0.3870  0.1012  0.1874
 2480W        W20004  11.228  12.494  16.288  0.2950  0.0814  0.0197
 2481W        W20005  15.633  14.275  17.164  0.2767  0.0256  0.0667
 2482W        W20006   9.259   1.363  12.893  0.1010 -0.4699  0.1494
 2483W        W20007  16.029   4.745  16.901  0.0752  0.1440 -0.0909
 2484W        W20008  17.109  13.106   4.725  0.0895 -0.2277  0.4473
 2485W        W20009   6.235   5.448  12.751  0.0259 -0.3006 -0.3001
 2486W        W20010  12.876   5.631   1.243 -0.2546  0.0442 -0.1437
 2487W        W20011   8.378   0.623  14.348 -0.1431 -0.2339  0.1035
 2488W        W20012   0.821  16.215  14.908 -0.3035 -0.0978  0.0861
 2489W        W20013   3.553   3.616  11.816 -0.0587 -0.1036  0.1082
 2490W        W20014   4.809   2.873   5.175 -0.0892 -0.0867  0.0085
 2491W        W20015   0.650  12.395  15.755 -0.2874  0.2437  0.1484
 2492W        W20016  16.506  10.641   0.887 -0.0364 -0.2270  0.2310
 2493W        W20017   4.899   3.293  12.531  0.3008  0.0695 -0.0597
 2494W        W20018   1.351   4.731   5.505 -0.3068  0.1245 -0.0732
 2495W        W20019   2.595   9.036   2.087  0.2782 -0.2191  0.0441
 2496W        W20020  14.621  11.677   5.232 -0.2251  0.0377  0.2663
 2497W        W20021   1.329   6.473  17.329 -0.1441  0.0665 -0.0529
 2498W        W20022   5.112  12.726   3.714  0.4108 -0.2465  0.0244
 2499W        W20023  10.826  10.456   5.472  0.0959  0.0006  0.1431
 2500W        W20024  15.138  14.612  14.837 -0.0934 -0.1533 -0.2476
 2501W        W20025   0.824   9.645   3.379  0.1004  0.2651  0.1565
 2502W        W20026   8.547   0.923   5.546 -0.2024 -0.1170 -0.1673
 2503W        W20027  14.941   0.133   1.929  0.0987 -0.1593  0.0542
 2504W        W20028   4.815   2.487   2.793 -0.2777  0.1191  0.3833
 2505W        W20029   6.703  11.590  14.174  0.3252 -0.0533  0.2262
 2506W        W20030   1.552   7.455  15.771 -0.2199 -0.0847 -0.0009
 2507W        W20031   9.496  14.896   2.835  0.3749  0.2243 -0.3515
 2508W        W20032   9.782  16.947   4.723 -0.0135 -0.1353 -0.0003
 2509W        W20033   6.247   1.508  14.710 -0.0641 -0.1520 -0.0192
 2510W        W20034   5.650   3.441  13.043  0.0062  0.1677  0.0422
 2511W        W20035   5.238  11.591  14.440  0.0132 -0.0653  0.0897
 2512W        W20036   7.502  16.080  17.535 -0.0889  0.2232  0.1797
 2513W        W20037   4.439  11.579   5.459  0.2033 -0.0079 -0.3159
 2514W        W20038  13.675  12.393   2.768  0.3053  0.0601  0.2663
 2515W        W20039  12.244   7.452  12.682 -0.0433 -0.3159 -0.4525
 2516W        W20040   3.820  13.866  16.738 -0.4034 -0.2541 -0.1327
 2517W        W20041  16.534  10.699  15.312 -0.1872 -0.1629 -0.2712
 2518W        W20042   7.895   4.845  15.033 -0.0183 -0.1037  0.1278
 2519W        W20043   5.269   9.859   4.199  0.0446 -0.1995  0.0035
 2520W        W20044  12.121   7.052  12.394 -0.1152 -0.1229  0.1249
 2521W        W20045  17.227  10.589  16.712  0.2825 -0.1556  0.4362
 2522W        W20046   1.812  14.402   0.790 -0.0444  0.0553 -0.1064
 2523W        W20047   3.096   6.151   2.020  0.1827  0.2684  0.3047
 2524W        W20048   0.538  14.335   4.875 -0.1945  0.0489  0.1251
 2525W        W20049   5.208   0.545   3.599  0.1302 -0.0912 -0.0024
 2526W        W20050  10.443   9.747  15.312  0.1024  0.1090 -0.2592
 2527W        W20051  14.234  11.877   5.040  0.2339 -0.1723 -0.1661
 2528W        W20052  10.517   3.536  15.515  0.0629 -0.0365  0.2604
 2529W        W20053   6.781   6.820  13.928 -0.1909  0.1202 -0.0210
 2530W        W20054   3.526  10.696   4.631 -0.2366 -0.2575 -0.0609
 2531W        W20055  12.716   5.900  12.790 -0.0842 -0.4320  0.2991
 2532W        W20056  14.811   0.209   1.279 -0.0397 -0.2038 -0.1691
 2533W        W20057  12.783   0.427  13.947  0.3122  0.3347  0.1130
 2534W        W20058   1.065   8.393   3.628  0.0472 -0.2400 -0.1783
 2535W        W20059   6.504   5.390  15.676 -0.2335 -0.1522 -0.1461
 2536W        W20060   0.959  12.865  16.867  0.1777  0.2000 -0.0151
 2537W        W20061   0.524  11.194   2.547  0.3269  0.0438 -0.2940
 2538W        W20062  13.993   1.477   1.166  0.1364 -0.0344  0.0352
 2539W        W20063   0.666   9.416  12.915  0.0017  0.2943  0.1113
 2540W        W20064   3.920   1.575   0.105 -0.0326  0.2116  0.3807
 2541W        W20065  10.139  14.623   1.926  0.0751  0.1891 -0.0720
 2542W        W20066  15.658   0.948  11.700  0.1204 -0.0743  0.1703
 2543W        W20067   2.033   2.689  17.196  0.1527  0.2182 -0.1092
 2544W        W20068  11.681  15.340  13.624 -0.1565  0.1730  0.0352
 2545W        W20069   1.593   4.779  11.983 -0.3037  0.1165 -0.2333
 2546W        W20070   1.100   5.338   4.939  0.3271 -0.1076 -0.0448
 2547W        W20071   6.883   1.093   3.089 -0.2444 -0.1674 -0.5905
 2548W        W20072  12.275  12.285  12.836  0.0580 -0.4206  0.1750
 2549W        W20073   4.770   4.903   5.053  0.1621 -0.2167 -0.0154
 2550W        W20074   1.147  10.979  14.081 -0.1054  0.0127 -0.3268
 2551W        W20075   8.230   7.088  15.292 -0.2164 -0.0620 -0.0199
 2552W        W20076  15.086  10.484  11.758  0.1834 -0.0412 -0.3117
 2553W        W20077   2.032   4.371   2.873  0.1998 -0.0393  0.0642
 2554W        W20078   0.709  15.603  16.394 -0.4917  0.1437  0.3140
 2555W        W20079   8.601   0.502   1.403 -0.0179 -0.1010  0.0256
 2556W        W20080  10.178   4.969   4.817  0.0269 -0.1136  0.2855
 2557W        W20081   6.612   4.569   3.538  0.1177  0.1861 -0.0509
 2558W        W20082  12.130   7.845   0.705  0.1746  0.3294 -0.0887
 2559W        W20083   9.568   5.980   2.443  0.1704  0.0301 -0.0767
 2560W        W20084   9.580  13.734   0.932 -0.1438 -0.0546  0.0564
 2561W        W20085  13.483   6.963  13.995 -0.0114  0.2097  0.0805
 2562W        W20086  14.128  13.236   1.168 -0.0164  0.0247  0.0744
 2563W        W20087   8.858   1.997   4.387 -0.0020  0.1668 -0.1300
 2564W        W20088   1.051  12.284  16.101 -0.1925  0.0506  0.1253
 2565W        W20089  11.205   6.579  13.441 -0.1819 -0.1894 -0.3328
 2566W        W20090   7.311   0.414  13.252  0.1397 -0.3149 -0.0631
 2567W        W20091   0.122   8.398  12.368  0.2223 -0.0913  0.0205
 2568W        W20092   9.473   2.292  14.456 -0.3457  0.1937 -0.2008
 2569W        W20093  14.723  14.587   4.358  0.0361 -0.0307 -0.0797
 2570W        W20094   5.473  14.473  15.419 -0.0213 -0.1618  0.0900
 2571W        W20095  10.309   7.171   4.052 -0.3839 -0.0959 -0.0834
 2572W        W20096   6.557  16.625  17.507 -0.3303 -0.2218 -0.1040
 2573W        W20097   6.825  12.334   5.975 -0.1931 -0.0153 -0.2128
 2574W        W20098  16.977   9.663   0.566  0.1888 -0.1308  0.0943
 2575W        W20099   7.786   0.639  13.133 -0.1294 -0.0117  0.0728
 2576W        W20100   2.379  10.581   1.259  0.0179  0.2352  0.0518
 2577W        W20101  15.990   9.444   1.161  0.1503  0.2396 -0.1041
 2578W        W20102  15.660   6.732  17.412 -0.1600 -0.2976  0.0801
 2579W        W20103  14.949  12.882  16.824  0.2791 -0.0009 -0.3456
 2580W        W20104  15.970   2.532   4.505  0.1250  0.1900  0.0262
 2581W        W20105  13.561   5.309  12.051  0.0377  0.0905 -0.2443
 2582W        W20106  13.695   7.632  17.032 -0.2052  0.1488 -0.2278
 2583W        W20107   6.001   4.669  14.880  0.1151  0.1318 -0.0733
 2584W        W20108   0.602  11.943  11.152  0.2483  0.0834  0.0682
 2585W        W20109   8.480   1.423   2.979 -0.1359  0.1068 -0.0220
 2586W        W20110  12.697   7.025  13.446 -0.0060 -0.0260  0.2228
 2587W        W20111  16.742  14.352   6.320 -0.1430 -0.2467  0.0897
 2588W        W20112   0.220   9.791  15.094  0.1223  0.1164  0.0921
 2589W        W20113   1.988  10.700   2.007  0.1002 -0.2578  0.2235
 2590W        W20114   5.826   3.037  16.405 -0.2040  0.0412 -0.0596
 2591W        W20115   1.376  14.204  12.578 -0.3049 -0.0594  0.1588
 2592W        W20116   9.133   3.247  12.730  0.2027  0.0854 -0.1208
 2593W        W20117  17.137   4.687   3.710  0.0910  0.1396 -0.1557
 2594W        W20118   6.261  12.760   2.378  0.2492  0.1610 -0.0777
 2595W        W20119  13.673  15.362  13.342  0.2781  0.1114 -0.3565
 2596W        W20120   3.546  10.348   4.249  0.1868  0.0502 -0.0456
 2597W        W20121   4.413   2.516   4.883  0.2533  0.2452  0.1067
 2598W        W20122   1.291   9.898  14.969  0.0993  0.4873  0.1720
 2599W        W20123  13.360   3.016  13.954  0.0035  0.0148  0.2476
 2600W        W20124   6.722  10.783   1.528 -0.0919  0.0795 -0.0837
 2601W        W20125   4.598   3.689  12.858 -0.0825  0.0690  0.1993
 2602W        W20126  11.097   7.146  14.187  0.2359  0.0689  0.0050
 2603W        W20127   0.777  13.822  14.406  0.1535  0.0831  0.4163
 2604W        W20128  17.004  10.082   4.474  0.1180 -0.3586  0.2614
 2605W        W20129   7.244   7.277  12.991 -0.2720 -0.1578  0.1187
 2606W        W20130   8.349   2.953   5.390 -0.0828  0.0439  0.2374
 2607W        W20131  10.445  17.099   2.964 -0.0532  0.2489 -0.0643
 2608W        W20132  16.023  17.113  12.322 -0.4558 -0.1061  0.1222
 2609W        W20133   6.164  14.147  15.843  0.0039 -0.0288  0.1181
 2610W        W20134   4.386   7.225  14.837  0.0240 -0.0231  0.1598
 2611W        W20135   3.751   0.091   0.391 -0.7201 -0.2289 -0.0204
 2612W        W20136  13.130  14.750   3.309 -0.1429  0.4394  0.1900
 2613W        W20137   8.409  16.663   3.763  0.1175 -0.0629 -0.1126
 2614W        W20138  15.734  13.967  12.863  0.1050  0.0450 -0.1172
 2615W        W20139   1.598  12.700   0.681 -0.1331 -0.2240  0.1625
 2616W        W20140  10.265  15.187  12.820  0.0312  0.0941 -0.1527
 2617W        W20141  13.222   5.659  16.945  0.0427 -0.1623  0.1534
 2618W        W20142   7.560   5.327  14.129  0.1094 -0.2501  0.1351
 2619W        W20143  16.733  13.179   2.373  0.0236 -0.0451  0.2793
 2620W        W20144  10.784  12.644   4.434 -0.0314 -0.0918 -0.0498
 2621W        W20145   2.940   5.127   1.490  0.0937 -0.3795 -0.2625
 2622W        W20146   8.028   3.093   1.353 -0.1073 -0.3335 -0.0884
 2623W        W20147   7.969  14.072   5.365  0.5328  0.0741 -0.0165
 2624W        W20148  16.106  14.915  12.535  0.3081  0.1418  0.0941
 2625W        W20149   8.373   9.418   4.490 -0.3221 -0.0481  0.1409
 2626W        W20150   2.676   4.722   1.379  0.0368 -0.2633 -0.1734
 2627W        W20151  11.346  14.195   2.308 -0.0054  0.1438 -0.0618
 2628W        W20152   8.650  12.406   4.765  0.0807  0.1301  0.1197
 2629W        W20153   6.935  13.830   4.683 -0.1507 -0.0241  0.1815
 2630W        W20154  15.919   0.834  12.723  0.0126 -0.0130  0.0988
 2631W        W20155   2.903   6.672   2.726  0.1842 -0.0281  0.1768
 2632W        W20156   6.645  11.293  13.767  0.2972 -0.1274 -0.0866
 2633W        W20157   9.536   4.609   4.219  0.2585 -0.0024 -0.2915
 2634W        W20158  10.906   1.857  14.381  0.0023 -0.2306  0.0590
 2635W        W20159   6.634  15.075  15.473 -0.1404 -0.0243 -0.0138
 2636W        W20160  14.501  12.503  16.399 -0.0817  0.0264 -0.1703
 2637W        W20161   6.008   3.349  12.403 -0.1026  0.0794  0.0397
 2638W        W20162   9.356   2.988   0.659  0.0772 -0.0632 -0.1957
 2639W        W20163  10.109  11.619   2.495 -0.1075 -0.2156  0.2051
 2640W        W20164   9.031   9.512   0.890  0.0216 -0.1305  0.0969
 2641W        W20165   4.533  10.800   4.230  0.1576 -0.0959  0.0873
 2642W        W20166   8.443  13.483   2.273  0.3525 -0.3674  0.1198
 2643W        W20167   4.956   8.658  16.446  0.0763 -0.0401 -0.3143
 2644W        W20168  15.163  15.176  13.282 -0.2592 -0.0521 -0.0860
 2645W        W20169   8.755   3.055  15.807 -0.0340 -0.1601 -0.2199
 2646W        W20170   1.989   0.206  15.017  0.2316 -0.2053  0.1957
 2647W        W20171   7.950  12.553   2.194  0.2058 -0.1551 -0.0590
 2648W        W20172   7.396   6.214   3.185 -0.0735 -0.2331 -0.2815
 2649W        W20173   5.466   5.011  15.261 -0.0625 -0.1943 -0.2038
 2650W        W20174  17.077  14.949  14.723 -0.1404 -0.0046  0.0903
 2651W        W20175   6.317   8.701  17.081  0.0641 -0.1149  0.2691
 2652W        W20176  10.750   7.330  17.083 -0.1062 -0.2404  0.2199
 2653W        W20177  10.606  16.226   6.625 -0.0043 -0.0985 -0.1256
 2654W        W20178   7.195   9.727  14.562  0.1092  0.0745 -0.0842
 2655W        W20179  15.777   9.396  13.710  0.2254  0.1390 -0.0542
 2656W        W20180   1.175   4.912   2.341 -0.3573 -0.3338  0.1585
 2657W        W20181  12.244   1.655   3.116  0.1400  0.1922  0.0418
 2658W        W20182   7.040   0.587  15.864  0.3001  0.4921 -0.1809
 2659W        W20183   4.772   1.416   3.857  0.2198  0.1708 -0.3703
 2660W        W20184   1.222   7.845  15.632 -0.2552  0.0353 -0.1512
 2661W        W20185   7.039  14.580  16.204  0.0556 -0.1257  0.0969
 2662W        W20186  16.993   7.626  14.780 -0.3215 -0.1334  0.2170
 2663W        W20187  12.037   7.341  16.906  0.0723 -0.0792  0.4174
 2664W        W20188  14.147   5.249  13.869  0.2732  0.2801 -0.1103
 2665W        W20189  10.421  15.918  14.142 -0.3082  0.2436  0.4421
 2666W        W20190   4.012   2.867  14.357 -0.0741 -0.1162 -0.1687
 2667W        W20191   4.129   2.926  17.501 -0.2248 -0.5087 -0.1136
 2668W        W20192  12.081   9.709   0.771 -0.2160  0.1420 -0.0164
 2669W        W20193   1.565  13.593   1.376 -0.0482  0.0385  0.1866
 2670W        W20194  16.056   4.882  13.074  0.0709 -0.1881  0.1970
 2671W        W20195   3.529   4.802  13.167 -0.3340 -0.1403 -0.2417
 2672W        W20196  10.027   2.651   4.681  0.1474 -0.0356  0.2235
 2673W        W20197   2.609   9.732  16.838  0.1191  0.0058 -0.4211
 2674W        W20198  11.408  16.025  16.001  0.1384 -0.1410 -0.2280
 2675W        W20199  12.582   8.635  17.513 -0.2572 -0.0554  0.1049
 2676W        W20200   5.528   7.998   4.585 -0.1058 -0.1612 -0.1942
 2677W        W20201  16.022  15.478   2.263  0.1597  0.0105 -0.1024
 2678W        W20202   7.286  17.174   5.098 -0.3422 -0.0446 -0.0222
 2679W        W20203  16.577   1.156  15.081  0.2760  0.1645  0.0578
 2680W        W20204  11.653  10.600   2.955 -0.3745  0.0313  0.0450
 2681W        W20205  16.940  13.775  13.487 -0.0099  0.2495 -0.0949
 2682W        W20206  14.424  10.299  16.329  0.0125  0.2103 -0.0167
 2683W        W20207   8.905   8.641   4.167 -0.1851  0.1816 -0.1550
 2684W        W20208  12.367  17.198   4.212  0.0660  0.3004  0.0344
 2685W        W20209   9.744   1.149  15.793  0.1493  0.1814  0.2593
 2686W        W20210   5.943   7.872  17.632 -0.2472  0.1038 -0.0422
 2687W        W20211  14.925  10.252   3.909  0.0270  0.0402 -0.1534
 2688W        W20212  15.376  16.283   4.144  0.0309 -0.1922 -0.0487
 2689W        W20213  15.582  11.332   4.711  0.1029  0.0061 -0.3018
 2690W        W20214  10.672  16.946   0.370  0.1644  0.0027  0.0912
 2691W        W20215  10.692  12.098  14.404  0.0620  0.4790  0.1996
 2692W        W20216  14.443   5.590  14.969  0.4044  0.1133  0.2486
 2693W        W20217   1.379  12.152   4.354 -0.0663  0.1642  0.1964
 2694W        W20218   2.472  11.892   1.989 -0.2381  0.1057  0.1176
 2695W        W20219   5.769  14.711   1.948  0.1210  0.0747  0.1607
 2696W        W20220   8.261  15.221  15.872  0.0757 -0.0637  0.0975
 2697W        W20221   1.658   8.547  13.460  0.2046 -0.1625  0.1450
 2698W        W20222   9.272   5.178   2.012 -0.1790  0.1081 -0.2342
 2699W        W20223   8.714  15.681   3.468  0.1685 -0.1280 -0.0559
 2700W        W20224   3.264  17.011   1.652 -0.0617  0.0094  0.0865
 2701W        W20225  16.377   6.494   3.896 -0.4153 -0.1552  0.0458
 2702W        W20226  10.015   6.188   2.284 -0.1774  0.1287 -0.1827
 2703W        W20227  10.770   5.543   0.513  0.4153  0.2257 -0.0496
 2704W        W20228   8.873  13.151  14.412  0.0984  0.1115 -0.0328
 2705W        W20229   8.659  10.584  14.579 -0.1865  0.0460  0.0211
 2706W        W20230   4.534   4.539  13.133 -0.2117 -0.1935  0.2065
 2707W        W20231   3.048   8.879   3.797 -0.2103 -0.2063 -0.1766
 2708W        W20232   6.492  13.553  15.929  0.1499 -0.0485 -0.1439
 2709W        W20233   2.788   8.343  16.187 -0.2367 -0.2994  0.5639
 2710W        W20234   6.914   6.794   1.225 -0.1797  0.2354  0.2312
 2711W        W20235   8.027  16.731  15.751  0.1307 -0.1746 -0.0348
 2712W        W20236   4.583   0.943  12.424  0.1052  0.2415 -0.2552
 2713W        W20237  11.387   8.306   5.145  0.1728  0.0698 -0.0765
 2714W        W20238  13.243   2.570   2.136  0.0759 -0.2114 -0.2669
 2715W        W20239  14.744  15.767   1.112 -0.0339 -0.0603 -0.1415
 2716W        W20240  14.778   2.717  16.918 -0.0519  0.3657  0.3536
 2717W        W20241  11.686   6.747  15.087 -0.0881 -0.0534  0.0024
 2718W        W20242  14.870  15.056   4.028 -0.2452 -0.2431  0.0489
 2719W        W20243   3.177   3.267   0.056 -0.0229 -0.3626 -0.1380
 2720W        W20244   7.046  13.336   5.431 -0.1680 -0.0355  0.3260
 2721W        W20245  10.930   8.908  12.271  0.0187 -0.1985  0.2112
 2722W        W20246   3.122  17.083   4.717 -0.0094  0.1623  0.0500
 2723W        W20247   1.304  12.502  16.881  0.1318 -0.2218 -0.2164
 2724W        W20248   2.867   4.138  13.535  0.0819 -0.1471  0.1493
 2725W        W20249   6.430   2.123   3.106 -0.1453 -0.2169 -0.1415
 2726W        W20250   2.567   3.093   0.928 -0.0076  0.2251 -0.1725
 2727W        W20251  12.657  15.466  16.504  0.1681 -0.1667 -0.0612
 2728W        W20252  11.640  12.524   4.323  0.1220  0.1669  0.0863
 2729W        W20253  14.941   4.647  13.200  0.0449  0.0035 -0.0049
 2730W        W20254  10.432   6.720  16.646  0.0709 -0.1188 -0.1342
 2731W        W20255   6.939   9.234  15.443 -0.0252  0.0862  0.0136
 2732W        W20256  12.636  10.217   2.851 -0.0614 -0.1313 -0.1221
 2733W        W20257  16.853   0.563  12.466  0.0300  0.1611  0.0568
 2734W        W20258   1.584   5.431   3.242  0.0415 -0.1697 -0.0470
 2735W        W20259  15.893   8.113  12.533 -0.0348 -0.3008  0.0496
 2736W        W20260   0.548   2.655   2.217 -0.1010  0.0064 -0.1907
 2737W        W20261   3.536   8.443  15.904 -0.2026 -0.5439  0.0994
 2738W        W20262  16.355   5.679   0.767  0.3602 -0.1903 -0.1441
 2739W        W20263  10.434   3.961   0.628 -0.3750 -0.1743 -0.0536
 2740W        W20264   2.947  13.071  11.983 -0.0329 -0.3154 -0.0376
 2741W        W20265   2.649  15.161  12.715 -0.2847  0.3792 -0.0628
 2742W        W20266  17.239   4.747  14.426  0.0890  0.0608 -0.0088
 2743W        W20267  14.056  16.333  13.511  0.0178  0.2791 -0.2530
 2744W        W20268   8.924   8.470  15.907  0.0819 -0.0388 -0.2971
 2745W        W20269   8.499  12.477  17.528  0.1188  0.0103 -0.1305
 2746W        W20270  11.827   2.873  16.850 -0.3110 -0.0578  0.1872
 2747W        W20271   2.798  13.464   0.097 -0.3863 -0.2177 -0.0965
 2748W        W20272   0.535  14.165  12.992  0.1432  0.0112 -0.2261
 2749W        W20273   2.972  14.223   3.213 -0.1247  0.0943 -0.2819
 2750W        W20274   8.235   0.999  13.032 -0.1690 -0.1369 -0.0640
 2751W        W20275   7.162  15.257  14.273  0.1577  0.0175  0.2722
 2752W        W20276   7.276   0.242  14.236 -0.1654 -0.3121  0.1370
 2753W        W20277  12.312   5.517   3.451 -0.1155 -0.1322 -0.1211
 2754W        W20278  16.716   9.387  14.685 -0.3373  0.3912  0.1814
 2755W        W20279  14.515  16.796  14.086  0.1730  0.3985 -0.2110
 2756W        W20280   4.920  15.749   4.972  0.0955 -0.0890 -0.0894
 2757W        W20281   0.623   2.533   4.694  0.0731 -0.1333  0.4172
 2758W        W20282  14.993  16.161   1.558  0.0500  0.0314  0.1820
 2759W        W20283   7.654  13.151  12.529  0.0336  0.0511  0.2027
 2760W        W20284   8.881  16.409  12.414 -0.1482 -0.1748  0.0463
 2761W        W20285   0.775   4.770  13.995 -0.0315 -0.0014  0.1542
 2762W        W20286  10.426   2.763  13.154 -0.0978 -0.0281  0.0552
 2763W        W20287  11.264   7.476   3.183 -0.1654 -0.1352 -0.0076
 2764W        W20288   5.567  17.191  13.266  0.0580  0.0047  0.1761
 2765W        W20289   3.324  15.001  14.460  0.3701 -0.3658  0.1639
 2766W        W20290  10.237   4.869   2.400 -0.1174  0.2432  0.1859
 2767W        W20291  16.140  14.488   2.669  0.0223 -0.0476  0.0491
 2768W        W20292   5.341  10.436  16.154 -0.1593 -0.1714 -0.0263
 2769W        W20293  14.870   5.366   3.133 -0.4251 -0.0545  0.3382
 2770W        W20294   1.587  11.162  15.876 -0.0730  0.1975 -0.1448
 2771W        W20295   1.302   0.095   4.035 -0.2606  0.1099  0.0533
 2772W        W20296   1.596  11.058   3.268  0.0819  0.1284 -0.2112
 2773W        W20297   6.207   7.752   1.616 -0.0730 -0.1353 -0.0933
 2774W        W20298   3.928  13.964   2.277  0.0353 -0.2302 -0.1119
 2775W        W20299   9.230  16.630   2.165 -0.0646  0.0183 -0.0180
 2776W        W20300  15.123  13.226  17.496  0.0340  0.0534 -0.5992
 2777W        W20301   5.004   8.674  15.843 -0.0209  0.1533  0.0491
 2778W        W20302  14.972   3.811   0.237  0.3928  0.0517 -0.0209
 2779W        W20303  15.530   0.633   2.715  0.0189  0.0760 -0.0319
 2780W        W20304  15.302  15.059   2.700  0.1122 -0.3810  0.0191
 2781W        W20305  15.019   4.803   0.615  0.0850 -0.4149 -0.2385
 2782W        W20306  12.035  10.934   5.741  0.2046  0.0436  0.0258
 2783W        W20307  16.463   4.409   0.088  0.0849  0.0725 -0.0260
 2784W        W20308  13.123   0.272  12.817  0.0714  0.1195  0.1253
 2785W        W20309   8.223  11.992  14.357  0.4181  0.0122 -0.2789
 2786W        W20310   8.744  11.222  13.679  0.2912  0.0252  0.1396
 2787W        W20311   3.880   5.142  14.086  0.0765 -0.3620  0.2393
 2788W        W20312   9.515  13.613  14.989 -0.3907 -0.1224  0.1756
 2789W        W20313   8.865  13.681   4.585 -0.0023  0.2218  0.3874
 2790W        W20314  15.571   9.048   4.760 -0.0145  0.0734  0.1427
 2791W        W20315  16.717  15.751  17.208 -0.0721 -0.1186  0.2286
 2792W        W20316  14.304  11.607  15.146 -0.4593 -0.1995  0.0975
 2793W        W20317  16.688   6.313  16.849 -0.4154  0.0681  0.1609
 2794W        W20318  16.218   8.507  15.589  0.6025  0.1036 -0.3083
 2795W        W20319   7.824  11.128  14.348  0.2043 -0.3400 -0.1439
 2796W        W20320   0.574  14.192  16.669  0.2664 -0.0154  0.0202
 2797W        W20321  10.965  12.834   3.259  0.1578  0.1179  0.0042
 2798W        W20322   4.258  13.635   1.462  0.1157  0.1474 -0.0699
 2799W        W20323   0.208  10.555  15.292 -0.0090  0.1520  0.0209
 2800W        W20324   1.172   3.608   3.914 -0.2916  0.4002 -0.2054
 2801W        W20325   8.395  12.863  14.572 -0.2685 -0.1255  0.1568
 2802W        W20326  11.323   8.361  13.804  0.0039 -0.1509  0.0151
 2803W        W20327   6.283   1.069  13.689 -0.0419  0.0799 -0.1594
 2804W        W20328   2.994   9.704  17.171  0.1183 -0.2004 -0.1732
 2805W        W20329   9.279  17.187  16.385 -0.1991  0.0890  0.0909
 2806W        W20330  16.566  12.664   1.716  0.0231  0.0229  0.4434
 2807W        W20331   0.712   0.070   1.140 -0.1256 -0.2223 -0.0067
 2808W        W20332   2.262   7.586   2.663 -0.0032 -0.1727 -0.3164
 2809W        W20333   4.639   2.380   4.335  0.1969 -0.1786 -0.0149
 2810W        W20334  15.604   2.640  12.608 -0.2502 -0.1430  0.0637
 2811W        W20335   1.181   2.000   2.727 -0.0084  0.1729  0.0914
 2812W        W20336  13.918   8.869   5.575  0.0813 -0.0072  0.2408
 2813W        W20337  11.944   6.920   2.969 -0.3865  0.0108  0.4413
 2814W        W20338   3.978   7.207  13.064  0.0585 -0.5336  0.1314
 2815W        W20339  14.115   9.145   2.764  0.0158 -0.2007 -0.2057
 2816W        W20340  10.089   2.586   5.400 -0.2086 -0.1245 -0.3316
 2817W        W20341  16.001  10.553   2.472  0.2556  0.0632  0.1584
 2818W        W20342   7.388   3.234   5.605 -0.1450  0.1069  0.1817
 2819W        W20343  15.192  15.241   5.655 -0.0278 -0.1749  0.0209
 2820W        W20344   1.207  15.374  15.185  0.1528 -0.1610 -0.1347
 2821W        W20345   2.232  15.994  14.570 -0.0629  0.2798  0.0456
 2822W        W20346   3.547  15.050   2.269  0.0896 -0.1031 -0.1574
 2823W        W20347  10.593  16.849  13.695 -0.0275  0.2448  0.0466
 2824W        W20348  11.511   7.075   1.582 -0.1669  0.3020 -0.0863
 2825W        W20349   0.124  10.211   2.509  0.3044 -0.1404 -0.1769
 2826W        W20350  13.776   5.861  14.980  0.0251 -0.1363 -0.0486
 2827W        W20351   7.190   8.783   5.041  0.0550 -0.0862 -0.2057
 2828W        W20352  16.337   0.854   1.893 -0.0584  0.1206 -0.0329
 2829W        W20353   4.361   4.245  16.645  0.0533  0.1021 -0.1344
 2830W        W20354  14.942  14.730  16.234  0.2804  0.1106  0.2116
 2831W        W20355   0.371  11.910  14.929 -0.0505  0.0023 -0.1950
 2832W        W20356  15.489   4.161  11.650  0.1721  0.0596  0.0699
 2833W        W20357   9.396   5.024   0.007  0.1685 -0.1430 -0.0057
 2834W        W20358  10.238   8.567  12.521  0.3887  0.0103  0.0583
 2835W        W20359   7.761  10.662   3.045 -0.2782  0.3690 -0.3523
 2836W        W20360   2.573   0.418   5.538  0.0606  0.0061 -0.0440
 2837W        W20361   4.324  16.389   5.332 -0.2697  0.0968 -0.1405
 2838W        W20362  10.063  11.704  13.773  0.0542 -0.2150  0.1615
 2839W        W20363  16.129   2.305  16.778  0.0709 -0.3200 -0.0145
 2840W        W20364   2.694   4.663  15.374 -0.0857 -0.0284  0.0226
 2841W        W20365   7.197   1.407  13.107 -0.2936 -0.0439 -0.0866
 2842W        W20366   7.080   2.187   3.879  0.1398 -0.0523  0.3120
 2843W        W20367   3.445   3.371  13.955 -0.0583 -0.0628 -0.0432
 2844W        W20368   3.096   4.662  14.404 -0.1925 -0.1372 -0.0836
 2845W        W20369   6.504  13.985  13.232 -0.0087 -0.1178  0.0982
 2846W        W20370  14.684  12.732  15.989 -0.0247 -0.0625 -0.1436
 2847W        W20371  16.143  16.007   4.624 -0.1061 -0.1994  0.1830
 2848W        W20372   2.073  12.452  14.580  0.0830 -0.0038  0.0509
 2849W        W20373   4.482   7.748   1.922  0.0435  0.0352 -0.2242
 2850W        W20374  10.760  15.214  14.402 -0.0523 -0.4859  0.1114
 2851W        W20375   9.634  12.630  15.335  0.1973 -0.4028 -0.1190
 2852W        W20376  11.756   0.891  16.344 -0.0203 -0.0470  0.0543
 2853W        W20377   8.341   3.611  13.032  0.0196 -0.1896  0.1515
 2854W        W20378   8.664  10.217  13.346  0.0718  0.1576 -0.0817
 2855W        W20379   7.465   9.222   4.703 -0.0708  0.0473  0.2103
 2856W        W20380   5.454   8.742   3.000 -0.0780  0.2984  0.1017
 2857W        W20381  12.013   9.939  13.170 -0.0719  0.3168  0.0818
 2858W        W20382   0.133   7.518  13.149 -0.0041  0.1491  0.1050
 2859W        W20383  15.922  16.957  13.681  0.0356 -0.0034 -0.0811
 2860W        W20384   2.491  10.120   2.616  0.0015  0.4245 -0.0254
 2861W        W20385  14.431   2.493   0.158  0.1754  0.3371  0.1378
 2862W        W20386  12.541   4.019  15.207  0.0377 -0.0411 -0.1965
 2863W        W20387  11.310   7.561   5.584  0.2274 -0.0224 -0.3078
 2864W        W20388   1.528   9.097   4.813  0.1933  0.1580  0.2163
 2865W        W20389   1.023   2.365   4.364  0.0319  0.0303  0.2208
 2866W        W20390  14.361   6.065  13.465  0.0854  0.2269  0.1123
 2867W        W20391   6.957  14.973   3.501 -0.0498 -0.2762 -0.1518
 2868W        W20392   3.792  11.462  14.547  0.3670  0.6082  0.1536
 2869W        W20393   4.555  12.985  17.021  0.0089 -0.0528 -0.2742
 2870W        W20394   3.456   0.077   0.772  0.1194  0.1060 -0.0623
 2871W        W20395   4.043  15.547  14.264  0.1785  0.0990 -0.0809
 2872W        W20396  11.640   6.037  16.220 -0.1674 -0.0466 -0.1383
 2873W        W20397   4.936  10.543  13.482 -0.1624  0.3932 -0.1701
 2874W        W20398   9.638   1.473  13.856 -0.0380  0.0605  0.2763
 2875W        W20399  10.335  12.830  13.216  0.0203  0.2684  0.0450
 2876W        W20400   0.515   8.315   3.090  0.2114  0.0766  0.0420
 2877W        W20401  13.511   1.954   2.492 -0.1994  0.0611  0.0560
 2878W        W20402   5.228   6.154   4.401  0.0242  0.1182 -0.1075
 2879W        W20403   5.771  10.843   2.363  0.0786 -0.0496 -0.1409
 2880W        W20404  16.115   6.782  15.324  0.0977  0.4487 -0.0086
 2881W        W20405   6.626   0.261   6.335 -0.1066 -0.0835 -0.0671
 2882W        W20406   6.678   9.473  15.066  0.0093 -0.0730  0.1890
 2883W        W20407   8.964   9.763   2.442  0.0918 -0.0698 -0.0695
 2884W        W20408   7.933  14.269  17.387  0.0781  0.1596 -0.2693
 2885W        W20409  13.667   4.724  13.685  0.0481 -0.1229 -0.0013
 2886W        W20410   6.754  13.245   5.874 -0.2391  0.0014 -0.1753
 2887W        W20411  13.944   4.284   2.266  0.2522  0.2969  0.0957
 2888W        W20412   5.313   2.593   1.970 -0.2259 -0.1082  0.2099
 2889W        W20413   1.633   3.678   0.347  0.1259 -0.2296  0.0064
 2890W        W20414   9.786   9.663   3.320 -0.2167  0.0392  0.4347
 2891W        W20415  10.805   0.962  12.774  0.3528  0.1065  0.4505
 2892W        W20416  14.005   3.992  12.885 -0.1673  0.0580  0.1160
 2893W        W20417  10.924   8.142  15.395 -0.0416 -0.0694 -0.0082
 2894W        W20418  11.608  15.996  12.961 -0.0873  0.1691  0.0372
 2895W        W20419   4.937  14.226  12.609  0.1192  0.1744 -0.1826
 2896W        W20420   8.193   1.402   4.250 -0.2565  0.0030  0.1292
 2897W        W20421   6.254   7.818   4.387 -0.1634 -0.4119 -0.0216
 2898W        W20422   8.959  12.519   1.174 -0.3436 -0.1861 -0.1357
 2899W        W20423  10.876   1.759   4.915  0.2271  0.1979 -0.3806
 2900W        W20424   5.715  13.355   1.238  0.2399 -0.2995 -0.2914
 2901W        W20425   9.193  16.253  15.483  0.2707 -0.2059 -0.1101
 2902W        W20426  15.707  16.354   3.740  0.1027  0.0816 -0.1268
 2903W        W20427  10.050  13.841  15.715 -0.2449 -0.0163  0.1970
 2904W        W20428  16.197   1.746   4.045 -0.1096 -0.0585 -0.1760
 2905W        W20429  17.183   5.333  16.564 -0.0247  0.2046  0.1227
 2906W        W20430   9.002   1.918  16.786  0.2389  0.0719 -0.2948
 2907W        W20431  10.548  11.795  13.809  0.2123 -0.2867 -0.2953
 2908W        W20432   2.250  14.545   5.405  0.0754  0.2573 -0.2207
 2909W        W20433  16.028   0.362   2.050  0.3061 -0.1062 -0.2030
 2910W        W20434  11.976   0.550  13.076  0.2413 -0.0246 -0.0838
 2911W        W20435  15.588   2.393  15.921 -0.0198 -0.0875  0.4891
 2912W        W20436   1.799  15.570   3.244  0.0611 -0.2994  0.0383
 2913W        W20437   4.438   4.668  12.611 -0.2648 -0.2095 -0.0204
 2914W        W20438   1.044  12.703   1.558 -0.0043  0.2510 -0.2303
 2915W        W20439   2.396   9.302  14.417 -0.0868  0.0806 -0.0989
 2916W        W20440   9.882   2.781   4.213  0.0170  0.2767  0.2169
 2917W        W20441  12.330   0.802   3.672 -0.0379  0.2059 -0.2217
 2918W        W20442  12.560   5.310  12.219  0.0522  0.0328  0.2111
 2919W        W20443  16.585   0.939  15.822  0.1006  0.2602 -0.0439
 2920W        W20444   5.527   4.193  15.932  0.0465 -0.1491  0.1041
 2921W        W20445  16.521   8.393   0.931 -0.0828 -0.2712  0.3173
 2922W        W20446   1.030  14.475   5.081 -0.1016  0.2758 -0.2783
 2923W        W20447   0.655   6.733  11.998 -0.0353 -0.2017 -0.2146
 2924W        W20448  13.937   0.876  17.077 -0.0008 -0.0915  0.2890
 2925W        W20449   5.313   5.055   0.593 -0.0696  0.0699 -0.1899
 2926W        W20450  13.109   4.937   3.087 -0.1517 -0.0604  0.3262
 2927W        W20451   2.345  14.743  15.561 -0.0508  0.1471  0.0620
 2928W        W20452   5.948   6.028  12.777 -0.0939  0.1582 -0.2017
 2929W        W20453  13.832  15.165  14.033  0.1533  0.0475 -0.0371
 2930W        W20454   9.147  13.679  17.595 -0.1012  0.3095  0.1369
 2931W        W20455  10.361  14.598   5.001 -0.3604  0.1007 -0.1392
 2932W        W20456  15.646  10.081   4.567  0.2555  0.2212 -0.0029
 2933W        W20457  12.010   6.142  12.794 -0.1634 -0.1787 -0.0094
 2934W        W20458  12.007   3.284   4.728 -0.0221  0.1788  0.0899
 2935W        W20459   5.127   5.596   2.705 -0.1710 -0.1940  0.2297
 2936W        W20460   7.179  17.177  13.327 -0.2118 -0.0299 -0.1185
 2937W        W20461  10.293  13.607   4.213  0.2721  0.0020  0.1846
 2938W        W20462  14.474   2.859   0.614 -0.0327  0.2333  0.0390
 2939W        W20463   1.361   9.830   0.542  0.1800 -0.2201  0.0298
 2940W        W20464   1.659  14.588   1.535 -0.1579  0.1565 -0.0951
 2941W        W20465   4.849  11.350   5.655  0.3225  0.2739 -0.1612
 2942W        W20466   9.735  16.406  15.528 -0.1041  0.1513  0.2180
 2943W        W20467   0.141  11.476  15.849 -0.0600  0.0626  0.3883
 2944W        W20468   8.312   0.454   5.445  0.1591  0.0997  0.0608
 2945W        W20469   4.986   8.143  15.572 -0.0472 -0.1683  0.3962
 2946W        W20470  12.608  12.696   4.772  0.0915 -0.1868 -0.1969
 2947W        W20471   6.647   0.960  11.315  0.0444  0.1052 -0.2159
 2948W        W20472   9.042  14.580  15.488  0.1466  0.0195  0.2072
 2949W        W20473   4.687   9.479   5.887  0.0167 -0.0115 -0.0431
 2950W        W20474   4.865   4.696  17.003 -0.2791 -0.0584 -0.0365
 2951W        W20475  16.091   5.607  10.689 -0.1067 -0.1604  0.2573
 2952W        W20476   1.796   8.850  12.007 -0.0904 -0.1375  0.1295
 2953W        W20477  12.086  11.022   4.878  0.0890  0.0177  0.0104
 2954W        W20478   3.295   8.100  12.843  0.1786 -0.1527  0.0278
 2955W        W20479   0.879   3.684  16.265  0.1174  0.1828 -0.3244
 2956W        W20480   9.913  15.036   5.587 -0.1356 -0.2153 -0.1227
 2957W        W20481   2.439  11.724  15.453 -0.0720  0.5049  0.1142
 2958W        W20482   4.378  17.081   2.928 -0.0369  0.1950  0.0706
 2959W        W20483  10.791   3.656   4.719  0.0163 -0.2002  0.2394
 2960W        W20484  13.794  12.799   3.082  0.2163  0.2382  0.0941
 2961W        W20485   8.990   2.678  16.713 -0.0532 -0.2280  0.0491
 2962W        W20486   0.791   2.968   1.396 -0.1217  0.0254 -0.2596
 2963W        W20487  16.398   3.815  14.869  0.2839 -0.1161 -0.2429
 2964W        W20488  12.137  11.584   4.391 -0.0695 -0.2100  0.3390
 2965W        W20489   7.012   0.934   4.528 -0.0124 -0.1047 -0.1025
 2966W        W20490   4.737   0.760  17.263 -0.1585  0.0454 -0.2184
 2967W        W20491  14.432  14.255  12.686  0.1578 -0.0022  0.1378
 2968W        W20492  10.877  14.731   3.960 -0.3233  0.1239  0.0549
 2969W        W20493   5.952  12.972   2.739 -0.1223 -0.1884 -0.1531
 2970W        W20494  15.457   2.058   3.942  0.0259 -0.0104  0.2983
 2971W        W20495  15.118   2.157  15.817  0.3429  0.2229  0.0817
 2972W        W20496   6.881  13.575   6.301  0.1716 -0.2972  0.1072
 2973W        W20497   6.724   8.538   3.941  0.1810 -0.1800  0.2228
 2974W        W20498   8.729  13.305  16.043  0.1713 -0.2768 -0.0304
 2975W        W20499  15.769  16.320   0.313  0.3298 -0.0058 -0.1320
 2976W        W20500   7.162   7.645  16.269  0.3095 -0.0402  0.1264
 2977W        W20501   2.549  13.469  15.972 -0.0408  0.3394 -0.1321
 2978W        W20502  16.588   7.558  16.277  0.0422  0.2034  0.1694
 2979W        W20503  14.068   5.938  13.094 -0.1477 -0.2513  0.2713
 2980W        W20504   7.575  14.099  12.529 -0.3487  0.2252  0.0344
 2981W        W20505   1.739   8.547   0.675  0.0954  0.1164 -0.0782
 2982W        W20506   2.377  15.635  16.974  0.3140  0.1822  0.1559
 2983W        W20507   0.260  11.823  13.271 -0.3368  0.1332  0.3781
 2984W        W20508  15.330   6.386   3.009  0.0250 -0.1273  0.0830
 2985W        W20509  14.142   8.683  15.688  0.1925 -0.0049  0.3364
 2986W        W20510   6.677   8.740   5.282 -0.1485 -0.0393  0.0941
 2987W        W20511   0.659   0.966  17.577  0.1834  0.3347  0.0201
 2988W        W20512   6.253  13.634  12.906  0.1968 -0.2154 -0.1442
 2989W        W20513  10.375  15.509   3.079 -0.2120  0.3131 -0.0044
 2990W        W20514   4.530  12.057   0.241  0.0888 -0.1508 -0.0502
 2991W        W20515   5.348   8.102   1.298  0.0583 -0.2907  0.1599
 2992W        W20516  12.227  12.312   4.757  0.0103 -0.3315  0.0612
 2993W        W20517  15.242   8.640  12.766 -0.3378  0.0245  0.1766
 2994W        W20518   8.030  11.733   5.569  0.1081 -0.1474 -0.4558
 2995W        W20519   4.759   7.106  15.418  0.1718  0.1385  0.1123
 2996W        W20520   5.162   1.031  16.475 -0.0877  0.1765 -0.0521
 2997W        W20521  16.156  11.914   0.418 -0.1176 -0.0246 -0.0738
 2998W        W20522  16.468  15.254  15.846  0.3013 -0.3183 -0.0256
 2999W        W20523  12.000   6.631  17.612  0.0502 -0.0562 -0.1033
 3000W        W20524   0.266  16.935   2.838  0.1674  0.0818 -0.0569
 3001W        W20525   9.882  10.237  16.131 -0.1793 -0.0946 -0.0175
 3002W        W20526  17.121   7.849  15.557  0.0568 -0.0634  0.1427
 3003W        W20527   5.574  10.998  15.076  0.2364  0.0587 -0.1632
 3004W        W20528   3.941  12.536  12.333  0.0428  0.1297 -0.0499
 3005W        W20529   9.665   5.119   5.017 -0.2138  0.0025  0.0014
 3006W        W20530  13.469   6.291  14.798  0.2284 -0.1508 -0.0926
 3007W        W20531   4.080   1.158  12.375  0.0652  0.0719 -0.0962
 3008W        W20532   8.237   7.058   1.276 -0.1091 -0.0349 -0.0273
 3009W        W20533   4.542   8.065   4.556  0.3117 -0.0183 -0.1203
 3010W        W20534  13.246  13.415  17.534 -0.1944  0.2282  0.0438
 3011W        W20535   4.284   6.858  13.325  0.0742 -0.4118  0.0617
 3012W        W20536  17.228   8.978  16.392  0.1692  0.0377  0.3863
 3013W        W20537   8.339   5.800   3.761 -0.0425  0.2725 -0.0542
 3014W        W20538   7.914  15.919   3.154  0.0290 -0.1036 -0.0865
 3015W        W20539   0.862  14.240  12.664  0.0678  0.4605 -0.0982
 3016W        W20540   1.770   1.423   5.365  0.4564 -0.3249  0.0154
 3017W        W20541   4.565   7.478  15.757 -0.1834  0.0994  0.1920
 3018W        W20542  14.304  13.190   1.630  0.4127  0.1363 -0.2951
 3019W        W20543   1.327   5.860   1.678  0.0584  0.1702  0.3664
 3020W        W20544   8.009  14.272  12.757 -0.0386 -0.0029 -0.2300
 3021W        W20545   3.034   7.484   1.540 -0.0726  0.0890 -0.2052
 3022W        W20546  14.812   9.875   4.702 -0.0355  0.0140 -0.0582
 3023W        W20547   9.521  16.080  15.867 -0.2488  0.0226 -0.1107
 3024W        W20548  16.401  14.690  15.964  0.0010 -0.1512 -0.5020
 3025W        W20549  13.228  10.307  16.675 -0.2447  0.2732 -0.3155
 3026W        W20550  12.988   6.969  14.230 -0.0497 -0.0539 -0.1239
 3027W        W20551   8.529  10.432  12.584  0.0651 -0.0632 -0.0368
 3028W        W20552  12.541   5.291  14.273 -0.2375  0.2618 -0.1029
 3029W        W20553   6.639   4.303   2.117  0.0041 -0.0316 -0.0072
 3030W        W20554  10.468  10.145  15.002  0.0437 -0.0350 -0.1785
 3031W        W20555   2.860   0.227   4.389  0.0440 -0.0234 -0.3460
 3032W        W20556   8.799  14.046  13.719 -0.2891 -0.0990 -0.1877
 3033W        W20557   6.786   0.019   2.472  0.1097 -0.0830 -0.3757
 3034W        W20558   8.268   9.805   1.425  0.0584 -0.2429 -0.0373
 3035W        W20559   0.629   7.393  14.438  0.1880  0.1611  0.0725
 3036W        W20560   7.277   7.213   3.285  0.0028  0.4009 -0.0479
 3037W        W20561  14.633   6.767   3.624  0.1288 -0.1998  0.0130
 3038W        W20562  13.402   5.169  13.292 -0.1554  0.0212 -0.0640
 3039W        W20563   1.209  12.346   6.175 -0.1625 -0.0271  0.1482
 3040W        W20564   4.705   3.892   0.709  0.2074  0.2331  0.0387
 3041W        W20565  10.094   9.992   2.329  0.3027  0.0758 -0.0277
 3042W        W20566   6.145   8.710   3.853  0.0517  0.0315  0.1798
 3043W        W20567   5.658  10.351  14.048  0.0092  0.3202  0.2237
 3044W        W20568   5.654  12.459   1.486 -0.2079  0.0284 -0.4606
 3045W        W20569  11.225   1.735   1.069 -0.2675 -0.2257 -0.2228
 3046W        W20570   3.045   0.780   3.650  0.0301 -0.2227 -0.1641
 3047W        W20571   9.964  13.689  16.681  0.0833 -0.4228 -0.2812
 3048W        W20572   6.696  10.312  12.845  0.0020  0.2164 -0.1638
 3049W        W20573  12.722   4.890  13.725 -0.1901  0.3927 -0.1559
 3050W        W20574  12.125   6.385   4.181  0.0384 -0.0049 -0.0386
 3051W        W20575  15.183  11.566  14.624 -0.1832  0.0263  0.0053
 3052W        W20576   3.640   9.299   0.530 -0.2221  0.0828  0.1836
 3053W        W20577   6.092   7.136   0.855 -0.2372 -0.2060 -0.2285
 3054W        W20578  13.281   3.647   1.044 -0.0824 -0.0133  0.0880
 3055W        W20579   7.679   5.246   2.050  0.0022 -0.0428  0.1988
 3056W        W20580  12.223   4.023  12.503 -0.2199 -0.1177  0.2080
 3057W        W20581   3.738   8.181   5.683 -0.3066 -0.0509  0.2216
 3058W        W20582   3.861   6.659  13.785 -0.3228  0.2614  0.0639
 3059W        W20583  11.274  13.771  15.519  0.1140  0.0368  0.3796
 3060W        W20584  14.090  14.254   2.524  0.1148 -0.1687 -0.0315
 3061W        W20585   8.601   8.892  13.964  0.1819 -0.0063  0.0878
 3062W        W20586   1.682   8.788  14.003  0.1213 -0.0960  0.1502
 3063W        W20587   7.599  14.744   2.469  0.0634 -0.0008 -0.0488
 3064W        W20588  13.631  10.390   2.596  0.3705  0.2385  0.1203
 3065W        W20589   8.164  10.046   3.278  0.1893 -0.0665  0.2774
 3066W        W20590   7.235   5.322   1.145  0.0265  0.1414  0.0866
 3067W        W20591  17.031   1.348  16.435 -0.0376  0.1349 -0.2899
 3068W        W20592   4.000   1.764   3.770  0.0278  0.0299 -0.0045
 3069W        W20593   5.083   4.833  16.444 -0.3774 -0.0975  0.2166
 3070W        W20594   4.917   6.542   2.029 -0.2571  0.0293 -0.1402
 3071W        W20595  11.960   0.194   4.823  0.2125 -0.1290  0.2636
 3072W        W20596  11.665   5.157   4.836  0.0959  0.0149  0.1376
 3073W        W20597   6.235  10.215  16.373  0.2783  0.0430  0.1922
 3074W        W20598   0.136  16.129   2.328  0.2865 -0.1333 -0.1311
 3075W        W20599  12.088  12.800  15.832 -0.1783 -0.1028  0.0657
 3076W        W20600   1.181   5.992   0.482  0.0378 -0.0123  0.1818
 3077W        W20601  11.507  16.443   4.587 -0.0482 -0.0131  0.0392
 3078W        W20602  13.908   2.305   0.183  0.1071  0.0160  0.0397
 3079W        W20603  10.973   1.375  16.607 -0.0959 -0.2234 -0.0896
 3080W        W20604  15.381  13.697  15.587  0.1712  0.1761  0.1217
 3081W        W20605   5.573   6.919  12.727  0.2405  0.0163 -0.1755
 3082W        W20606   7.965  10.007  16.474 -0.2127 -0.0905 -0.0664
 3083W        W20607  14.314  16.356   2.438 -0.3463  0.2781 -0.0683
 3084W        W20608  16.934  16.334   2.009  0.2266  0.1392 -0.1151
 3085W        W20609   3.539   9.180  15.896 -0.0057 -0.1727 -0.0701
 3086W        W20610   4.611   1.187  13.762 -0.2298  0.0238 -0.1259
 3087W        W20611   6.753   5.914   5.862 -0.0221  0.1173 -0.1080
 3088W        W20612   6.462  10.965  16.715  0.2855 -0.0153  0.0651
 3089W        W20613   8.413   6.418   3.355 -0.0112 -0.2627 -0.1737
 3090W        W20614  17.244   2.880   0.904  0.1151 -0.4104 -0.2341
 3091W        W20615   8.623   9.001   2.315 -0.1394  0.1406 -0.1197
 3092W        W20616   7.056  14.448  14.269 -0.0605  0.0544 -0.2830
 3093W        W20617   5.761  10.152  13.334 -0.1357 -0.2886 -0.1622
 3094W        W20618  11.598   4.236   2.676 -0.0584  0.2434  0.1605
 3095W        W20619  13.969  10.896  14.773  0.0331 -0.1009 -0.3322
 3096W        W20620  12.225  10.084   2.573 -0.1157 -0.1004  0.2596
 3097W        W20621  12.170   0.230  15.903  0.1612  0.0431  0.0312
 3098W        W20622   6.875  15.090  17.058  0.2845 -0.0519  0.3120
 3099W        W20623   0.196   7.397  15.477 -0.0343  0.1665  0.2880
 3100W        W20624   7.177  10.849  12.604  0.0744  0.2335 -0.0024
 3101W        W20625  14.690   4.623  14.959 -0.0284 -0.0661 -0.1710
 3102W        W20626   4.289  15.103   4.824 -0.0706 -0.0060 -0.1111
 3103W        W20627  12.527   1.658   1.110 -0.1967  0.0957  0.0526
 3104W        W20628  12.571  12.036   0.030 -0.2247  0.4009  0.2623
 3105W        W20629  17.165   2.097   0.480  0.0663 -0.0759  0.1415
 3106W        W20630  10.442   7.902  14.145  0.0693 -0.3448 -0.1422
 3107W        W20631  10.007  13.509  14.856 -0.1771 -0.1333 -0.1609
 3108W        W20632  12.518  16.931   2.068 -0.2082 -0.0193  0.2495
 3109W        W20633  16.812   0.803   0.077 -0.0583 -0.1601  0.1154
 3110W        W20634   2.620  15.457   0.648 -0.0544 -0.2580  0.1246
 3111W        W20635   8.822  16.762  13.656  0.2539  0.0044 -0.0831
 3112W        W20636  15.961   8.664  11.975  0.1353  0.0525  0.0227
 3113W        W20637   3.684  14.380   2.571  0.0585  0.0536 -0.2591
 3114W        W20638   1.933  10.674  16.623  0.1374 -0.0795  0.0183
 3115W        W20639   4.813  16.221   1.334  0.0692 -0.2351  0.4092
 3116W        W20640   6.065  11.512  15.353  0.0485 -0.2958  0.2343
 3117W        W20641   6.793   6.813   2.342 -0.0348  0.4879  0.1608
 3118W        W20642  14.165  13.315   0.301  0.2185 -0.1511 -0.0473
 3119W        W20643   7.071  15.624   4.449 -0.2677 -0.0340  0.0257
 3120W        W20644  10.357  13.975   3.883  0.1941  0.0381  0.0864
 3121W        W20645   3.842  15.139  14.002 -0.0610  0.1039 -0.1725
 3122W        W20646  15.310   4.384   1.650  0.2245  0.1284  0.2145
 3123W        W20647  11.160  12.917   0.905  0.3647  0.0025  0.1062
 3124W        W20648   8.944  12.928   0.197  0.1697 -0.1318  0.2633
 3125W        W20649  14.863  14.080  15.544 -0.3641 -0.3689 -0.3262
 3126W        W20650   0.024  15.970   6.536 -0.2317 -0.1192 -0.2203
 3127W        W20651   4.809   9.181  16.351  0.2207  0.0409 -0.1728
 3128W        W20652  15.183  16.444   1.884  0.0903 -0.0377 -0.0434
 3129W        W20653   0.409  11.207   5.313  0.1111  0.3107 -0.0569
 3130W        W20654   8.779   2.622   0.899 -0.1236 -0.1758  0.2419
 3131W        W20655  10.142   3.894  16.972  0.2508  0.0802  0.2739
 3132W        W20656  14.036   2.895   5.382  0.1395 -0.0521  0.1156
 3133W        W20657   2.919   6.094  15.723  0.1044  0.0317 -0.3686
 3134W        W20658   9.055   4.492   3.487  0.2882 -0.2145  0.3137
 3135W        W20659  15.206   9.807   1.938 -0.1235  0.0306 -0.0607
 3136W        W20660   0.456   3.810  16.511  0.2004 -0.1754 -0.0977
 3137W        W20661   4.497   1.811   3.742  0.0535  0.0967  0.0014
 3138W        W20662  10.293   0.571   5.619 -0.1140 -0.1537  0.0068
 3139W        W20663   4.553   6.451  14.214 -0.0418 -0.0189 -0.0272
 3140W        W20664  14.938   9.494   3.883 -0.1852 -0.0716  0.2605
 3141W        W20665  13.437   7.099   0.964 -0.0151  0.1824 -0.0714
 3142W        W20666   8.160  10.272   2.750  0.0792  0.2443  0.0370
 3143W        W20667   2.070   6.093  13.475  0.3317  0.0484  0.2450
 3144W        W20668   2.596  11.410   0.369  0.0637 -0.0127 -0.0940
 3145W        W20669   0.293  15.938   4.599 -0.0267 -0.2831 -0.0973
 3146W        W20670  10.357   9.253  14.030 -0.1402 -0.1045  0.0876
 3147W        W20671   1.148   4.091  12.401  0.0906  0.2461  0.0166
 3148W        W20672  12.886   2.475  16.616 -0.1616 -0.0194 -0.0795
 3149W        W20673   8.593   5.928   4.921  0.2555  0.2005 -0.0016
 3150W        W20674   0.487   5.942   1.021  0.0591 -0.0526 -0.1277
 3151W        W20675   4.758   7.544  17.041 -0.1903  0.1586  0.1984
 3152W        W20676  16.971  10.579   2.374  0.0159  0.1373  0.3254
 3153W        W20677  15.538  14.349  15.058  0.3573  0.1110  0.0579
 3154W        W20678   8.563   4.523   3.315  0.2162 -0.2653 -0.1396
 3155W        W20679  17.233   4.968  17.406  0.2450 -0.0221 -0.3283
 3156W        W20680  13.656   9.511  13.215 -0.1241  0.0725  0.0928
 3157W        W20681   9.361  10.809   4.553  0.0120  0.1010  0.0880
 3158W        W20682   3.950   0.816  16.211  0.1165 -0.1085  0.1881
 3159W        W20683  14.311  15.119  13.837  0.0703  0.2808 -0.2951
 3160W        W20684   5.611  14.156   4.141 -0.1085  0.0657  0.0920
 3161W        W20685   0.239  14.561  16.833  0.1330 -0.0028  0.0465
 3162W        W20686   4.716  14.430   1.902 -0.0074 -0.0663 -0.5800
 3163W        W20687  12.635  13.581  13.001 -0.2953  0.0125 -0.1240
 3164W        W20688   6.026   8.278   4.597 -0.0343 -0.2997  0.0528
 3165W        W20689  15.415   2.214   1.138  0.0567 -0.1946  0.3778
 3166W        W20690   9.095  10.578  15.707  0.0428 -0.1835  0.1300
 3167W        W20691   7.663   0.331   0.156 -0.3079 -0.2143  0.0801
 3168W        W20692  10.578   7.935   5.192 -0.0059  0.0276  0.1225
 3169W        W20693   1.723  12.204   3.018 -0.0316 -0.0116 -0.3702
 3170W        W20694   1.725  12.672  14.040 -0.0549  0.1899 -0.1405
 3171W        W20695   1.247  16.042  15.066 -0.0624  0.2971  0.0125
 3172W        W20696  11.571   6.105   2.441 -0.0352 -0.0625 -0.0427
 3173W        W20697   3.830  13.960  12.009 -0.1292  0.0584 -0.0109
 3174W        W20698  12.310   1.396   0.758  0.0147  0.0928 -0.2043
 3175W        W20699   0.572  13.773   2.830 -0.0797  0.0150  0.0756
 3176W        W20700  16.420   1.820  16.922  0.1989  0.0199  0.1272
 3177W        W20701   7.582  11.391   0.996  0.2573  0.3620  0.1088
 3178W        W20702   3.652   3.943   1.099 -0.2960  0.0548 -0.0746
 3179W        W20703  12.720   1.333  17.196 -0.1412  0.2813  0.2699
 3180W        W20704  14.465  14.632   3.940  0.2232  0.0998  0.0798
 3181W        W20705  14.150   4.971  17.141  0.0194 -0.0820  0.1495
 3182W        W20706   9.548   6.987  14.480 -0.0935 -0.2371 -0.1777
 3183W        W20707  16.335   0.362   1.603 -0.0249 -0.0738 -0.0151
 3184W        W20708  13.169   0.338  12.324  0.2304 -0.0683  0.1809
 3185W        W20709   7.490   0.387   3.770  0.1316 -0.1267 -0.0607
 3186W        W20710   6.746   7.376  16.669  0.0879  0.1156  0.3196
 3187W        W20711  13.109   9.823  12.497  0.0661  0.2741  0.3554
 3188W        W20712   7.214  15.946  12.755  0.1268  0.1623 -0.0331
 3189W        W20713  12.619  16.163   1.507  0.0871 -0.0562 -0.1717
 3190W        W20714   6.174  14.752   5.155  0.0556  0.0428  0.1073
 3191W        W20715   6.714  11.718   4.871  0.4624 -0.0352  0.1690
 3192W        W20716   1.209   5.398  12.510  0.1416  0.0187 -0.2048
 3193W        W20717  10.720   9.970   2.578  0.3925 -0.1972  0.1774
 3194W        W20718   1.148   7.684  15.104 -0.2354  0.0625  0.0636
 3195W        W20719  10.811   6.898   4.985  0.0511 -0.3625  0.2266
 3196W        W20720  11.640   1.480   0.953  0.0951 -0.3013  0.1269
 3197W        W20721   3.374   5.927  14.767 -0.0081 -0.1776 -0.0548
 3198W        W20722   9.783   3.549  17.127  0.1171  0.3418 -0.0458
 3199W        W20723  10.711   2.685   5.366  0.0050  0.0070 -0.2977
 3200W        W20724  10.313   0.170   4.241 -0.0181  0.1556  0.1999
 3201W        W20725   0.973   3.901   0.595  0.3655  0.2198  0.0467
 3202W        W20726   9.180   6.325  12.417 -0.1024  0.1017  0.1948
 3203W        W20727   7.615   2.267  13.995 -0.0679  0.2344  0.0843
 3204W        W20728  16.147  12.837  15.288 -0.4454  0.1845  0.0173
 3205W        W20729   5.589  10.774   5.180 -0.0397  0.1199  0.2313
 3206W        W20730   2.727   0.235   2.556  0.1605 -0.3063  0.1490
 3207W        W20731   4.527  10.278  15.460 -0.1769 -0.0316  0.3114
 3208W        W20732  11.898   2.005  16.583  0.0206  0.0321 -0.1520
 3209W        W20733   6.745   1.856  16.377 -0.2758 -0.2234  0.0949
 3210W        W20734  12.030   7.345  13.853 -0.2916  0.2102 -0.0488
 3211W        W20735   9.130   9.014   4.762  0.0887  0.2094  0.0378
 3212W        W20736   9.985  16.081   4.984  0.0995 -0.1950  0.0284
 3213W        W20737   5.333  12.769  14.643 -0.3339  0.0232  0.1225
 3214W        W20738   3.100  14.956  17.309 -0.1862  0.1505 -0.3696
 3215W        W20739  16.702  10.664  15.854 -0.1190  0.2194  0.2478
 3216W        W20740  14.222   1.923   3.427  0.3171 -0.1534  0.0561
 3217W        W20741   0.341   7.460   4.360  0.0062  0.0523  0.2797
 3218W        W20742   5.508  15.674  15.095  0.0540 -0.0904  0.1340
 3219W        W20743  15.743   0.008   3.843 -0.3368  0.1698  0.0539
 3220W        W20744  11.534  12.858   3.293 -0.3919 -0.0034 -0.0411
 3221W        W20745   9.329  11.095   1.328 -0.2005  0.1680 -0.0998
 3222W        W20746  12.881  10.631  15.004  0.0684 -0.1564  0.0984
 3223W        W20747  10.859  12.031   1.333  0.0898 -0.1674 -0.0681
 3224W        W20748  12.498   6.974  16.305 -0.1694 -0.0331  0.0228
 3225W        W20749  10.393   5.668  13.932  0.0477 -0.2241 -0.1017
 3226W        W20750  12.787   5.213  15.282 -0.1223 -0.4986  0.1866
 3227W        W20751   1.168   7.814  17.322 -0.0217  0.2516 -0.1747
 3228W        W20752   0.465   9.293  15.047  0.3148  0.0741 -0.1072
 3229W        W20753   9.308   7.921  13.355 -0.2684  0.1895  0.1045
 3230W        W20754   6.783   6.325  12.806 -0.0188  0.3505 -0.1878
 3231W        W20755  13.650   1.465  14.412 -0.3564 -0.5232 -0.3054
 3232W        W20756  15.117  16.550  15.432 -0.2145 -0.0120 -0.1257
 3233W        W20757   1.081   1.303  14.430  0.1095 -0.1538  0.1151
 3234W        W20758  10.209   0.943  14.507 -0.1499  0.3835  0.0670
 3235W        W20759   7.891   6.821  15.587 -0.0191 -0.1706 -0.0115
 3236W        W20760   0.497   3.080   4.117  0.0849 -0.1195  0.1493
 3237W        W20761   1.497   2.394   1.784 -0.1348 -0.1261  0.1516
 3238W        W20762  15.543  14.195   2.210  0.2858  0.0844  0.0980
 3239W        W20763   6.067   6.911   4.050 -0.0074 -0.1034 -0.0205
 3240W        W20764   1.609   8.121   1.494 -0.0189  0.0130  0.0282
 3241W        W20765   9.176   1.498  17.165  0.1572 -0.0045 -0.2074
 3242W        W20766  12.957  10.784   4.513 -0.0530  0.1708  0.1964
 3243W        W20767   0.048   5.294   0.309 -0.0630  0.0380 -0.2019
 3244W        W20768   0.239   5.103  14.123  0.1173 -0.1258 -0.2728
 3245W        W20769  13.371   0.675   4.595  0.0771  0.0200 -0.1419
 3246W        W20770  15.035  11.729  15.118 -0.0140  0.1119  0.2058
 3247W        W20771  16.948  16.900   0.592 -0.0516  0.0103 -0.1958
 3248W        W20772  14.717  10.935   5.421 -0.1656  0.1485  0.0743
 3249W        W20773  17.046  11.787  13.042 -0.0188 -0.2671  0.0506
 3250W        W20774   0.448   6.090  14.291  0.1239  0.4527 -0.1284
 3251W        W20775   2.032   0.040   4.713 -0.0094  0.2090 -0.0836
 3252W        W20776   9.759   2.425   2.949 -0.1088 -0.2642 -0.1292
 3253W        W20777   5.469  13.864  14.032 -0.0385 -0.2892 -0.2485
 3254W        W20778   1.953  15.688  15.156  0.2341 -0.1305 -0.3663
 3255W        W20779  13.039  15.332   0.868 -0.0245  0.0072 -0.1017
 3256W        W20780   9.047   5.143   6.604  0.2400  0.1815 -0.0593
 3257W        W20781  16.781  15.183  17.241 -0.1985 -0.0226  0.1682
 3258W        W20782   8.416  12.256  15.700 -0.0882  0.1560 -0.0053
 3259W        W20783   3.823  15.144   4.608 -0.0966 -0.4274 -0.2491
 3260W        W20784   3.843  14.369   4.402 -0.0396 -0.0636  0.2099
 3261W        W20785  15.864   5.503  16.288 -0.1172 -0.1281 -0.4350
 3262W        W20786  10.718   5.030  12.825  0.2261 -0.1106  0.1524
 3263W        W20787  14.537   9.245   4.913 -0.1211  0.1902 -0.0396
 3264W        W20788   3.123   6.893  17.566  0.2399  0.0293  0.2133
 3265W        W20789   2.143  10.966  17.379 -0.1146 -0.0947  0.0224
 3266W        W20790   2.804  14.501   2.595 -0.2030  0.1708 -0.1387
 3267W        W20791  14.865  10.421   3.201  0.1064  0.0676 -0.2830
 3268W        W20792   0.382  15.532   4.824  0.2686 -0.1756 -0.0749
 3269W        W20793   4.955   8.238   4.910 -0.0332  0.0996 -0.0866
 3270W        W20794   8.267   0.511  15.148 -0.2680  0.0048 -0.1959
 3271W        W20795  10.374   6.174   3.978 -0.1996  0.1773 -0.0878
 3272W        W20796  15.048  13.761   3.946 -0.3772 -0.2110  0.3895
 3273W        W20797  13.239  11.113   3.720 -0.1676 -0.1541 -0.2745
 3274W        W20798  14.271   1.620  14.152  0.2100  0.2538  0.1431
 3275W        W20799  15.297   0.065   0.142 -0.0995  0.0944 -0.4206
 3276W        W20800   9.588   9.379  13.864  0.1091 -0.0222 -0.1026
 3277W        W20801  15.915   8.928   2.258  0.1118 -0.0162 -0.0150
 3278W        W20802  16.346  10.668   0.322  0.1067 -0.1117  0.1417
 3279W        W20803   4.137   0.686   0.538 -0.2067  0.1368 -0.0581
 3280W        W20804   2.219   6.984   3.336  0.2125  0.1175  0.0075
 3281W        W20805   1.886   6.160  14.654 -0.1690  0.1183  0.0202
 3282W        W20806   3.709   5.695   2.273 -0.1071  0.0967 -0.0572
 3283W        W20807   8.250  11.459   3.804 -0.0319  0.0934 -0.0203
 3284W        W20808  12.290  16.995   0.929 -0.2342  0.0923 -0.1448
 3285W        W20809   6.928  15.715  14.175 -0.1435 -0.2368 -0.2070
 3286W        W20810   2.328  11.418   5.238 -0.2460  0.1900  0.0955
 3287W        W20811  13.342  13.972   1.715  0.0843  0.1479 -0.0395
 3288W        W20812  16.224   0.775   4.547 -0.2210 -0.0609  0.0576
 3289W        W20813  17.116   7.099   3.743  0.1335 -0.1674 -0.0688
 3290W        W20814   7.193  12.866  12.466 -0.3397 -0.0063  0.2173
 3291W        W20815   9.189   1.062   2.828  0.0180  0.3271  0.4814
 3292W        W20816   9.091   0.169   5.814 -0.2096  0.4173 -0.1847
 3293W        W20817  12.349   3.212  13.052  0.0712 -0.0839 -0.1960
 3294W        W20818  14.305  10.976  14.000  0.1516  0.2463 -0.1100
 3295W        W20819   8.923  11.866   1.121  0.1521 -0.0731  0.2586
 3296W        W20820  13.092   3.887  14.154 -0.0987  0.0675 -0.1029
 3297W        W20821  13.360   0.994   5.459 -0.0685 -0.2046  0.1985
 3298W        W20822   9.934  11.505   4.528  0.0556 -0.4320 -0.5300
 3299W        W20823  12.032   9.629   2.670 -0.0916  0.0732 -0.1955
 3300W        W20824   8.352   0.330   4.475 -0.0872  0.2089 -0.1580
 3301W        W20825  15.688  14.646   5.740  0.0743 -0.0004  0.0596
 3302W        W20826  15.021   1.750   2.576  0.0089  0.0819 -0.1049
 3303W        W20827  10.073   7.620  12.825  0.1371  0.2697 -0.0927
 3304W        W20828   8.210  13.726   5.686 -0.0015  0.1029  0.3920
 3305W        W20829   4.410  14.763   2.101  0.3394  0.0930 -0.0669
 3306W        W20830   5.669  14.112  13.545 -0.0129  0.3775  0.1177
 3307W        W20831  16.042   9.069  12.483  0.0069  0.1525 -0.1674
 3308W        W20832  11.071   1.624  12.164 -0.0064  0.1073 -0.0962
 3309W        W20833   5.292  15.502   2.031  0.1056 -0.1561 -0.0242
 3310W        W20834  11.392  11.497  12.392  0.0012 -0.1249 -0.3597
 3311W        W20835  14.781   0.542   0.898 -0.2774  0.1288  0.1152
 3312W        W20836  10.408   9.233  13.189 -0.0710  0.0794  0.5160
 3313W        W20837  10.210   4.770   0.565 -0.1392 -0.0813 -0.4655
 3314W        W20838  17.007  12.462  14.696 -0.1189  0.2095 -0.0153
 3315W        W20839  12.646  16.779   3.226  0.0586  0.1193 -0.0456
 3316W        W20840   0.787  14.513   0.556  0.2706 -0.1773  0.3673
 3317W        W20841   0.144   1.580  15.385 -0.1192 -0.0129 -0.2927
 3318W        W20842   5.859  15.140   0.436 -0.0783 -0.2734  0.0838
 3319W        W20843   2.713   3.160  14.456 -0.3000 -0.0627  0.0532
 3320W        W20844   9.881   3.363   2.231  0.0054  0.4005 -0.1998
 3321W        W20845  12.828   8.398  11.606 -0.1179  0.1194  0.0574
 3322W        W20846  10.422   5.812   0.746 -0.0499 -0.3008  0.0715
 3323W        W20847   4.195   8.033   3.673 -0.0320  0.1736  0.2480
 3324W        W20848   4.787  11.303  15.273  0.0904 -0.3054  0.0445
 3325W        W20849  12.637   0.155  12.816  0.0266 -0.1878 -0.0796
 3326W        W20850  11.069  10.288  14.679 -0.1318  0.0737  0.2414
 3327W        W20851  13.755   7.830  17.564  0.0373  0.4632 -0.0281
 3328W        W20852   6.057  10.180   1.190 -0.1374 -0.0318  0.0542
 3329W        W20853  13.862   3.947   2.750  0.1548 -0.1568 -0.0076
 3330W        W20854  16.787   5.547  12.813  0.1633  0.0582 -0.1905
 3331W        W20855   5.265   0.490   2.585  0.0926 -0.0352  0.0984
 3332W        W20856  14.063   8.538   4.059 -0.2744  0.2035  0.2974
 3333W        W20857   5.218  16.403  12.765  0.4706  0.3035  0.1726
 3334W        W20858   6.371   4.978   4.428  0.1508  0.0040 -0.0730
 3335W        W20859   3.870  13.663   1.141 -0.0965 -0.1977 -0.3557
 3336W        W20860   6.162   3.138   4.978 -0.1577 -0.0940  0.1905
 3337W        W20861  13.405   8.819  14.209 -0.0338  0.1824 -0.1029
 3338W        W20862  12.606   9.730   3.966 -0.2406  0.4416  0.2005
 3339W        W20863   3.362   2.035   4.211  0.1833  0.0074  0.3047
 3340W        W20864   0.467  15.785  14.838  0.2071  0.0420  0.1661
 3341W        W20865   7.446   2.806   0.547  0.1520 -0.0060 -0.0375
 3342W        W20866   3.410   7.603  16.463 -0.0505  0.0442 -0.2274
 3343W        W20867  14.302  16.072  16.395 -0.1140  0.2366 -0.0104
 3344W        W20868   0.420   0.757  17.049  0.1418 -0.0545  0.1385
 3345W        W20869  11.705   0.895   4.951  0.0992 -0.1884 -0.0535
 3346W        W20870   0.041   0.277  13.828  0.2120 -0.0899 -0.2448
 3347W        W20871   6.399   1.261   3.163 -0.2395 -0.2000  0.2543
 3348W        W20872   3.608   6.501   0.846  0.1863  0.0894  0.2204
 3349W        W20873   4.952   0.468   0.017  0.0029 -0.0034 -0.2030
 3350W        W20874   3.582   4.983   0.088  0.3353  0.1230 -0.1845
 3351W        W20875  10.066  12.805  17.144  0.0167 -0.0662  0.0660
 3352W        W20876   5.672  16.898  12.837  0.3427 -0.0454 -0.0908
 3353W        W20877   9.326   4.083   3.550  0.1156  0.2612  0.0761
 3354W        W20878   6.956  13.635  17.009  0.2104  0.0003  0.1906
 3355W        W20879   8.827  15.052   4.643  0.0951 -0.0135  0.3422
 3356W        W20880   5.885   7.022   0.212  0.3061  0.1648 -0.2615
 3357W        W20881  11.942  12.482  13.748 -0.0990 -0.4054 -0.1245
 3358W        W20882   0.793  15.949  13.450 -0.0293  0.2472 -0.0836
 3359W        W20883   7.583  15.387  15.928  0.1125  0.0331  0.0268
 3360W        W20884  12.304  10.980   2.535  0.0930 -0.0528  0.0751
 3361W        W20885  11.121  11.926   2.637 -0.0226  0.1920 -0.0185
 3362W        W20886   8.926   4.596   2.961 -0.0019  0.1307  0.0619
 3363W        W20887   9.839   1.542  15.444 -0.0372 -0.0456  0.2018
 3364W        W20888   8.062  15.608  13.284 -0.0422  0.1432 -0.1857
 3365W        W20889   8.691  10.242  15.679 -0.0484 -0.1592 -0.0438
 3366W        W20890  12.335   7.731  17.553 -0.0289  0.1547 -0.1965
 3367W        W20891   2.330  11.963   5.205  0.1084  0.2786  0.2255
 3368W        W20892  10.929   9.556  11.367  0.1797 -0.2515  0.1921
 3369W        W20893   6.748  15.733  12.756  0.0184  0.1584 -0.2281
 3370W        W20894  15.189   0.097  15.720  0.0750 -0.0322  0.0285
 3371W        W20895   6.543   5.130  16.173  0.1593  0.2021  0.3621
 3372W        W20896   1.182   2.769  13.497 -0.0183 -0.0066 -0.2660
 3373W        W20897   2.251  16.074  17.273 -0.1189 -0.1271 -0.1572
 3374W        W20898  16.888   5.884   1.400  0.1154 -0.1641  0.4010
 3375W        W20899   0.772  10.057  16.517 -0.0080  0.1856 -0.1465
 3376W        W20900  16.309  14.316  11.954 -0.1754 -0.0976 -0.0927
 3377W        W20901   4.709   5.159   2.566  0.0580  0.0762 -0.1090
 3378W        W20902   2.123  14.828   3.341 -0.1313 -0.0508 -0.0180
 3379W        W20903  13.225  11.006  15.972 -0.0147 -0.0132 -0.2405
 3380W        W20904   6.389  15.088   1.803 -0.3781 -0.1163 -0.3019
 3381W        W20905  16.080  15.011   3.135  0.2187  0.0959 -0.1153
 3382W        W20906   2.511  16.273  13.582 -0.1030 -0.0199  0.3059
 3383W        W20907  13.774   2.197   4.431  0.0398 -0.2141  0.0487
 3384W        W20908  12.719   7.686   3.069 -0.1127  0.0112 -0.0934
 3385W        W20909  11.602  12.497   1.938 -0.0168 -0.1379  0.1124
 3386W        W20910   4.559  15.392  14.216 -0.0519 -0.0299  0.3076
 3387W        W20911   5.242   1.757   0.239 -0.1459  0.1228  0.1158
 3388W        W20912   0.372   3.339   0.095  0.0691 -0.0607 -0.3638
 3389W        W20913  13.055   8.655   1.412  0.0265 -0.0697  0.1392
 3390W        W20914  10.723  16.056  13.706  0.2707  0.1173  0.0469
 3391W        W20915  10.118   1.169  16.805  0.2058 -0.0666 -0.0930
 3392W        W20916   0.386  16.060  15.279  0.4915  0.2601 -0.1340
 3393W        W20917   0.817   8.378  17.204 -0.1029  0.2299 -0.0042
 3394W        W20918  16.618   7.244  13.537  0.0944  0.0439 -0.0048
 3395W        W20919   6.329  10.135  14.623  0.0656 -0.3748  0.0505
 3396W        W20920   3.350   4.485  17.631 -0.0129  0.2436  0.0899
 3397W        W20921   8.060   5.998   2.303 -0.0744 -0.3064 -0.1296
 3398W        W20922  13.371   5.755  14.585  0.1098 -0.1532 -0.0302
 3399W        W20923  13.930   5.401  15.126 -0.2015  0.0313 -0.0841
 3400W        W20924  13.383   9.268  15.754  0.2826  0.1851 -0.2035
 3401W        W20925   3.060   0.947   4.932 -0.0724  0.3090 -0.0148
 3402W        W20926   8.539  16.168  17.396 -0.0781 -0.1983 -0.2531
 3403W        W20927   9.148  11.320   3.440  0.1127 -0.0935  0.0577
 3404W        W20928   6.856   6.874  15.793  0.0823 -0.0831  0.0800
 3405W        W20929   1.399  10.466  14.620  0.0843  0.0106  0.0071
 3406W        W20930   7.552   2.963   2.458  0.4183 -0.0983  0.0483
 3407W        W20931   2.766   2.016   4.864 -0.0507 -0.2945  0.1396
 3408W        W20932  15.130   7.449  14.466  0.0960 -0.4322 -0.1956
 3409W        W20933   5.376  12.996  15.877  0.0756  0.2559 -0.0553
 3410W        W20934   8.906   2.217   2.730 -0.1246 -0.2776  0.3618
 3411W        W20935   3.124  10.413  13.348 -0.1239 -0.3203  0.2740
 3412W        W20936   3.979   6.370   2.560  0.0832  0.0788 -0.0836
 3413W        W20937  11.135   0.887   3.253  0.0900  0.0386 -0.0703
 3414W        W20938   8.384   4.995   3.386 -0.2317  0.0161 -0.2682
 3415W        W20939   3.292   5.486   0.599  0.2649 -0.2815 -0.1761
 3416W        W20940   8.894  12.282  15.960 -0.1519  0.2843 -0.0763
 3417W        W20941  11.699   2.243  14.290 -0.2274 -0.1251 -0.0186
 3418W        W20942   0.328   0.118   4.115 -0.0672  0.0672  0.4170
 3419W        W20943  15.321  13.056   6.230 -0.0910  0.3399  0.0592
 3420W        W20944   2.911   5.136  14.509 -0.1631  0.1280 -0.0217
 3421W        W20945  11.299  11.268  17.342  0.0365 -0.3489 -0.2313
 3422W        W20946   8.496   5.111  14.319 -0.2736  0.2383  0.1476
 3423W        W20947  10.210  12.246   3.279  0.0897  0.1848 -0.3888
 3424W        W20948  16.298   7.061  16.294 -0.2063 -0.0153 -0.0669
 3425W        W20949   3.609   4.091  13.355  0.1031  0.0296 -0.0157
 3426W        W20950  12.501   2.166  16.660  0.0815  0.1799 -0.0020
 3427W        W20951   8.776  11.836  15.768  0.0167 -0.2299  0.4346
 3428W        W20952   1.398   7.350  12.845 -0.0133  0.2249 -0.2019
 3429W        W20953  11.761   2.311   1.632 -0.1601 -0.2132 -0.1659
 3430W        W20954  16.093  10.211  17.092 -0.1476 -0.1345 -0.0756
 3431W        W20955   9.152   8.201  16.331  0.2240  0.0883 -0.2148
 3432W        W20956  14.729   1.212   2.720 -0.0570 -0.1645  0.0401
 3433W        W20957   7.875  14.272  11.792  0.0559  0.0180  0.0670
 3434W        W20958   0.643  15.058  13.122 -0.0588 -0.0092  0.0074
 3435W        W20959  13.253   7.721   1.616  0.0405 -0.1083 -0.0640
 3436W        W20960  13.731   9.595   0.650  0.0073  0.2108 -0.0482
 3437W        W20961  14.434  13.229   4.338 -0.0241  0.0035  0.0070
 3438W        W20962   0.593  15.938   1.577  0.0711 -0.1684 -0.1971
 3439W        W20963  12.873   4.379   1.916  0.1263 -0.3779 -0.0996
 3440W        W20964  12.909   5.376  13.917  0.1258  0.1549  0.0328
 3441W        W20965   4.556  15.468  15.640 -0.2336  0.2725 -0.0116
 3442W        W20966   2.957  12.781  14.984  0.1527  0.1859 -0.2189
 3443W        W20967   4.718  16.876  16.542  0.3462  0.1360  0.0089
 3444W        W20968   8.483  16.690   5.731  0.0234 -0.1891 -0.1163
 3445W        W20969   5.460  12.066   2.166  0.2042  0.0753  0.3483
 3446W        W20970  10.839   3.058   1.378  0.1673  0.2966 -0.1139
 3447W        W20971  13.171   1.564   0.466  0.0506 -0.0985 -0.1598
 3448W        W20972  11.381   0.735  16.686  0.1214 -0.0665 -0.0774
 3449W        W20973   8.455  16.518  14.401  0.1517 -0.0085 -0.2401
 3450W        W20974   0.857   5.666  14.197  0.1479  0.0765 -0.0680
 3451W        W20975  10.884   7.358   1.278  0.1914  0.0919 -0.1035
 3452W        W20976   0.732   2.545  13.742  0.0053  0.3948  0.0099
 3453W        W20977   2.554  17.216  12.724  0.1244  0.0316  0.1260
 3454W        W20978  15.881   5.245  14.086 -0.1957  0.0022  0.0788
 3455W        W20979  14.452  13.448  17.409 -0.2147 -0.0063  0.1531
 3456W        W20980   5.015   7.371  13.483 -0.2816 -0.0861  0.0428
 3457W        W20981   7.995  15.766  12.828 -0.0675 -0.2660 -0.0252
 3458W        W20982  15.153   9.388  12.038  0.1933 -0.1024  0.1923
 3459W        W20983   3.787   8.442  17.522 -0.0032  0.2427  0.2307
 3460W        W20984   2.128  13.610   3.987  0.0592 -0.0510 -0.0774
 3461W        W20985  12.924  11.762  12.714  0.4204 -0.3412 -0.0630
 3462W        W20986   1.311   7.590   3.086 -0.1823 -0.0027 -0.0414
 3463W        W20987  10.514   8.833   5.352  0.1449  0.1716  0.3514
 3464W        W20988  16.266  11.530  11.091 -0.2212  0.1101 -0.1950
 3465W        W20989   5.771   9.978  14.403  0.0372 -0.0197  0.1331
 3466W        W20990  16.034  12.460  15.573  0.1393  0.0055 -0.2027
 3467W        W20991   1.895   3.838  12.086  0.1347 -0.1166  0.1254
 3468W        W20992   6.579   3.398  16.378 -0.1282  0.2581  0.2378
 3469W        W20993   2.876   3.103   5.195  0.1781  0.2437  0.0392
 3470W        W20994  15.449   7.676   1.070  0.0522  0.0840 -0.0115
 3471W        W20995   0.209  12.923   1.965  0.0845 -0.0944  0.3362
 3472W        W20996   1.445  16.703  16.784  0.0361 -0.0606 -0.0994
 3473W        W20997  12.099   0.144   3.756 -0.1190 -0.2436 -0.0391
 3474W        W20998   1.769  12.332  15.579 -0.0385 -0.0822 -0.0891
 3475W        W20999  12.133   5.412   1.261 -0.2193 -0.0775 -0.2195
 3476W        W21000   7.937  10.865   5.602 -0.0682  0.2423 -0.0524
 3477W        W21001   1.301  17.050   5.609  0.0643  0.1358 -0.0081
 3478W        W21002   9.543  11.478  13.900 -0.0809 -0.2459  0.0280
 3479W        W21003  11.293   5.476   4.777  0.0507 -0.1781 -0.0940
 3480W        W21004   4.311  13.368  17.272  0.0098  0.0800  0.2875
 3481W        W21005  12.070  12.110   4.291 -0.4131 -0.0764  0.3978
 3482W        W21006   7.572   2.759   3.706  0.4101  0.3920  0.1550
 3483W        W21007  13.647   6.468  14.102  0.1944 -0.0928  0.4487
 3484W        W21008   3.210  11.038   4.865  0.4471  0.0359 -0.0677
 3485W        W21009   0.304   4.833   2.954 -0.0874 -0.4375  0.0345
 3486W        W21010   7.914   7.091  14.745 -0.0325  0.0705  0.1818
 3487W        W21011   0.737  10.683   4.581  0.1208  0.1209 -0.0410
 3488W        W21012   7.967  13.981   4.855 -0.0880  0.2939 -0.2550
 3489W        W21013   8.563  10.807   3.803 -0.2110  0.0465  0.1388
 3490W        W21014   6.978   9.817  16.541  0.3298 -0.4308  0.0760
 3491W        W21015  10.301  10.250   3.798  0.0734 -0.1128 -0.3438
 3492W        W21016   7.190  14.542   0.474 -0.1234  0.0381 -0.0510
 3493W        W21017   0.926   0.343  14.260  0.1360  0.3679  0.3035
 3494W        W21018   4.282   7.573  16.740  0.1594 -0.0498  0.0188
 3495W        W21019   5.748   3.970  17.479  0.2242  0.1787  0.1634
 3496W        W21020  12.701   7.301  12.717  0.0840  0.1837  0.2826
 3497W        W21021  15.202  10.711   3.972  0.3058 -0.2353 -0.1631
 3498W        W21022  10.775   2.504  13.915  0.2657  0.4080 -0.0276
 3499W        W21023   5.557   3.664  14.686 -0.2337  0.1977  0.0696
 3500W        W21024   6.507   0.246  13.611 -0.1338  0.2334  0.0950
 3501W        W21025   0.798   4.694  12.976  0.0777  0.0060 -0.0107
 3502W        W21026  14.636  14.437  16.491 -0.1143  0.2430  0.0205
 3503W        W21027   9.697  15.354  14.521  0.1130  0.1203 -0.1899
 3504W        W21028   7.465  14.906  16.171 -0.1025 -0.1256  0.0962
 3505W        W21029   3.795  11.319   3.540 -0.3703  0.0162  0.2970
 3506W        W21030   2.137  11.857   3.091 -0.2262  0.1613 -0.0484
 3507W        W21031   6.593   6.962   4.083 -0.1868  0.0194 -0.2503
 3508W        W21032  16.081   1.254   4.165  0.3351  0.2653 -0.0397
 3509W        W21033   1.160   7.511   0.943 -0.1717  0.0678  0.1924
 3510W        W21034   7.864   3.436  14.940 -0.0580  0.4319  0.0174
 3511W        W21035  12.000  10.725   1.172 -0.0130 -0.1276  0.1062
 3512W        W21036   5.953  10.448  15.501  0.2692  0.0639  0.2294
 3513W        W21037  12.357   6.917  13.852 -0.2760  0.1609 -0.3145
 3514W        W21038   9.845  10.102  17.544 -0.1372  0.1284  0.1182
 3515W        W21039  11.492  14.113   0.086  0.0288  0.2912  0.3280
 3516W        W21040   9.168   5.743  16.601 -0.1714 -0.3709 -0.1348
 3517W        W21041  10.321  11.299   5.299 -0.2988  0.1359 -0.2806
 3518W        W21042   7.018  16.607   0.800  0.1200  0.0971  0.1278
 3519W        W21043  12.363   0.954   2.702 -0.0462 -0.4884 -0.1741
 3520W        W21044  10.030   1.088   5.118  0.1287 -0.0997 -0.1535
 3521W        W21045   8.646  10.053   5.908 -0.1788  0.0682  0.1891
 3522W        W21046  13.551   4.369   4.438 -0.0097 -0.3431 -0.0901
 3523W        W21047  11.758   5.560  16.066 -0.1942 -0.2267 -0.0457
 3524W        W21048  11.471   3.635  17.351  0.2416 -0.2177  0.2322
 3525W        W21049   6.201  11.473  15.837 -0.0801  0.0699 -0.2123
 3526W        W21050  11.937   6.431   3.189  0.0102 -0.1692  0.3858
 3527W        W21051  16.875  14.280   1.203 -0.1046  0.1238  0.0345
 3528W        W21052  10.776   3.529   2.399 -0.0728 -0.3839 -0.1001
 3529W        W21053   8.704  12.793   1.958  0.0335  0.0630  0.0875
 3530W        W21054   3.655   6.246  13.165  0.1286 -0.3444 -0.0344
 3531W        W21055  10.977  17.100   2.857  0.1325  0.2516  0.2284
 3532W        W21056  12.590   2.045  15.229  0.1380  0.0268 -0.3153
 3533W        W21057   0.231   9.722   0.402 -0.1255 -0.2867  0.1689
 3534W        W21058   3.024  10.177  17.526 -0.0010  0.4544 -0.3898
 3535W        W21059   5.330   4.076   3.603  0.0445  0.0939 -0.0774
 3536W        W21060   2.318   4.176   0.863  0.0204  0.0166 -0.1395
 3537W        W21061   7.863   1.328   2.121 -0.0485 -0.2258 -0.0147
 3538W        W21062  14.167  14.656   5.120  0.2968 -0.0475 -0.0447
 3539W        W21063   1.650  13.400   3.355  0.0342  0.0939  0.0313
 3540W        W21064   8.470  12.020  16.178  0.4920  0.2625  0.0188
 3541W        W21065   3.677   6.006  15.310  0.2903  0.0739  0.3658
 3542W        W21066  13.654   1.250   0.931 -0.0238  0.0256 -0.2568
 3543W        W21067  11.907   9.568   3.126 -0.0518 -0.1756 -0.0932
 3544W        W21068  10.655  15.566   3.988 -0.0099  0.2086 -0.2789
 3545W        W21069   1.197   1.941  14.873  0.0405 -0.3880  0.0136
 3546W        W21070  12.604   9.097   2.047 -0.2124 -0.0952 -0.4804
 3547W        W21071   2.918   0.466  13.862 -0.0766  0.1184 -0.0924
 3548W        W21072  13.621   8.112   4.879 -0.0186 -0.0123 -0.1551
 3549W        W21073   4.754  13.524  16.877 -0.0644 -0.4031 -0.2984
 3550W        W21074   6.886   7.805   4.539  0.1492 -0.1359  0.0325
 3551W        W21075   2.101   0.750  12.809  0.4638  0.1177 -0.0077
 3552W        W21076  16.697  11.317  14.259  0.2999 -0.0215 -0.1583
 3553W        W21077   7.569   1.302  14.292 -0.0710  0.4512  0.1385
 3554W        W21078  15.559  15.985   1.908 -0.0553 -0.2193 -0.0348
 3555W        W21079   0.253   5.495   5.588  0.0446  0.0264  0.7128
 3556W        W21080   3.225  15.837   1.739  0.0288  0.2283 -0.0810
 3557W        W21081   3.002  11.484   4.530 -0.2972  0.1033 -0.1993
 3558W        W21082   0.192  10.142  14.626 -0.1961  0.2610  0.1000
 3559W        W21083   0.205   7.997  13.036 -0.1033 -0.2801  0.3122
 3560W        W21084   6.163   9.741  15.060  0.0398 -0.0755  0.0226
 3561W        W21085   6.437  13.941  16.180 -0.5297  0.2374 -0.1027
 3562W        W21086  11.261   1.485  15.182 -0.2388  0.0247  0.0405
 3563W        W21087   1.418  16.561  12.908 -0.1099  0.0053  0.0331
 3564W        W21088  10.259   2.299  17.471  0.1355 -0.1385 -0.0130
 3565W        W21089   7.453  10.010  16.685  0.2593  0.0055  0.1924
 3566W        W21090   5.161  16.115   3.283 -0.0156 -0.0711 -0.0912
 3567W        W21091   0.099   5.933   2.148 -0.1225  0.0823  0.2395
 3568W        W21092  14.104  16.922  14.337 -0.0017 -0.3066 -0.2399
 3569W        W21093   5.140  15.579   2.928 -0.2017 -0.1665  0.3181
 3570W        W21094   2.896   0.725   4.115  0.0705 -0.3783 -0.0817
 3571W        W21095  11.745   2.210   2.681  0.2055  0.0291 -0.2527
 3572W        W21096   6.570  15.869   2.948  0.0126 -0.1834 -0.3945
 3573W        W21097  16.622   6.830  17.535  0.1665  0.0713 -0.0247
 3574W        W21098   3.133   9.983  13.660  0.1800  0.0031 -0.1483
 3575W        W21099   9.041   4.796   1.766 -0.1139  0.1011  0.0871
 3576W        W21100   3.614  14.768   1.321 -0.0944 -0.0929 -0.1509
 3577W        W21101   7.962  15.298  16.264  0.3238  0.1039 -0.0020
 3578W        W21102   2.541   8.357  17.115  0.0181  0.0274  0.1706
 3579W        W21103  14.199   4.685   2.688  0.2135 -0.2188  0.2580
 3580W        W21104  13.517  13.965   4.638  0.2883  0.1559 -0.0223
 3581W        W21105  14.413   8.294  16.979  0.3696  0.0547 -0.4060
 3582W        W21106  10.151   7.590  14.923  0.2473  0.2628  0.0990
 3583W        W21107  11.845   1.826   4.344  0.2442  0.1385  0.3126
 3584W        W21108   9.757  11.780   1.310  0.2646  0.1348  0.0630
 3585W        W21109  12.151   8.027  14.653 -0.3049  0.3708  0.0237
 3586W        W21110  17.156   1.388  14.442 -0.1751  0.2787  0.0710
 3587W        W21111  12.237   7.968  15.532  0.0911  0.3309  0.1748
 3588W        W21112   9.676  10.337  16.663  0.0935  0.0277 -0.1448
 3589W        W21113   8.337  14.058   3.984 -0.2203 -0.0986  0.0516
 3590W        W21114   2.533   4.975  14.079 -0.0081 -0.4278  0.1258
 3591W        W21115   7.765  15.582   2.032  0.2855 -0.1037  0.0706
 3592W        W21116   8.845   4.818  13.217 -0.1863 -0.0376 -0.1720
 3593W        W21117  14.396   4.019  13.861 -0.2233 -0.0498 -0.2052
 3594W        W21118   2.267  16.250   3.600 -0.0791  0.1231 -0.1455
 3595W        W21119  16.656   9.224  15.188 -0.1032  0.0576 -0.0100
 3596W        W21120   5.923   2.631   4.723 -0.1100  0.0934  0.0023
 3597W        W21121  16.136   1.261  14.843 -0.0832  0.1868  0.0216
 3598W        W21122   1.280  13.456   4.284  0.2163  0.0456 -0.2490
 3599W        W21123  12.986  10.778   1.219  0.1482  0.2905 -0.0655
 3600W        W21124   0.288  14.418  14.990 -0.2759 -0.1184  0.0457
 3601W        W21125  16.399   4.798  14.694 -0.0949  0.2714 -0.1258
 3602W        W21126   1.362   3.369   5.087 -0.0277 -0.0396 -0.0366
 3603W        W21127  13.732   7.173  17.277 -0.1082  0.0140  0.2207
 3604W        W21128  16.934   8.538   0.616  0.0558  0.1159 -0.0253
 3605W        W21129   8.306  11.267  17.530  0.0772 -0.0278 -0.1475
 3606W        W21130   2.628  14.473   1.420 -0.0563  0.1698 -0.1145
 3607W        W21131  16.951   3.828  16.988 -0.1408  0.1533  0.1056
 3608W        W21132   6.051   7.067   1.406 -0.3283  0.0506 -0.2130
 3609W        W21133   7.608  12.624  13.773  0.0251 -0.0518  0.1061
 3610W        W21134   3.043   7.428   0.690  0.0827 -0.0834  0.3686
 3611W        W21135   0.413  15.303   3.981  0.0560  0.2785  0.0917
 3612W        W21136  12.847  12.199  12.931 -0.1449  0.0598 -0.0687
 3613W        W21137   5.267  15.932  14.599 -0.2042 -0.2126  0.0194
 3614W        W21138  14.422   9.543   4.476 -0.0218 -0.0815  0.1747
 3615W        W21139   1.255  14.612   3.947 -0.0713 -0.1249  0.3581
 3616W        W21140  11.877  11.774  15.204  0.2809  0.0748 -0.1596
 3617W        W21141   0.564  10.190   4.529  0.3706 -0.0700 -0.1524
 3618W        W21142   2.013   6.152   6.135  0.2275  0.2025 -0.4100
 3619W        W21143   7.851   5.033   1.640  0.1941  0.0577  0.2793
 3620W        W21144  12.784   8.788   4.464 -0.2441 -0.0108 -0.0243
 3621W        W21145   3.105   2.730   4.926 -0.0112  0.1956 -0.1522
 3622W        W21146  11.458  15.606  14.791  0.2774 -0.3963  0.2071
 3623W        W21147   8.868   1.720   2.878 -0.0494  0.1202 -0.0739
 3624W        W21148   2.447  13.088   5.632 -0.1068 -0.0351  0.1658
 3625W        W21149   9.626   8.970   4.457 -0.2390  0.1349 -0.2081
 3626W        W21150   0.960  14.942   0.329 -0.0551  0.1954 -0.0723
 3627W        W21151   0.371   4.150   4.703  0.2633 -0.0749  0.2471
 3628W        W21152  12.560   6.042   1.962 -0.0230  0.0858  0.1766
 3629W        W21153   7.238   3.341   1.547 -0.3827 -0.0218  0.0904
 3630W        W21154  10.223  11.150  17.575  0.0056  0.0878  0.3350
 3631W        W21155  14.585  15.867   3.253 -0.1134 -0.1680  0.0493
 3632W        W21156   6.482   0.699   1.579  0.1923  0.0924 -0.0243
 3633W        W21157  13.028   2.592  14.021 -0.1886 -0.1545 -0.5263
 3634W        W21158   3.028   5.657   1.592  0.2350 -0.1875  0.0972
 3635W        W21159   1.091   8.859   3.862 -0.0615 -0.0200  0.0876
 3636W        W21160   1.166   1.362  15.706 -0.1027 -0.0848  0.0391
 3637W        W21161   8.568  13.872  16.862  0.3459 -0.1555  0.0663
 3638W        W21162  13.771   0.404   3.681  0.1023  0.1729 -0.0966
 3639W        W21163   6.249  10.737   0.136  0.0139  0.1748  0.3465
 3640W        W21164   1.009  13.618   3.029  0.4505  0.3217 -0.1352
 3641W        W21165  15.630   4.787   6.266  0.1869  0.2107  0.3971
 3642W        W21166   6.898   3.600   1.757 -0.0314  0.2550 -0.1858
 3643W        W21167   1.479   9.184  16.147 -0.2300 -0.1979 -0.0942
 3644W        W21168  14.459   4.155   1.487 -0.0071 -0.0976  0.1413
 3645W        W21169   4.819  14.001   3.643 -0.0776  0.1577  0.0191
 3646W        W21170   8.563   9.418   2.745 -0.1783 -0.1318  0.1350
 3647W        W21171  10.760  11.684   5.031  0.0270  0.3057 -0.1642
 3648W        W21172   6.379  10.588  13.308  0.2769 -0.1051  0.0661
 3649W        W21173   3.398   6.045  16.176 -0.2070 -0.1690 -0.1276
 3650W        W21174   9.438   5.866   1.641 -0.2678 -0.2405  0.2297
 3651W        W21175   0.010   3.331  14.501 -0.1507  0.0342 -0.3033
 3652W        W21176   5.398   8.639   5.630  0.2233 -0.1805 -0.2462
 3653W        W21177  16.461   7.328   1.251 -0.0476  0.1058  0.0593
 3654W        W21178  11.528   0.912   4.205 -0.0482  0.1314 -0.1118
 3655W        W21179  16.508  17.174  16.787  0.1279  0.0399 -0.1632
 3656W        W21180  13.571  13.141  13.714 -0.0928 -0.3384 -0.0351
 3657W        W21181  16.581  14.468  15.191 -0.1182  0.1865 -0.0929
 3658W        W21182   0.296   8.395  13.641  0.1197 -0.0925 -0.0926
 3659W        W21183  11.492  12.192   0.258 -0.0864  0.2998  0.0677
 3660W        W21184   5.762   1.048   2.926  0.3100  0.4100 -0.5970
 3661W        W21185   8.956  12.464   2.314 -0.1914 -0.1138  0.2199
 3662W        W21186   0.697   7.626   1.119  0.0576 -0.1462  0.1811
 3663W        W21187   7.466  11.892   1.800 -0.0348 -0.1158 -0.1319
 3664W        W21188   8.319  13.698   4.313  0.0465 -0.1569 -0.1058
 3665W        W21189  13.986   6.806   2.402  0.0178  0.3863 -0.2644
 3666W        W21190  14.788   1.645  16.871  0.3869  0.1526 -0.1298
 3667W        W21191  14.487   1.306  12.499 -0.2434 -0.1088 -0.2698
 3668W        W21192  14.322  15.111   5.825  0.2198 -0.0240  0.1370
 3669W        W21193   3.794  10.245   2.334  0.1482 -0.1810  0.3421
 3670W        W21194   3.638   5.599   4.119 -0.0871  0.2497 -0.3209
 3671W        W21195   3.127   2.659   1.771  0.1656 -0.2522  0.0575
 3672W        W21196  11.972  11.769   1.478 -0.2462  0.3077  0.1490
 3673W        W21197  15.983  15.967   2.129  0.1125  0.1892 -0.0353
 3674W        W21198  12.697  10.082   3.334 -0.0381  0.1421  0.3049
 3675W        W21199  14.070   1.160   2.547 -0.0408  0.0195  0.0120
 3676W        W21200   5.312   7.461   1.761  0.0460 -0.1118 -0.3023
 3677W        W21201  13.021  16.878  16.795  0.1424 -0.0825 -0.0784
 3678W        W21202  16.701   0.467   3.251 -0.0454 -0.0940  0.0785
 3679W        W21203   6.618  10.978  15.967 -0.0279 -0.4662  0.1816
 3680W        W21204  11.605  10.744  16.192 -0.0913  0.1380  0.0473
 3681W        W21205  15.049   8.938   4.792 -0.1927 -0.2860 -0.0010
 3682W        W21206  12.080  14.670   2.006 -0.2534  0.1244 -0.2416
 3683W        W21207  16.484   1.781  13.739  0.3621  0.1122 -0.0279
 3684W        W21208  10.455   4.812   4.026  0.0392  0.0498  0.2355
 3685W        W21209   6.241  17.039   3.618  0.0265  0.0308  0.0990
 3686W        W21210   7.925   2.452  13.297 -0.0467 -0.1627 -0.1076
 3687W        W21211  12.094   4.721  16.747  0.2004  0.1896 -0.1498
 3688W        W21212   5.545   8.902   4.233 -0.0619 -0.0746 -0.0711
 3689W        W21213  11.221   6.635  16.011  0.0164  0.2904 -0.0335
 3690W        W21214   6.463  15.555   2.579 -0.0303 -0.2624 -0.0044
 3691W        W21215  10.705   7.519  12.667  0.0478  0.2539  0.1515
 3692W        W21216  11.655   6.861  13.222 -0.0227 -0.2209  0.1183
 3693W        W21217  12.205  14.294  14.211 -0.2037 -0.0085  0.1216
 3694W        W21218   3.460   1.666  12.705 -0.0684 -0.0890 -0.1858
 3695W        W21219  16.535  11.792  14.335  0.0893 -0.1285  0.1714
 3696W        W21220  12.783   6.113   0.942 -0.2848 -0.2010 -0.0101
 3697W        W21221   9.981   0.880  16.441  0.2058  0.0295  0.3696
 3698W        W21222   3.701   5.354   4.589  0.3092  0.2225 -0.1571
 3699W        W21223  11.716   2.627   1.285 -0.0198  0.1489 -0.3185
 3700W        W21224  14.083  13.070   2.727 -0.3965 -0.0263 -0.2456
 3701W        W21225   7.096   2.120   1.747 -0.0176  0.0642  0.0920
 3702W        W21226   7.778   2.412   1.194  0.2681  0.0544  0.0548
 3703W        W21227   8.641   0.221  14.201  0.0088 -0.1030  0.2023
 3704W        W21228  16.858  14.790  14.259 -0.0795  0.1340 -0.1777
 3705W        W21229   9.005   9.726  15.060  0.0023 -0.2452  0.1179
 3706W        W21230   8.439  13.571  14.398 -0.0437 -0.0280  0.0882
 3707W        W21231   6.848   6.499   1.785  0.1446 -0.1134  0.0521
 3708W        W21232  10.917  17.136   0.767  0.0552  0.0057  0.0831
 3709W        W21233   8.493  11.824   0.831  0.0852  0.0459 -0.5029
 3710W        W21234   1.094   9.289  14.999  0.1666  0.1895 -0.2109
 3711W        W21235   0.422  11.038   0.303 -0.1793 -0.0269  0.2535
 3712W        W21236   5.613   0.405  12.276 -0.3585  0.0426  0.0885
 3713W        W21237  16.145   0.895   0.734 -0.5603  0.0648 -0.0290
 3714W        W21238   9.017  11.457   1.942 -0.3050 -0.2617 -0.1311
 3715W        W21239   9.608   3.056  13.627  0.0417  0.2124 -0.2795
 3716W        W21240  15.292  16.180   0.081 -0.1288 -0.0555  0.2720
 3717W        W21241   7.211  12.836  13.407  0.0847  0.4636  0.2139
 3718W        W21242   8.796   0.167  14.730 -0.0651 -0.0356  0.1659
 3719W        W21243   2.991  14.827   4.414  0.2354  0.0968  0.1360
 3720W        W21244  13.025   4.281  17.577 -0.1179  0.2517 -0.0238
 3721W        W21245   9.854  16.883   0.995 -0.0485 -0.0624  0.3672
 3722W        W21246  16.778   8.575   3.695  0.2886 -0.0870  0.1730
 3723W        W21247  10.938   4.846   2.638 -0.1126 -0.1346 -0.1673
 3724W        W21248  16.741  14.851   1.523 -0.0757  0.0800 -0.0434
 3725W        W21249   9.967   0.600   0.725 -0.1527 -0.1401  0.0831
 3726W        W21250   7.826   3.776   2.380 -0.1247  0.2027 -0.1194
 3727W        W21251   1.433   2.163   6.380  0.0285 -0.1046 -0.3173
 3728W        W21252   5.111   5.833   0.353 -0.0248 -0.0403  0.0195
 3729W        W21253   3.241   8.432  16.358 -0.2265  0.1553  0.2077
 3730W        W21254  10.588  13.089   4.713 -0.1603  0.2024 -0.0872
 3731W        W21255   0.428   3.318   1.580 -0.0672  0.1017  0.1669
 3732W        W21256  11.020   0.460  16.030 -0.1264  0.1033 -0.0473
 3733W        W21257   8.579  11.858  14.688 -0.0436 -0.1767  0.2803
 3734W        W21258   7.356   5.336  13.676  0.0871 -0.3073 -0.0785
 3735W        W21259  10.900   0.182   1.562 -0.0737 -0.1040  0.1498
 3736W        W21260  13.420   4.542  15.542 -0.1788  0.0686  0.0635
 3737W        W21261  12.940   1.970  16.515  0.0766 -0.1625 -0.0799
 3738W        W21262   7.451   8.413   1.931 -0.0515 -0.1190  0.0108
 3739W        W21263  14.251  14.983   0.326  0.2254 -0.0968 -0.0961
 3740W        W21264  13.059   0.150  15.577 -0.4418 -0.2618 -0.0042
 3741W        W21265   0.757   9.117   3.568 -0.1162  0.0848 -0.0374
 3742W        W21266   6.567   6.316   6.700 -0.0625  0.4531 -0.1031
 3743W        W21267  11.904   3.179   0.006  0.1474 -0.1232 -0.0910
 3744W        W21268   8.088  12.691   3.139 -0.1337 -0.3010 -0.0772
 3745W        W21269  15.813   6.012  15.912 -0.1028  0.1002 -0.0666
 3746W        W21270  10.573  12.106   2.735 -0.1437 -0.3187  0.1309
 3747W        W21271  12.753  13.532   3.503  0.3189  0.2468  0.3444
 3748W        W21272   8.604   2.899   5.870  0.1759  0.1581  0.1688
 3749W        W21273   2.741   0.946   5.485 -0.1327 -0.1996 -0.0988
 3750W        W21274   8.770  12.864  14.891  0.2049 -0.2097  0.0743
 3751W        W21275   1.186  15.773  16.255  0.2637  0.1987  0.1959
 3752W        W21276  13.655   3.714  12.550  0.2658  0.1333  0.0667
 3753W        W21277  11.498   7.566   4.169  0.3095  0.0682 -0.3243
 3754W        W21278   6.983   3.716  16.347  0.2330  0.0871  0.0794
 3755W        W21279   1.294   3.436  16.171  0.0091  0.0962 -0.1422
 3756W        W21280   0.581  15.249  15.471  0.1326  0.3098 -0.0281
 3757W        W21281  15.510   0.117  15.369 -0.2384 -0.1850  0.1026
 3758W        W21282   3.479  13.503   4.944  0.0993  0.1068  0.2133
 3759W        W21283  16.514   0.883  17.352 -0.1411 -0.2969 -0.0137
 3760W        W21284   8.432   5.961   0.501 -0.1082 -0.0649  0.3254
 3761W        W21285   7.230   8.801  13.906  0.1369  0.2043  0.2306
 3762W        W21286   8.049   2.604   2.827  0.0806 -0.0314  0.0322
 3763W        W21287   1.237   2.100   2.224  0.0616  0.1904  0.1319
 3764W        W21288  12.952   7.538  13.695  0.2681 -0.0114  0.1799
 3765W        W21289   2.125   7.360   3.671 -0.0986  0.2481 -0.1994
 3766W        W21290   4.428  12.362   2.155 -0.0917 -0.0971 -0.0738
 3767W        W21291   7.932  17.193  14.729 -0.3236  0.4929 -0.1624
 3768W        W21292   0.927  14.264   4.182 -0.2170 -0.2727  0.5025
 3769W        W21293   4.269   5.657  12.637  0.0379  0.0333 -0.0365
 3770W        W21294  15.018   9.573  16.557 -0.2539 -0.1298  0.2639
 3771W        W21295  12.745   8.423  13.298 -0.3616  0.0659  0.4141
 3772W        W21296  14.153   8.752  17.602  0.0967  0.0328 -0.2295
 3773W        W21297   4.992   3.624   2.783 -0.1659  0.0090 -0.1395
 3774W        W21298  11.864   1.220   2.855 -0.0312 -0.0533  0.2207
 3775W        W21299  10.905   2.250  16.800  0.0482 -0.1529 -0.0081
 3776W        W21300   2.628  15.740  13.656  0.2056  0.0656 -0.1711
 3777W        W21301   6.369   6.650  17.253 -0.0317 -0.1177  0.4159
 3778W        W21302   5.356  14.829  13.810 -0.0182  0.3463  0.1552
 3779W        W21303  12.976   8.657   0.222  0.0475  0.2750  0.0687
 3780W        W21304   1.981   1.501   1.002  0.1390 -0.0881  0.0686
 3781W        W21305   7.445  15.707  12.115  0.0040  0.2096 -0.0766
 3782W        W21306   7.008   4.072   1.893  0.0544  0.1052 -0.0330
 3783W        W21307   8.423   0.655   3.671 -0.0293  0.2133  0.0257
 3784W        W21308  16.337  13.660  14.681 -0.0268 -0.2585  0.0168
 3785W        W21309   3.646  14.769   6.171 -0.3544  0.1509  0.2775
 3786W        W21310   8.683  11.699   2.330 -0.0692 -0.0425  0.4301
 3787W        W21311   4.700   5.788   2.436 -0.2879  0.3656  0.1376
 3788W        W21312  10.659   8.692  14.706  0.1765 -0.0773  0.0715
 3789W        W21313   8.594   4.299   2.483  0.0327  0.0558 -0.0536
 3790W        W21314  10.366   3.995  14.705  0.0070 -0.0614 -0.0988
 3791W        W21315   4.244   7.917   1.031  0.1982 -0.1396  0.0168
 3792W        W21316   3.113   9.190  16.208 -0.5502  0.0347  0.0866
 3793W        W21317   0.302  10.784   1.227 -0.0552 -0.0539 -0.1923
 3794W        W21318  11.803   0.946   3.811 -0.1465  0.2979  0.0589
 3795W        W21319  11.478  13.296   0.790 -0.2232  0.0231 -0.0972
 3796W        W21320   8.379  12.527  16.231  0.0733  0.2437  0.1233
 3797W        W21321  16.996  14.976   4.426 -0.1475 -0.1726  0.1670
 3798W        W21322   1.471  11.646  15.779  0.1225 -0.1947  0.0373
 3799W        W21323   3.263   7.502   2.453  0.1167 -0.1532  0.1558
 3800W        W21324  11.031   9.617   5.456  0.0678 -0.0840  0.3740
 3801W        W21325  16.268  16.398  13.508 -0.0334  0.1098 -0.0023
 3802W        W21326   1.123  15.815  15.763 -0.1569  0.2548  0.0914
 3803W        W21327   4.008   7.447   0.854  0.1084  0.1370  0.0247
 3804W        W21328   3.821  13.042   4.605 -0.2167 -0.1558 -0.1985
 3805W        W21329  10.272   8.352  13.902  0.3088  0.2338 -0.0977
 3806W        W21330   4.504   1.761  16.170  0.2320  0.2446  0.0073
 3807W        W21331   5.975   6.420   4.204 -0.2636 -0.2460 -0.3505
 3808W        W21332  13.460   0.828   1.985 -0.2073 -0.1032 -0.0253
 3809W        W21333  11.294   5.034  15.197 -0.0617 -0.2180 -0.4267
 3810W        W21334   8.096  15.372   3.058 -0.2102  0.0346  0.0328
 3811W        W21335   0.113  14.180   3.289  0.0706  0.0175  0.1084
 3812W        W21336  14.288   7.345   3.123  0.1499 -0.1073  0.3822
 3813W        W21337   6.761  11.532   0.481  0.1175  0.0766  0.2487
 3814W        W21338   4.055  11.935  13.644  0.0005 -0.3063  0.0548
 3815W        W21339   5.593   4.994   1.050  0.0076 -0.0916 -0.1752
 3816W        W21340  15.204   0.331  16.789 -0.1594 -0.1464 -0.1168
 3817W        W21341  10.751  13.332   3.611 -0.0251 -0.0875 -0.2932
 3818W        W21342   4.683  12.221   1.762 -0.1053  0.0229 -0.3151
 3819W        W21343   9.428   8.981  16.308  0.0139 -0.0262  0.0642
 3820W        W21344  12.782  16.719  13.694 -0.1318  0.0958 -0.0085
 3821W        W21345   8.354   5.068  14.775  0.2424  0.0123 -0.3110
 3822W        W21346  14.312   6.808   1.997 -0.0916  0.2101  0.1939
 3823W        W21347  10.933   5.985   0.606 -0.0480  0.0163 -0.0380
 3824W        W21348   3.676   6.327  16.478 -0.0446  0.1299  0.1566
 3825W        W21349  14.980  11.261   0.085  0.1832 -0.0093  0.0651
 3826W        W21350  16.820   7.884   1.386 -0.0799  0.1727  0.2796
 3827W        W21351  14.342  11.889  13.805  0.0361 -0.3401 -0.2094
 3828W        W21352  10.575   9.329  17.037 -0.0185  0.1147 -0.0262
 3829W        W21353   0.576   5.968   1.896  0.2131  0.2921 -0.1147
 3830W        W21354   5.551  11.103  13.135  0.0256  0.1211  0.1195
 3831W        W21355  11.784  14.318   4.688  0.2023  0.0491 -0.0105
 3832W        W21356  10.034  11.379  14.142  0.0116 -0.2520 -0.2189
 3833W        W21357   3.988  15.483   3.287 -0.1413 -0.1920  0.0138
 3834W        W21358   5.625  10.892  16.419  0.1336  0.0973 -0.0398
 3835W        W21359  13.603  12.301  15.168  0.5552  0.1182  0.0490
 3836W        W21360   7.096  11.361   0.017  0.3591 -0.0085 -0.2397
 3837W        W21361  11.472   5.279   5.271 -0.1559 -0.0244 -0.1012
 3838W        W21362  10.193   8.348  15.448 -0.1143  0.2525 -0.0920
 3839W        W21363  12.977  14.096   5.664 -0.0798 -0.2384  0.1440
 3840W        W21364   4.325  11.128  17.146  0.0078 -0.0968 -0.2380
 3841W        W21365   2.419   2.146   4.432 -0.2491 -0.1884  0.0158
 3842W        W21366  13.602  16.824   4.326 -0.2033 -0.2962 -0.3759
 3843W        W21367  11.265  16.024   3.222 -0.2203 -0.0260 -0.0472
 3844W        W21368   6.834   8.860   2.449  0.0061 -0.1825 -0.1258
 3845W        W21369   7.046  14.122   3.822 -0.1362 -0.1164 -0.2460
 3846W        W21370  11.583  16.845  16.100 -0.0357  0.1740 -0.0437
 3847W        W21371   6.453   6.169  17.401  0.3826 -0.0820  0.0642
 3848W        W21372  15.925  12.841  13.956  0.3372  0.1410  0.0933
 3849W        W21373  14.062   1.265   0.701  0.0578  0.2911  0.1809
 3850W        W21374  13.900   5.113   2.823  0.2605  0.2903 -0.0210
 3851W        W21375  12.494  10.838   5.186  0.3877 -0.0843 -0.0625
 3852W        W21376   4.634  12.675  16.247  0.1047 -0.3435  0.0119
 3853W        W21377  13.336  13.975  16.333  0.0135  0.1107 -0.3087
 3854W        W21378   4.519   8.322   0.137  0.0713 -0.2427 -0.0112
 3855W        W21379  14.216   2.561   2.752  0.2305 -0.1143 -0.0614
 3856W        W21380  17.136   9.718  14.673 -0.1069 -0.3790 -0.2956
 3857W        W21381  17.181  12.809   2.417 -0.0997 -0.0867 -0.0789
 3858W        W21382  13.189   1.377  13.548  0.3813 -0.1398 -0.0311
 3859W        W21383   3.506   1.608  17.311  0.1036  0.0222  0.0754
 3860W        W21384   4.544   8.369  12.849 -0.1370 -0.2605 -0.1483
 3861W        W21385   7.757  15.261  15.463 -0.0839  0.0297 -0.0926
 3862W        W21386  15.216   6.585  14.870  0.0006 -0.2368 -0.3408
 3863W        W21387   1.665   1.704   2.952  0.1655 -0.1546  0.0348
 3864W        W21388   8.679   8.225   2.141  0.1925 -0.0954  0.0834
 3865W        W21389  11.805   0.251  14.920  0.3995  0.4143 -0.2075
 3866W        W21390  16.731   6.277  12.192 -0.1176  0.1278  0.2788
 3867W        W21391   0.367   6.482  13.345  0.1458 -0.4982 -0.1578
 3868W        W21392  10.249   3.924  15.973  0.0071  0.2854  0.1660
 3869W        W21393   3.686   0.621  15.692  0.0639  0.0690  0.3373
 3870W        W21394  10.464  13.590   4.826  0.0885 -0.0836  0.0161
 3871W        W21395   7.300   0.571  11.150 -0.0938  0.0561  0.0707
 3872W        W21396  15.331  12.820   0.719  0.0791 -0.0058 -0.3234
 3873W        W21397  16.207   7.128  14.490  0.1092 -0.1934 -0.1471
 3874W        W21398   2.263   0.747   5.788 -0.0499  0.1485  0.1118
 3875W        W21399   5.398   2.532  16.942  0.0513  0.2656 -0.1980
 3876W        W21400   8.715   7.325  16.680 -0.0364 -0.0298  0.1496
 3877W        W21401   9.195   2.797  15.814  0.0570  0.1311 -0.2536
 3878W        W21402  14.298   1.197   2.999 -0.0786  0.0761  0.1431
 3879W        W21403  11.194  15.982   1.029 -0.1589  0.0641 -0.0935
 3880W        W21404   7.592   5.194  12.776 -0.1862  0.0807  0.0695
 3881W        W21405  14.267   8.093   4.082  0.0748 -0.4023 -0.0941
 3882W        W21406   0.207   9.730   2.660 -0.1610  0.2671  0.1143
 3883W        W21407  16.822   4.992  16.576  0.3268  0.1828  0.0175
 3884W        W21408  10.750  11.284   4.696  0.1095 -0.1592 -0.0412
 3885W        W21409   7.338   5.123   0.672  0.0799 -0.0116  0.6396
 3886W        W21410  15.411   5.883   1.804  0.1305  0.1348 -0.1261
 3887W        W21411   6.401   6.712   1.976 -0.0813  0.1940 -0.0555
 3888W        W21412  11.674   3.415   3.556  0.2575  0.2213  0.0306
 3889W        W21413  16.442  12.821  14.651 -0.3256 -0.0409 -0.1658
 3890W        W21414   6.900  11.047  17.058 -0.1054  0.0476 -0.0754
 3891W        W21415  15.344   1.472  13.284 -0.0518 -0.2077 -0.4363
 3892W        W21416   1.340   3.787  14.742  0.1346 -0.1002 -0.1574
 3893W        W21417   9.024   3.468   1.552 -0.3132  0.2642 -0.1424
 3894W        W21418  11.187   2.795   0.614  0.1343  0.0708  0.0786
 3895W        W21419  10.076   8.398   2.405  0.2019 -0.0051  0.0635
 3896W        W21420   4.225   4.288  14.451 -0.0565  0.1555  0.0334
 3897W        W21421  12.697   5.548   1.996 -0.1901  0.0668 -0.0490
 3898W        W21422  12.663  16.632   1.700  0.1618 -0.0650  0.1715
 3899W        W21423  10.200   9.755  13.279 -0.0372  0.0827  0.0364
 3900W        W21424   2.638  14.078  17.049 -0.6037 -0.0766  0.4552
 3901W        W21425   1.462   2.643   4.475 -0.0820 -0.1072 -0.0447
 3902W        W21426   2.127  11.088  14.789  0.3044  0.1800  0.0429
 3903W        W21427   7.311   2.151  16.251  0.3381 -0.1783  0.1242
 3904W        W21428  12.758  10.369   5.241  0.0040 -0.0076 -0.4657
 3905W        W21429   8.882   0.598  14.359  0.1516 -0.0231 -0.2668
 3906W        W21430  10.457   1.199  15.572 -0.0389  0.3778  0.1024
 3907W        W21431   0.789   0.386   1.527  0.0961  0.1842 -0.0382
 3908W        W21432  13.282   8.538  12.680 -0.0263  0.0155 -0.0628
 3909W        W21433   4.453  11.787   1.555  0.2462 -0.0650  0.0454
 3910W        W21434  14.351   9.404   0.643  0.0592 -0.3068  0.0956
 3911W        W21435   7.055   9.395  12.765 -0.0532  0.2510  0.1723
 3912W        W21436  17.088   7.041  13.600 -0.0275 -0.2562  0.1954
 3913W        W21437  11.754   9.914  17.352 -0.2375 -0.1398 -0.1434
 3914W        W21438   2.463   7.970   0.994 -0.0594 -0.1327 -0.0908
 3915W        W21439   9.964   7.205   2.182  0.2971 -0.2862  0.0764
 3916W        W21440   3.967   1.515  16.229 -0.0454  0.1408 -0.0689
 3917W        W21441   5.148   4.695  12.614 -0.0486 -0.0192  0.1728
 3918W        W21442  16.617  15.093  16.322  0.1570  0.1842 -0.0034
 3919W        W21443  10.112  13.296   4.612 -0.0118 -0.1672 -0.2101
 3920W        W21444   5.266  14.790  15.984  0.2091  0.0950 -0.1060
 3921W        W21445   3.120   4.893   5.657 -0.1250 -0.2633 -0.1537
 3922W        W21446   6.708   3.871   0.866  0.0691 -0.3908  0.1856
 3923W        W21447  13.336   7.184  16.979  0.0446  0.0412 -0.0468
 3924W        W21448  16.255  15.673   1.276  0.0966 -0.0929 -0.2044
 3925W        W21449  15.023  15.759  14.118  0.0302  0.1336  0.0986
 3926W        W21450   8.970   6.356   5.267  0.0923 -0.0173  0.0406
 3927W        W21451   2.252   2.378  14.475 -0.1889  0.1051 -0.2006
 3928W        W21452   9.666  13.406   4.997  0.1426  0.0736  0.3860
 3929W        W21453   0.979  11.508   0.819 -0.2215 -0.1281 -0.1300
 3930W        W21454  10.744   6.119  11.980  0.1605 -0.0387  0.2074
 3931W        W21455   1.079   4.545  16.393  0.0723  0.1740  0.4330
 3932W        W21456  11.425   8.353   2.798 -0.0676 -0.0104  0.0983
 3933W        W21457   8.820  16.109  14.523 -0.2437  0.0442 -0.1238
 3934W        W21458   5.989   5.570   0.350 -0.0789 -0.0502  0.0375
 3935W        W21459  10.640   2.382   0.420  0.1601 -0.1640 -0.2692
 3936W        W21460  11.937   8.167   4.544  0.1126  0.0063  0.1375
 3937W        W21461  15.568  15.760   3.466 -0.0135 -0.2656 -0.1710
 3938W        W21462  12.253   3.808  14.858 -0.1055  0.1968  0.0945
 3939W        W21463   9.966   5.003  17.395 -0.2365 -0.1535 -0.0148
 3940W        W21464   1.587  11.185  12.541 -0.1903 -0.0859 -0.1058
 3941W        W21465  11.374  11.068  15.750  0.0089  0.2418  0.0010
 3942W        W21466  12.835  10.584  11.872  0.2344  0.0787  0.2972
 3943W        W21467   8.108   3.311   4.439 -0.0768 -0.0179 -0.0994
 3944W        W21468   9.368  11.723   5.627  0.1399  0.2309 -0.0012
 3945W        W21469  14.427  11.960   4.388  0.2494  0.2094 -0.2157
 3946W        W21470   6.902  14.049   2.222  0.3463  0.0175 -0.2682
 3947W        W21471  15.370   3.366  13.411 -0.1361 -0.1389 -0.0146
 3948W        W21472   3.786   6.876  17.024 -0.2310 -0.1140 -0.0840
 3949W        W21473  14.157   9.096  14.498  0.0069 -0.0528  0.0231
 3950W        W21474   6.634  14.576  12.735  0.0717 -0.1622  0.0433
 3951W        W21475   1.064  11.618  12.981 -0.1482 -0.5129  0.0584
 3952W        W21476   6.548   4.472  15.068 -0.0763  0.1473  0.0413
 3953W        W21477   8.705   5.066  15.577  0.0506  0.0253  0.0987
 3954W        W21478  17.091   9.544  12.477  0.1952  0.1655  0.1340
 3955W        W21479  16.151  11.128   2.202  0.0502 -0.1227 -0.1170
 3956W        W21480   1.161  12.231   1.637 -0.0755  0.3347 -0.0065
 3957W        W21481  10.876  14.012  15.952  0.0466  0.2497 -0.0377
 3958W        W21482  12.573  16.941  12.757  0.0416 -0.2265 -0.1903
 3959W        W21483   7.822  16.469   1.161 -0.0663 -0.1363  0.1164
 3960W        W21484  12.050   4.271   4.520 -0.0877  0.2184  0.1108
 3961W        W21485   0.552  16.327   4.272 -0.1295  0.3073 -0.0033
 3962W        W21486  13.804  14.622  13.910  0.1906 -0.0279  0.0836
 3963W        W21487  15.313  10.828  12.877 -0.1771 -0.1742  0.0624
 3964W        W21488   7.844   5.000   3.350  0.0091 -0.0019  0.2953
 3965W        W21489   3.532   3.297  12.679 -0.1204  0.1346  0.1896
 3966W        W21490  10.395   2.435   1.656 -0.1574 -0.1986  0.0869
 3967W        W21491   1.355  14.845  12.543 -0.0246 -0.0300 -0.2611
 3968W        W21492   1.884  14.385   3.393 -0.0364 -0.4734 -0.0079
 3969W        W21493   8.688   4.571   0.345  0.1954 -0.2945  0.0120
 3970W        W21494   5.967   7.043   1.987 -0.0999  0.3158 -0.1291
 3971W        W21495   9.490  11.259  16.286  0.0049  0.1846  0.2326
 3972W        W21496  12.376   9.295  13.652  0.1383  0.2095  0.0664
 3973W        W21497   0.322   7.124   2.090 -0.1317  0.0051  0.2002
 3974W        W21498  10.611   5.476  15.768 -0.1495  0.1187  0.1867
 3975W        W21499   9.440   4.944  13.301 -0.1725  0.2000 -0.0982
 3976W        W21500   8.662   0.829   4.998 -0.0215  0.1053 -0.2863
 3977W        W21501  15.438  15.454  15.768  0.1854  0.0293  0.0596
 3978W        W21502  10.170  15.248  14.466 -0.3195  0.0245  0.1340
 3979W        W21503   5.777  14.084  15.461  0.0312  0.2722  0.2330
 3980W        W21504  10.845   7.230  15.399 -0.2837  0.0807  0.1634
 3981W        W21505  12.941   3.651  17.208 -0.0808  0.2154 -0.3635
 3982W        W21506  10.534   3.645  17.309  0.2682  0.1009  0.2909
 3983W        W21507   4.522  12.532  16.755 -0.2441 -0.1297  0.2745
 3984W        W21508   0.414  11.749  14.345  0.1268  0.0521 -0.1529
 3985W        W21509  11.294   2.340  16.277  0.0880  0.1876  0.2457
 3986W        W21510  13.980  11.875   4.611  0.0405 -0.2562  0.1995
 3987W        W21511  14.834   7.843   4.958  0.0806  0.1444  0.1731
 3988W        W21512  16.472   8.108  17.051  0.1572  0.1601 -0.0838
 3989W        W21513  16.707  16.095   4.710 -0.4517  0.0622 -0.1035
 3990W        W21514   2.350   8.215   3.857  0.0378  0.0517  0.2232
 3991W        W21515  13.540   2.603  12.797  0.1814  0.0933  0.2221
 3992W        W21516  11.262   5.982  13.514  0.2308 -0.0424  0.1460
 3993W        W21517  13.929   0.029   0.396  0.1826 -0.0519  0.3176
 3994W        W21518   5.394   9.141  14.569 -0.0645 -0.1207  0.3445
 3995W        W21519   4.989  12.706  15.870  0.0688  0.1123  0.1304
 3996W        W21520   6.063   9.306   1.630  0.2397  0.1224  0.2695
 3997W        W21521   4.706   9.970  16.439 -0.0128  0.1356  0.1459
 3998W        W21522   4.795  16.109  13.677  0.2084 -0.0237  0.1869
 3999W        W21523   3.304   7.969  17.542 -0.0163  0.2141 -0.0322
 4000W        W21524  12.722  12.621   5.509 -0.0587  0.0051 -0.3079
 4001W        W21525  16.558  14.588  13.400  0.1256 -0.1735 -0.1315
 4002W        W21526   4.185  13.200   2.119  0.0014  0.0159 -0.0426
 4003W        W21527  11.721  12.318   4.790 -0.0372 -0.3721  0.0616
 4004W        W21528  14.501  11.224   0.472  0.0328  0.0040  0.0168
 4005W        W21529   7.540  10.190   5.004  0.0464  0.2607 -0.1089
 4006W        W21530  10.754   6.626  13.662 -0.1556 -0.1100 -0.0114
 4007W        W21531   5.271  13.438   4.823  0.0983 -0.1096 -0.0656
 4008W        W21532  15.258  13.820  12.603  0.0462  0.0190 -0.1970
 4009W        W21533   6.577  15.131  12.852  0.1595 -0.2643 -0.3149
 4010W        W21534  10.354   4.288  12.829 -0.1991 -0.0189 -0.0541
 4011W        W21535  16.082   2.151   0.122 -0.2288 -0.1954 -0.3213
 4012W        W21536   8.382  11.356   2.522 -0.0256 -0.1561 -0.3109
 4013W        W21537  10.468  15.256   0.729  0.0579 -0.0479  0.0797
 4014W        W21538   9.871  13.757   4.021 -0.1083  0.0046 -0.2070
 4015W        W21539   8.817   8.919  15.535  0.1987 -0.2146  0.0108
 4016W        W21540  14.110   8.278   1.366 -0.0983  0.2927 -0.1762
 4017W        W21541   3.324  16.594   2.647 -0.0188  0.0327 -0.0912
 4018W        W21542  11.845  13.802   5.039 -0.0414 -0.1645  0.2708
 4019W        W21543   5.097   2.767  13.813 -0.2283 -0.0746  0.0205
 4020W        W21544   4.675   2.736  13.063 -0.0654 -0.1946  0.1121
 4021W        W21545  13.463   6.216  12.474  0.1426 -0.0042  0.1360
 4022W        W21546   0.877   0.851  12.313 -0.4003 -0.0763  0.4327
 4023W        W21547   4.086   2.006  14.181  0.0582  0.0696  0.1408
 4024W        W21548   2.816   4.032  14.837 -0.1080  0.0942  0.0178
 4025W        W21549   6.361   4.893  13.164 -0.0212  0.1659  0.2019
 4026W        W21550   6.933   3.984  14.140 -0.0866 -0.0794 -0.2172
 4027W        W21551  13.876  10.784   0.124 -0.3330  0.2342  0.1019
 4028W        W21552   3.466   7.986   2.022  0.1178  0.1682 -0.2385
 4029W        W21553   3.720  13.906   4.725 -0.0484 -0.1884 -0.1136
 4030W        W21554  11.939  15.538   2.193 -0.3513 -0.0442 -0.0581
 4031W        W21555   4.270   7.037   1.100  0.0364  0.0620  0.0998
 4032W        W21556   1.013   1.171   1.324  0.0183  0.0166 -0.1443
 4033W        W21557  11.761   9.471   5.123 -0.2191  0.2911  0.1547
 4034W        W21558   3.796   7.110  13.572 -0.3406 -0.0092  0.0577
 4035W        W21559  10.115  10.461  15.739  0.0536  0.0824 -0.1302
 4036W        W21560   2.526   3.666  15.815 -0.2452 -0.0884  0.1492
 4037W        W21561   2.620   9.895   0.774 -0.0129  0.1811  0.2479
 4038W        W21562   8.463   5.323  16.775  0.0989 -0.0665  0.0364
 4039W        W21563   3.140   0.424  14.356 -0.0168  0.0593 -0.1824
 4040W        W21564   4.962   3.787   0.292  0.0281  0.0273  0.0100
 4041W        W21565   4.461   9.046   4.156  0.3058  0.2768  0.3275
 4042W        W21566   3.646   9.345   4.338  0.1860  0.0912 -0.2731
 4043W        W21567  13.752  14.800   1.449  0.0515 -0.2464  0.1425
 4044W        W21568   6.951  12.530  12.789  0.1798  0.0245 -0.2194
 4045W        W21569   5.174   7.700  17.369 -0.2739  0.0997  0.2766
 4046W        W21570   7.092  11.601  12.660  0.0173 -0.1510  0.3759
 4047W        W21571  16.403   5.309   3.577 -0.2322  0.0421  0.0426
 4048W        W21572  11.130  11.456   2.984  0.0529  0.1515  0.0474
 4049W        W21573   3.085  11.725   2.598  0.0011  0.2942 -0.0342
 4050W        W21574   1.574   8.539   1.166  0.0216 -0.2185  0.0333
 4051W        W21575   3.230   1.154  13.353 -0.1332  0.0476  0.0601
 4052W        W21576  13.049  15.746   2.319 -0.2856  0.3354  0.1988
 4053W        W21577   3.874  14.343   4.893 -0.0695  0.1884  0.0525
 4054W        W21578   8.298   4.003  14.007 -0.2654  0.0627 -0.2355
 4055W        W21579  11.549  13.779   4.651  0.0763  0.0489  0.1803
 4056W        W21580  13.120   7.359   3.761  0.0025 -0.1106  0.0799
 4057W        W21581  14.332   1.472   0.103 -0.1319 -0.0343 -0.3337
 4058W        W21582  14.115   6.798  17.375  0.3441  0.1586  0.0694
 4059W        W21583   8.936   7.202   5.544 -0.0503 -0.1680 -0.0426
 4060W        W21584  13.665  16.006   3.894  0.1213 -0.1447 -0.0996
 4061W        W21585   5.677  13.727   2.481 -0.0007  0.0929  0.0293
 4062W        W21586  12.738   3.328  12.448 -0.2739  0.3252  0.0021
 4063W        W21587  16.185  16.040  15.969  0.0375 -0.1475 -0.0413
 4064W        W21588  15.977   7.513   1.737  0.4230 -0.1409 -0.2424
 4065W        W21589   4.305  14.717   5.172 -0.3803 -0.1551 -0.0752
 4066W        W21590  15.906  16.228  13.185 -0.0165  0.0655 -0.2926
 4067W        W21591   2.851  10.925   1.761 -0.1559  0.0923 -0.2529
 4068W        W21592   6.516   8.217   3.644  0.0693 -0.0346  0.1677
 4069W        W21593   9.807  13.914   1.641 -0.2629  0.0508  0.3992
 4070W        W21594  13.648  12.649  16.929 -0.0611  0.0025 -0.0506
 4071W        W21595   0.126  15.030   0.835 -0.0705  0.2400 -0.1841
 4072W        W21596   4.187   5.724   5.273  0.0290  0.2092  0.3772
 4073W        W21597   1.012  17.027   0.880 -0.1530  0.1476  0.4224
 4074W        W21598   4.448   8.289   0.771 -0.2904  0.0842 -0.1495
 4075W        W21599  12.193   7.705  15.023  0.0492 -0.0330  0.0737
 4076W        W21600   3.192  11.974   3.556 -0.1294 -0.0650 -0.1897
 4077W        W21601   2.156  11.160   0.311 -0.1244 -0.0292  0.1031
 4078W        W21602  10.772   5.997   5.460 -0.1189  0.2333 -0.0939
 4079W        W21603   0.797  13.506  14.917  0.0446 -0.3008  0.0861
 4080W        W21604  10.446   7.266   5.505  0.3279  0.0758 -0.0138
 4081W        W21605  13.946   5.420   5.195  0.0006  0.0378 -0.0069
 4082W        W21606  12.440   0.401  13.273  0.1083  0.0221 -0.1834
 4083W        W21607   7.142   5.956   0.171  0.1392 -0.1309  0.0525
 4084W        W21608   7.002   7.057  17.087  0.1665  0.1554 -0.0182
 4085W        W21609  13.197  15.814  16.918 -0.0111  0.0677  0.3321
 4086W        W21610  11.432  13.706  14.033  0.2053 -0.2130  0.0212
 4087W        W21611   7.867  11.205  17.261 -0.1268  0.1211 -0.0179
 4088W        W21612   7.286  16.593  15.101  0.2687 -0.0993 -0.1360
 4089W        W21613   7.233   2.465   0.203 -0.0545 -0.0063  0.0867
 4090W        W21614   1.665  11.735  14.189 -0.0134 -0.0748  0.0109
 4091W        W21615  12.723  15.324  14.345 -0.0375 -0.0566  0.0922
 4092W        W21616  15.993   1.199  11.406  0.0239 -0.1054 -0.1904
 4093W        W21617   8.431  14.957   1.328 -0.0793 -0.0962  0.2564
 4094W        W21618   0.535  15.031  12.122  0.2253 -0.0404  0.1224
 4095W        W21619   9.595   6.782  12.036  0.1222 -0.1679 -0.4557
 4096W        W21620   1.209   7.208  13.320  0.0502 -0.0703 -0.3757
 4097W        W21621  10.078   7.238   6.268  0.2317  0.0861 -0.0352
 4098W        W21622   1.244  13.550  15.200  0.0945  0.3679  0.2210
 4099W        W21623   6.004  10.662  15.042 -0.2858 -0.2239  0.1161
 4100W        W21624   6.725  13.675   3.179  0.0481 -0.1903  0.1158
 4101W        W21625   6.687  13.959  13.706 -0.0349 -0.1206 -0.1678
 4102W        W21626  13.484  10.712  12.547  0.1686 -0.1472  0.0368
 4103W        W21627   7.431  11.720   2.320 -0.0766  0.0575 -0.1137
 4104W        W21628   8.580  10.441   6.210  0.3577  0.0458 -0.0632
 4105W        W21629  13.643   5.444  17.133  0.2285  0.4591  0.3681
 4106W        W21630  11.553  11.621   0.797 -0.2874  0.0617 -0.1995
 4107W        W21631   5.219  13.256  12.771 -0.0269 -0.1835 -0.0167
 4108W        W21632  16.828  11.676   3.345 -0.2555 -0.0859  0.1172
 4109W        W21633  14.759  15.954  16.232  0.0090 -0.2984  0.0635
 4110W        W21634  15.198  14.380   0.487 -0.1389  0.1657 -0.0128
 4111W        W21635   0.315   3.259   1.030  0.0600  0.0366 -0.2659
 4112W        W21636  15.567   1.616  16.395  0.0209  0.0762  0.0586
 4113W        W21637   7.239   3.522   5.213 -0.2246  0.0648 -0.3443
 4114W        W21638   5.800   8.410   1.892  0.0563 -0.2478  0.0109
 4115W        W21639   3.320   8.913   2.725  0.0673 -0.1447  0.0052
 4116W        W21640   1.362  11.951  13.348  0.1291  0.1318 -0.0401
 4117W        W21641   1.654  16.156   4.913  0.4989 -0.0271  0.0459
 4118W        W21642  10.915  13.445   0.192  0.1804  0.2678 -0.0383
 4119W        W21643   4.387   0.928   3.080  0.0624 -0.0702 -0.0987
 4120W        W21644   9.774  16.192   1.236 -0.1193  0.0615 -0.0186
 4121W        W21645   9.202  13.190  13.409 -0.0867  0.2369  0.2236
 4122W        W21646   9.193   7.052   1.635  0.0004  0.0420  0.2582
 4123W        W21647   5.640   6.038   4.146  0.0360  0.2743  0.3477
 4124W        W21648  17.154   6.206   4.971 -0.1654  0.2181  0.1731
 4125W        W21649  15.551  16.324   2.704 -0.0623  0.1139  0.1832
 4126W        W21650   3.144   5.343  17.008 -0.0954  0.2771 -0.0529
 4127W        W21651  12.974  11.996   3.608  0.0378  0.1828 -0.1959
 4128W        W21652   3.385   1.943   5.951 -0.0345  0.3050  0.2094
 4129W        W21653  15.586   2.050  12.592  0.2062 -0.3291 -0.0000
 4130W        W21654   7.558  12.920   3.995  0.0451  0.0080 -0.1408
 4131W        W21655  12.679  15.177  17.294  0.0542  0.0558 -0.0877
 4132W        W21656  10.488  14.478  12.612 -0.0310  0.1739 -0.0481
 4133W        W21657   3.561  11.611   2.852 -0.0276  0.0687  0.2616
 4134W        W21658  13.618   3.353  11.101  0.3496 -0.1089  0.1353
 4135W        W21659  12.391   6.859  15.470  0.0104 -0.0328  0.0525
 4136W        W21660   0.424   4.255  12.120  0.1712  0.2104  0.2848
 4137W        W21661   6.121   3.426  16.469 -0.1180 -0.0648  0.2016
 4138W        W21662   1.856   8.616   3.831 -0.3390 -0.0878 -0.0806
 4139W        W21663   5.731   3.071   0.410 -0.1722  0.3170  0.1230
 4140W        W21664  13.640   1.023  12.670  0.2528 -0.1348  0.1099
 4141W        W21665   2.456  10.676   2.160  0.1467 -0.1762 -0.0938
 4142W        W21666   5.838  11.262   5.282 -0.1806  0.1023  0.1366
 4143W        W21667   8.314   6.725  15.857  0.3035 -0.3192  0.1780
 4144W        W21668   1.575   9.860   2.136 -0.1376 -0.0446 -0.2624
 4145W        W21669  10.604   6.265  16.392  0.1331  0.0275 -0.2947
 4146W        W21670   1.357  14.087  11.919 -0.0394 -0.0935  0.0037
 4147W        W21671   5.645   1.598   4.380 -0.0251  0.1915 -0.3478
 4148W        W21672   8.557  17.147  12.458  0.1868 -0.0040  0.0671
 4149W        W21673   3.138   4.632   4.562  0.0683 -0.0088 -0.0131
 4150W        W21674  13.673   8.544   5.086 -0.0470  0.1593 -0.2269
 4151W        W21675   6.822  15.650  17.066  0.1420 -0.1808  0.1301
 4152W        W21676  13.414  14.758  13.603  0.1365 -0.2287  0.0193
 4153W        W21677   7.981   8.392  16.036  0.0282  0.1990 -0.1863
 4154W        W21678   1.315  15.192  13.393 -0.0432  0.2269 -0.1509
 4155W        W21679  14.736   0.117   4.645 -0.1065 -0.0731  0.0196
 4156W        W21680   9.932  14.068   3.578  0.1979  0.3486  0.0964
 4157W        W21681  12.102   6.173  17.422 -0.3338  0.1475 -0.0385
 4158W        W21682   4.895  13.192   0.471 -0.1925 -0.1388  0.0786
 4159W        W21683  16.992   8.429   2.562 -0.0361 -0.5000  0.0823
 4160W        W21684  11.104  10.102   3.505 -0.0896 -0.1987  0.0491
 4161W        W21685   3.735   0.369  12.634  0.0332 -0.1535  0.5737
 4162W        W21686  13.998   5.030  11.188  0.3721 -0.2928  0.2335
 4163W        W21687   7.538   7.708  16.673  0.0554  0.0313  0.0723
 4164W        W21688   3.733   7.911   0.747  0.3919 -0.0085 -0.0894
 4165W        W21689   7.896   8.227  17.410 -0.2753 -0.1601  0.1444
 4166W        W21690   2.356   1.963  13.079 -0.0184 -0.0550 -0.1069
 4167W        W21691  13.687   3.603   0.134  0.1266 -0.0596 -0.2098
 4168W        W21692   9.621  16.675   4.345  0.0566  0.3172  0.1144
 4169W        W21693  10.816   1.909   3.989 -0.0341 -0.0807  0.2682
 4170W        W21694  14.010   4.942   5.061 -0.3397  0.3016  0.2733
 4171W        W21695   7.526  15.214   3.741  0.0970  0.0071  0.2009
 4172W        W21696  10.326   3.709   2.282  0.0372 -0.2544  0.1435
 4173W        W21697  14.819   3.249  17.049  0.1739  0.0110 -0.3005
 4174W        W21698  16.907   0.579   4.148  0.0779  0.0366 -0.1622
 4175W        W21699  16.799   2.111   2.051  0.2335 -0.1813 -0.1610
 4176W        W21700  10.098  14.119  14.327 -0.2686 -0.1132 -0.1125
 4177W        W21701  10.095  16.681   0.053  0.0224 -0.1755 -0.1977
 4178W        W21702  10.289   2.401  14.688 -0.1515  0.1074  0.4934
 4179W        W21703  10.086  15.067   0.445  0.2163  0.0405 -0.2289
 4180W        W21704   0.357   1.124   3.129 -0.2448  0.1467  0.0878
 4181W        W21705   6.239   5.662  17.491 -0.1825  0.1125 -0.3020
 4182W        W21706   5.020  14.265  15.244 -0.2138 -0.0515 -0.2392
 4183W        W21707   7.074  14.249  13.789 -0.6533 -0.1612 -0.0660
 4184W        W21708   7.341   4.193  12.360  0.0132  0.0085  0.0245
 4185W        W21709   7.149  16.166   0.986  0.0031 -0.1163 -0.0313
 4186W        W21710  10.844  11.549  13.502  0.0716  0.0432 -0.1704
 4187W        W21711   5.001  16.643  15.690  0.0744  0.0439  0.0522
 4188W        W21712   1.651   1.454  15.836 -0.1504  0.2317  0.1488
 4189W        W21713   0.640  11.962  17.331  0.0139 -0.3663 -0.0685
 4190W        W21714   5.463   1.324  16.184 -0.0463  0.1052 -0.0997
 4191W        W21715   4.535   5.259  12.241  0.0834  0.1569 -0.0929
 4192W        W21716  14.332   5.958  17.233  0.1138 -0.0573 -0.1399
 4193W        W21717  16.826   3.795   2.660  0.0317 -0.0813  0.1899
 4194W        W21718  15.341   2.795   2.053 -0.1162 -0.1394 -0.1152
 4195W        W21719   6.242   4.861   5.175 -0.1206 -0.0586 -0.0512
 4196W        W21720   2.083  11.808  15.072  0.0908  0.2290  0.1787
 4197W        W21721   4.716   0.048   5.260 -0.2083  0.0892 -0.0459
 4198W        W21722   7.047   1.134  15.277 -0.3986 -0.0343 -0.1268
 4199W        W21723   4.605  10.667   2.608  0.1133  0.4339  0.1124
 4200W        W21724   4.568   9.194  12.829 -0.2177  0.2078  0.0696
 4201W        W21725   6.176  15.034  14.225  0.1006  0.1973 -0.1679
 4202W        W21726   1.528   9.400   1.973 -0.2543 -0.0569 -0.4612
 4203W        W21727   2.842  15.485  12.391  0.1775  0.0328 -0.0137
 4204W        W21728  13.053   7.281   2.394 -0.1979 -0.1333 -0.0127
 4205W        W21729  15.600  16.123  15.274 -0.1830  0.1458  0.0612
 4206W        W21730  17.095   8.242  13.378  0.1901 -0.1133  0.1052
 4207W        W21731   8.809  13.812   0.728  0.2466 -0.0084  0.1039
 4208W        W21732  16.397  13.995  15.099 -0.0662 -0.1820  0.1624
 4209W        W21733   1.561   6.731  14.823 -0.1105  0.4215  0.2698
 4210W        W21734  16.058  10.185  15.155 -0.0767 -0.1030  0.1930
 4211W        W21735   6.352   6.700  14.257 -0.1248 -0.2811  0.0418
 4212W        W21736   1.834  10.105   1.743 -0.1602  0.2041 -0.0929
 4213W        W21737  13.909  14.165   0.218 -0.1588  0.2042  0.1010
 4214W        W21738   3.813   8.440  16.497  0.1244  0.2240 -0.0044
 4215W        W21739   6.044   9.456  16.987  0.0534 -0.0788  0.2269
 4216W        W21740  16.156  17.035  12.805 -0.0666 -0.0841 -0.1842
 4217W        W21741   7.367   2.320   5.160 -0.0992 -0.0170  0.0542
 4218W        W21742   0.610   9.993  17.015 -0.0668  0.0704  0.0680
 4219W        W21743   8.097   2.356  14.810  0.2893  0.1152 -0.1191
 4220W        W21744  11.054  12.353   2.936 -0.0251  0.3242 -0.0228
 4221W        W21745  14.846   9.794  12.828  0.0900  0.2281  0.0381
 4222W        W21746  13.289   6.431   1.750  0.1753 -0.0245  0.0696
 4223W        W21747  14.170  10.891   0.781  0.1383  0.0215 -0.0892
 4224W        W21748  11.531  11.883   1.789 -0.0025 -0.0712  0.1419
 4225W        W21749   1.434  14.860  15.866 -0.1978 -0.0818 -0.0994
 4226W        W21750  14.586  13.150   0.659  0.1172 -0.0952 -0.3573
 4227W        W21751   3.312   5.811   3.729 -0.0915  0.2477  0.3514
 4228W        W21752  10.748   9.751  17.256  0.3293  0.2413 -0.0864
 4229W        W21753   9.751  11.909  17.367 -0.1651 -0.4725  0.0986
 4230W        W21754   1.222  16.660  16.318 -0.1328 -0.2473 -0.1418
 4231W        W21755   9.636   1.305   4.156  0.0336 -0.2094  0.3245
 4232W        W21756   2.049   4.354  16.857  0.2047 -0.2907  0.3002
 4233W        W21757  11.876  15.129  16.306 -0.0205  0.1584 -0.0243
 4234W        W21758   1.895   3.219  14.086  0.3476 -0.0092 -0.2094
 4235W        W21759  11.026  15.851  11.516 -0.0454 -0.2959  0.2274
 4236W        W21760   1.372   4.290   0.738  0.0022 -0.0444 -0.3381
 4237W        W21761   8.802  11.628   2.831  0.1748 -0.0605 -0.1315
 4238W        W21762  11.668   8.670   3.202 -0.0054  0.1952 -0.0327
 4239W        W21763   9.710   4.832  16.589 -0.1966  0.1986 -0.1306
 4240W        W21764   5.821  12.375   4.041  0.1498 -0.1487  0.1646
 4241W        W21765   1.050   2.474  14.114  0.1644  0.0441 -0.4245
 4242W        W21766   7.575   9.069  13.083  0.0175 -0.2323 -0.1403
 4243W        W21767  10.046   7.379  17.346  0.0998  0.4122  0.0089
 4244W        W21768   3.223  11.305  16.135  0.0207 -0.0126  0.0776
 4245W        W21769  14.704  11.220  16.183 -0.1640 -0.1895 -0.1315
 4246W        W21770   5.594  14.742   3.404  0.0937 -0.2021 -0.0708
 4247W        W21771   8.157  14.810   0.937  0.0204  0.3487  0.2027
 4248W        W21772   1.233  10.750  15.582 -0.0420  0.2015 -0.1315
 4249W        W21773  12.130  14.006  16.248  0.3614 -0.0138  0.0447
 4250W        W21774   5.467   3.224  17.648 -0.0568 -0.0859  0.1894
 4251W        W21775   8.205  16.538   5.327  0.1406  0.0831  0.0081
 4252W        W21776  15.727   6.349  11.805 -0.1987  0.0199 -0.2551
 4253W        W21777  12.202  15.208   3.477  0.3595  0.2678 -0.0750
 4254W        W21778   8.175   1.786  14.695 -0.0754 -0.1247 -0.3036
 4255W        W21779   1.752   6.131  16.369 -0.2326 -0.1258  0.1175
 4256W        W21780   6.372   9.640   3.382  0.1403  0.0843 -0.2570
 4257W        W21781   8.613   2.653   5.012  0.0809  0.1750  0.0177
 4258W        W21782   6.291   4.237  16.282  0.1341 -0.3050 -0.1876
 4259W        W21783   1.967  14.604  15.817  0.0615  0.1671 -0.0554
 4260W        W21784   0.368  14.456   1.397 -0.0165 -0.0400  0.0200
 4261W        W21785   8.876   0.201  12.172  0.1789 -0.0142 -0.2059
 4262W        W21786   4.704   3.894  16.511 -0.1116 -0.0165 -0.0755
 4263W        W21787   5.876   8.527   4.201 -0.0180  0.1078  0.2505
 4264W        W21788  10.919  16.108  13.237 -0.1772 -0.0269  0.0201
 4265W        W21789  13.111   2.312   6.049  0.0306  0.0246  0.2542
 4266W        W21790  10.540   8.138   3.210 -0.0020 -0.0125 -0.0749
 4267W        W21791  13.012   5.034   1.100 -0.2040 -0.0557  0.1481
 4268W        W21792   4.598  11.973   0.862 -0.1821  0.0605 -0.3463
 4269W        W21793  11.681   4.933  14.283 -0.1066  0.1515  0.0549
 4270W        W21794  11.601   6.642   0.327  0.0722 -0.4200  0.0201
 4271W        W21795  14.999   2.989   0.632  0.2629 -0.1169  0.1836
 4272W        W21796  14.762   1.964   2.165  0.1952 -0.0767  0.0677
 4273W        W21797   6.001   1.352  15.500 -0.2979  0.0681 -0.1122
 4274W        W21798  14.789  10.268  13.034  0.0500 -0.3887  0.1277
 4275W        W21799  10.517  14.082   5.655 -0.2483 -0.2686  0.1490
 4276W        W21800   8.275  14.933   3.068  0.2578  0.0348  0.3135
 4277W        W21801   4.539   6.706  16.925  0.2268  0.0720  0.1049
 4278W        W21802  15.336  12.627  16.619 -0.0428 -0.3253 -0.2560
 4279W        W21803   5.422  15.109  12.588 -0.0287 -0.1290  0.0084
 4280W        W21804  16.928   0.625   2.846 -0.3586  0.0016 -0.0753
 4281W        W21805   6.757  14.571  16.937  0.0817 -0.0309 -0.1001
 4282W        W21806   5.309   1.494   0.692 -0.1614 -0.1713  0.2108
 4283W        W21807   6.483  13.542  15.399  0.0612  0.2236  0.1607
 4284W        W21808  12.425  13.895  17.130 -0.0520 -0.1110  0.2256
 4285W        W21809  11.413  10.525  15.105 -0.0077 -0.0250 -0.2036
 4286W        W21810  13.416   3.431  16.855 -0.1292 -0.0934  0.1278
 4287W        W21811  14.143  12.769  17.088 -0.1013 -0.1393  0.2099
 4288W        W21812  13.283   6.795   1.337 -0.0469  0.4500  0.2181
 4289W        W21813   0.474   0.598  14.165 -0.2566 -0.3817  0.2707
 4290W        W21814   3.994  15.083  15.777 -0.0245  0.1984 -0.2935
 4291W        W21815   7.493   5.125   4.413  0.0670 -0.1502 -0.3090
 4292W        W21816   9.042  12.633   5.625 -0.0774  0.0135 -0.0885
 4293W        W21817  13.064  15.721   5.225 -0.0148 -0.2951 -0.1307
 4294W        W21818  14.315  17.185  17.205  0.2945  0.2213 -0.1196
 4295W        W21819   0.141   4.548  11.707  0.0592  0.1628 -0.0903
 4296W        W21820  12.642   8.076   3.348 -0.0933  0.1448 -0.2714
 4297W        W21821  11.340   1.029  14.424  0.0855 -0.0059 -0.0207
 4298W        W21822   4.987   3.384   0.014 -0.2827 -0.0930 -0.0110
 4299W        W21823  14.027  13.154  15.410  0.0792  0.4156 -0.0137
 4300W        W21824  11.148   9.695   4.009  0.0181 -0.3104  0.1085
 4301W        W21825   4.500   6.825   1.970 -0.2498  0.3024 -0.2482
 4302W        W21826   5.769  12.457  15.311 -0.0892 -0.1267  0.0170
 4303W        W21827   2.085  14.028  12.992  0.1945  0.0901 -0.1751
 4304W        W21828   2.326  16.153   1.221 -0.0211  0.2746  0.2127
 4305W        W21829  15.634  13.928   0.512  0.0258 -0.0881 -0.0026
 4306W        W21830   0.648  17.093  14.939 -0.0105 -0.0589 -0.1695
 4307W        W21831   2.955   3.744  15.455  0.0987  0.1974 -0.0738
 4308W        W21832  11.112   0.543   2.857  0.1887 -0.1238 -0.0929
 4309W        W21833   7.653  11.322   3.905 -0.1328  0.0470  0.0071
 4310W        W21834   4.395   9.182  14.551 -0.0351  0.0972 -0.0031
 4311W        W21835   1.409   0.726  17.259  0.2244 -0.1139  0.0639
 4312W        W21836   5.785  15.880   1.437  0.1507  0.2069  0.0747
 4313W        W21837  15.049   0.416   5.025  0.1973  0.1485 -0.2999
 4314W        W21838   8.264  13.391   6.062  0.0894 -0.1824 -0.0029
 4315W        W21839   8.290   7.886   2.135 -0.0274  0.1812  0.0788
 4316W        W21840  14.314   1.991  13.611  0.0648  0.2084 -0.2115
 4317W        W21841  15.981  16.671   4.464 -0.1102 -0.0230 -0.2534
 4318W        W21842  12.940  14.207  16.242  0.3229 -0.0687 -0.1781
 4319W        W21843  12.028  10.802  12.213  0.0769 -0.1886 -0.2218
 4320W        W21844   2.556   3.227  15.507  0.0885 -0.0076  0.0423
 4321W        W21845   7.516   2.286  12.962 -0.0163  0.0676 -0.1704
 4322W        W21846   2.705  11.411   1.831 -0.3338  0.0408  0.1043
 4323W        W21847   3.747  12.547   3.080  0.0020 -0.1407 -0.2418
 4324W        W21848   5.902  10.497  14.495  0.0703 -0.2106  0.0655
 4325W        W21849   3.279   9.857   5.306 -0.1000  0.0608  0.2177
 4326W        W21850   6.534   0.248   5.585 -0.0359 -0.0812  0.2288
 4327W        W21851   5.320  14.726   3.949 -0.1698  0.4493 -0.2457
 4328W        W21852  10.441  12.745  15.124  0.0066  0.0073  0.2402
 4329W        W21853   7.434   1.491   2.409  0.0227 -0.0506  0.1088
 4330W        W21854  13.485   5.133   0.350 -0.0269  0.0367  0.0245
 4331W        W21855   6.621  11.764  14.610  0.2876 -0.0045 -0.0218
 4332W        W21856   0.283  15.075  13.437  0.0302  0.0943 -0.2884
 4333W        W21857   7.633   4.699   5.092  0.0608  0.0980 -0.1577
 4334W        W21858   7.768  12.055  14.588 -0.1192 -0.0092 -0.2344
 4335W        W21859  12.844   1.236   1.940  0.0141 -0.0925  0.0260
 4336W        W21860   2.643  14.631  11.934  0.0186 -0.2239  0.1934
 4337W        W21861   6.506  17.056   0.156  0.2144  0.1027  0.0684
 4338W        W21862   5.062  12.155   0.813 -0.0481 -0.1596 -0.0436
 4339W        W21863  10.158   0.071   3.801 -0.2315 -0.0710  0.1720
 4340W        W21864   7.683   2.265   5.554  0.1416 -0.2236 -0.0151
 4341W        W21865   1.359   2.925  14.511  0.2250 -0.0647 -0.0658
 4342W        W21866   2.120  14.641   0.330 -0.0043 -0.0833  0.0078
 4343W        W21867  13.444  14.885   3.721 -0.1708  0.0641  0.1794
 4344W        W21868   4.816  15.163   4.801 -0.0807 -0.1203  0.0591
 4345W        W21869  16.940   1.549   3.850 -0.1467  0.1023  0.0560
 4346W        W21870  11.784   9.551  15.098  0.1099 -0.1199 -0.0357
 4347W        W21871  11.897   6.614   1.743 -0.1255 -0.1316 -0.2722
 4348W        W21872   7.631  14.420   3.280 -0.0215  0.0685  0.2007
 4349W        W21873   5.425   7.767   2.181  0.2470  0.1273  0.1993
 4350W        W21874   3.748   4.105   5.528 -0.2534 -0.6133 -0.0320
 4351W        W21875   2.909  13.048   4.170  0.1453  0.1578  0.0862
 4352W        W21876   5.988   7.506   3.469  0.2683 -0.2475 -0.0508
 4353W        W21877   8.964  16.274   2.400  0.1667 -0.0060 -0.1782
 4354W        W21878   6.933   2.081   3.409  0.0281  0.0548  0.0889
 4355W        W21879  12.486  14.027  16.593  0.1048  0.2551 -0.0461
 4356W        W21880  11.035   6.055  15.197  0.3701  0.0954 -0.0738
 4357W        W21881   1.647  13.002   2.099  0.0512  0.2377 -0.1651
 4358W        W21882  14.230  11.251  12.757  0.1105  0.2309  0.2394
 4359W        W21883   1.079   3.929   3.093  0.0866  0.1215 -0.0674
 4360W        W21884  15.960   6.853  15.924  0.0073 -0.1641 -0.0115
 4361W        W21885   6.013   6.761  12.448  0.0683 -0.0230  0.2945
 4362W        W21886  12.801  16.829   0.209  0.0678  0.5399  0.0139
 4363W        W21887   6.575  14.551  15.445  0.0205  0.1814 -0.0262
 4364W        W21888   7.406   1.077   4.270 -0.0059  0.2284 -0.0534
 4365W        W21889   9.618   8.403   5.329 -0.3839  0.1311  0.0051
 4366W        W21890  11.656   3.363  14.719 -0.0222  0.0972 -0.0573
 4367W        W21891  11.691   6.505  12.886  0.0042  0.0214  0.3703
 4368W        W21892  16.688  11.770  15.657 -0.0525  0.1101  0.0255
 4369W        W21893  10.510   4.889   1.337  0.2681  0.3432  0.1852
 4370W        W21894   4.280   1.080  14.200  0.0773 -0.0262  0.0479
 4371W        W21895   1.061   7.384  15.550  0.2436 -0.2167  0.0727
 4372W        W21896   7.607   4.148   0.584 -0.0163 -0.3375 -0.1714
 4373W        W21897   5.375   8.361  15.784 -0.0235 -0.2536  0.0464
 4374W        W21898   5.232   9.546  17.044 -0.1407  0.2013 -0.0639
 4375W        W21899  10.271  14.286  14.807 -0.0250 -0.0304  0.0701
 4376W        W21900   9.056   6.043   2.511  0.1486  0.1326  0.2666
 4377W        W21901  15.223   3.524   1.058  0.0913  0.0553  0.3812
 4378W        W21902   6.330   3.891  17.539  0.2462  0.1131  0.0254
 4379W        W21903  11.862   9.809  12.154  0.0713  0.0389  0.3829
 4380W        W21904   2.012   7.294   5.685 -0.1916 -0.3652 -0.2522
 4381W        W21905   9.133  11.857  16.278 -0.4881  0.0484  0.3064
 4382W        W21906   4.105  16.554   0.581 -0.0418  0.1235  0.1615
 4383W        W21907   1.638   4.307  16.021  0.2875  0.0772 -0.3853
 4384W        W21908  15.950   8.463  16.265  0.1369 -0.1794 -0.3178
 4385W        W21909   0.185  15.157   3.548  0.1658  0.0484  0.3809
 4386W        W21910   4.331  12.041   2.541  0.1262 -0.0006  0.1904
 4387W        W21911   6.816  14.185  15.188 -0.1442  0.0892 -0.2045
 4388W        W21912   1.795   1.453  14.261 -0.0558  0.1383  0.0750
 4389W        W21913   3.320   5.362   5.143 -0.1387  0.2769  0.0451
 4390W        W21914   5.086  12.475   4.554  0.2533  0.1577 -0.1528
 4391W        W21915   1.492   0.390  12.855  0.1913  0.0134  0.3062
 4392W        W21916  15.600   9.907   0.703 -0.0245 -0.2782 -0.0448
 4393W        W21917  15.506   6.841   2.776  0.0957  0.0241  0.0120
 4394W        W21918  13.519  15.949   0.541 -0.4070 -0.2618 -0.0015
 4395W        W21919   0.617   3.962   5.332 -0.0911 -0.1477 -0.1107
 4396W        W21920  11.086   4.856  16.525  0.1070 -0.1400 -0.2694
 4397W        W21921  10.186  15.170  17.594 -0.0298  0.0287 -0.1366
 4398W        W21922   0.680  14.231  15.582 -0.0938  0.0072  0.0983
 4399W        W21923   0.487   2.183   3.720 -0.2007  0.0316  0.1408
 4400W        W21924   0.578  10.987  17.134 -0.1351 -0.0214  0.0407
 4401W        W21925   9.641   1.190  12.582 -0.2214 -0.0946  0.0929
 4402W        W21926  16.001  11.317  12.896  0.2742  0.2459 -0.0388
 4403W        W21927   5.600   0.541   3.094  0.1259 -0.0071  0.1327
 4404W        W21928   0.117   8.627  14.661  0.1454  0.0674 -0.2725
 4405W        W21929   8.341   6.720   1.673  0.0220 -0.0525 -0.0797
 4406W        W21930  12.628   1.936  13.517 -0.1508  0.1733 -0.0448
 4407W        W21931  12.341   8.624   0.979  0.1652  0.2362  0.2524
 4408W        W21932  15.001   2.120   3.760  0.0016 -0.0969  0.2952
 4409W        W21933   4.283   3.343   2.305 -0.4235  0.2071 -0.0180
 4410W        W21934  11.409   2.011   3.947  0.1572  0.1190  0.4389
 4411W        W21935   6.855   9.369  13.297 -0.0747 -0.0416 -0.4446
 4412W        W21936  13.352   7.961   0.579  0.0183 -0.1160 -0.0844
 4413W        W21937   5.877  11.936  14.649  0.2330 -0.0839  0.2893
 4414W        W21938   0.028   8.518   2.160 -0.3134  0.2428  0.0286
 4415W        W21939   7.901  14.402   0.266 -0.1370  0.1346 -0.0299
 4416W        W21940  15.738  14.704  15.386  0.0530  0.4293  0.2044
 4417W        W21941  16.170   2.484   2.731 -0.1005  0.2839 -0.0060
 4418W        W21942   2.388   6.810   0.564 -0.0738 -0.0083 -0.0384
 4419W        W21943  14.469  10.783   4.709  0.0832 -0.3525 -0.0852
 4420W        W21944  16.462   4.233   3.308  0.4219  0.1769 -0.0268
 4421W        W21945  12.724  17.209   0.642  0.1698  0.1302 -0.3437
 4422W        W21946   2.576  17.114   4.578  0.0635  0.0822  0.0418
 4423W        W21947   9.741  13.204  14.287 -0.1806  0.0652 -0.0335
 4424W        W21948   0.667   1.160  16.986  0.0608  0.3539 -0.1591
 4425W        W21949   6.349   6.774   5.910  0.0653 -0.1143 -0.1628
 4426W        W21950  13.635   9.108   1.907  0.4558  0.1164 -0.1109
 4427W        W21951   6.854  16.840   4.887  0.0841  0.3434 -0.1460
 4428W        W21952  13.582   2.775  15.475 -0.3842  0.2190  0.0390
 4429W        W21953  13.597   3.658  15.855  0.3319 -0.3117  0.0808
 4430W        W21954  13.859   5.118   1.451  0.2636 -0.0551  0.1522
 4431W        W21955   9.413   4.764  14.238 -0.1021 -0.2981 -0.0348
 4432W        W21956   0.426   0.284  13.517 -0.1098 -0.0890  0.0919
 4433W        W21957   9.218  17.188   2.022 -0.0076 -0.2324  0.3114
 4434W        W21958  13.806   2.494  14.759 -0.1221  0.1226  0.0849
 4435W        W21959   5.354   3.117   5.335  0.2020 -0.0643 -0.1129
 4436W        W21960  10.952  16.741   4.508 -0.0284 -0.1776  0.3575
 4437W        W21961   9.507  13.400   4.033  0.0678  0.2175  0.0226
 4438W        W21962  16.329   2.224  17.282 -0.1164  0.1723  0.0816
 4439W        W21963  13.387   4.572   3.950  0.1671  0.2611 -0.2479
 4440W        W21964  16.163   2.667   2.289 -0.1081 -0.1545  0.1319
 4441W        W21965  15.299   9.444  15.006 -0.0016 -0.1725 -0.0711
 4442W        W21966  16.783  10.040  12.633  0.2774  0.0885 -0.2006
 4443W        W21967   4.606  14.609  15.932 -0.0133  0.0290  0.0749
 4444W        W21968   9.385   6.992   5.748  0.1945  0.1663 -0.4953
 4445W        W21969   2.280  10.393  13.500  0.1716 -0.1710 -0.0791
 4446W        W21970   2.732   8.714  15.717  0.0158 -0.0019  0.0046
 4447W        W21971   8.822  10.235   1.098 -0.0665  0.1001  0.1100
 4448W        W21972  15.044  13.439  16.062 -0.0131  0.1550 -0.3163
 4449W        W21973  10.141   3.095   0.438 -0.1799  0.0094  0.0684
 4450W        W21974   4.097   3.757  12.662  0.0482  0.2710 -0.0865
 4451W        W21975   9.652   2.425   3.871  0.2420  0.0918 -0.1947
 4452W        W21976   5.902   9.726   1.213  0.1046  0.0225 -0.0196
 4453W        W21977   9.608   5.239   3.064 -0.1756 -0.1760  0.2861
 4454W        W21978   0.254  11.696   2.610  0.2355  0.0207 -0.2641
 4455W        W21979   0.425  13.274   4.603  0.0078 -0.4008 -0.1059
 4456W        W21980   3.832  13.394   5.834  0.2403  0.0867  0.1781
 4457W        W21981  14.813  16.719  15.051 -0.1216 -0.2758  0.0289
 4458W        W21982   4.338   0.416   2.045 -0.0952 -0.0596  0.1773
 4459W        W21983   8.594   3.188   0.182  0.3368 -0.0522  0.4152
 4460W        W21984   1.448   9.271   5.304  0.2501  0.2593 -0.3622
 4461W        W21985   3.464   0.709  13.084  0.1007  0.0350 -0.0954
 4462W        W21986  13.793   0.943   3.543 -0.2317 -0.0782 -0.3041
 4463W        W21987   4.664  12.400  14.238 -0.0116 -0.1684 -0.0655
 4464W        W21988   2.467   7.553  15.963 -0.0271  0.2207 -0.0459
 4465W        W21989   6.074   4.248   0.083  0.2600  0.0298 -0.2756
 4466W        W21990   4.399   6.395   1.636 -0.0227  0.0801 -0.3443
 4467W        W21991   9.836   7.968  16.741 -0.0002  0.0897  0.4641
 4468W        W21992  14.215   0.625  16.535  0.2221 -0.0412 -0.0352
 4469W        W21993  11.088  15.418   1.139  0.0189 -0.1879 -0.0409
 4470W        W21994  12.539   4.900   0.309 -0.0562 -0.4089  0.0058
 4471W        W21995   2.376   1.888  14.264 -0.1938 -0.0594 -0.5397
 4472W        W21996  16.675  14.105   2.453 -0.1412 -0.1400  0.4489
 4473W        W21997   5.737   8.408  17.491  0.1076  0.2728  0.0914
 4474W        W21998   0.890   0.108  13.154  0.3327  0.2414  0.2229
 4475W        W21999   1.794  14.798   1.061 -0.1686  0.0916 -0.2327
 4476W        W22000   2.871  13.313   0.557 -0.2593  0.0546 -0.1233
 4477W        W22001  15.568   0.328  14.448 -0.2231 -0.1463  0.1023
 4478W        W22002   6.362   7.710  15.058  0.1119  0.0290 -0.1078
 4479W        W22003  15.803   4.850   4.059  0.2801 -0.1619  0.2009
 4480W        W22004   9.134  16.947  17.167 -0.1096 -0.3865 -0.1505
 4481W        W22005  11.157   7.011  13.199  0.3444 -0.2708 -0.1062
 4482W        W22006   4.662   4.531   4.670 -0.5844  0.2653 -0.4206
 4483W        W22007   9.113  16.561   0.660 -0.0582  0.1569 -0.2354
 4484W        W22008   9.578  15.115   5.259 -0.3629 -0.0600  0.0812
 4485W        W22009  13.077   8.553  16.794  0.3428  0.1069  0.0030
 4486W        W22010  13.856   4.022  17.190  0.0992  0.0867 -0.1884
 4487W        W22011   3.004   9.665   4.685  0.1477  0.2266 -0.0469
 4488W        W22012  10.509  12.140   4.864 -0.2472  0.3435  0.0074
 4489W        W22013   7.127  14.141  17.203  0.1617  0.1578  0.1544
 4490W        W22014   1.664   1.211  12.806 -0.0790 -0.0411 -0.1273
 4491W        W22015   7.754  10.907  13.102  0.1846  0.3160  0.0314
 4492W        W22016  14.883   5.416   3.657 -0.0421 -0.0116  0.2564
 4493W        W22017   0.610   2.276   5.755 -0.0487 -0.2893 -0.0452
 4494W        W22018   1.134   0.651   2.669 -0.2936 -0.1179 -0.0350
 4495W        W22019   9.353   1.370   0.740 -0.0212 -0.1326  0.1354
 4496W        W22020   4.420  10.861  16.309  0.0891 -0.1127  0.3480
 4497W        W22021   1.515   7.837   0.080 -0.0905 -0.1313 -0.1914
 4498W        W22022   8.005  15.788   5.463  0.0153  0.2743 -0.3104
 4499W        W22023  10.160   8.753   4.618  0.1696 -0.1554  0.1120
 4500W        W22024  12.781   0.575   4.741  0.0770 -0.1900 -0.3755
 4501W        W22025   0.127   2.331   4.001  0.0316 -0.1400 -0.0244
 4502W        W22026  14.164  15.801   1.096 -0.5561 -0.0328 -0.0857
 4503W        W22027  14.348   0.253  14.752  0.0778 -0.0531  0.1325
 4504W        W22028  17.191   5.160  13.025  0.3057  0.3444 -0.1808
 4505W        W22029   8.334   4.170   3.534 -0.1074  0.3060  0.0295
 4506W        W22030   6.630   2.044   0.943 -0.0084 -0.0972  0.0026
 4507W        W22031   0.758  12.016   2.713  0.0419 -0.0747 -0.0359
 4508W        W22032  10.430   7.171   3.566 -0.1810  0.1458 -0.1466
 4509W        W22033  10.025  12.552  15.012 -0.0475 -0.1253  0.1813
 4510W        W22034  12.943   3.283   3.673 -0.1768 -0.0076 -0.1297
 4511W        W22035   4.484   3.685   1.975  0.1587  0.0617 -0.1999
 4512W        W22036   8.009   8.412  12.847  0.2767 -0.0875 -0.1732
 4513W        W22037   3.383   3.622  12.316  0.0667 -0.2402  0.1872
 4514W        W22038   5.836   6.722   2.845  0.0289  0.0449 -0.1351
 4515W        W22039  14.401  10.872  16.515  0.2959  0.1730  0.1370
 4516W        W22040   9.141   9.540   4.061  0.0568 -0.1292  0.0248
 4517W        W22041   0.729  14.319   1.051 -0.0276 -0.1601 -0.3226
 4518W        W22042   0.049   0.070  14.852  0.0318  0.1505  0.0359
 4519W        W22043   3.771  14.121  17.182  0.0046 -0.2133 -0.2390
 4520W        W22044   5.658  17.212  16.540 -0.3093 -0.0221 -0.0406
 4521W        W22045  12.791   9.057   3.077  0.3491 -0.0151  0.1612
 4522W        W22046   0.081  11.274   3.347 -0.0768  0.0026  0.1364
 4523W        W22047   2.070   6.069   4.541 -0.0023 -0.1274 -0.0354
 4524W        W22048  15.419  12.733  12.988 -0.0739  0.1141 -0.2494
 4525W        W22049   3.320   5.383  14.740 -0.0257  0.2432 -0.1890
 4526W        W22050   4.561   8.673   1.748  0.1163  0.5630 -0.1032
 4527W        W22051   2.843   4.584  17.590 -0.0936  0.0055  0.1418
 4528W        W22052  15.890  14.072  17.578 -0.1966  0.0200 -0.2279
 4529W        W22053  13.457   1.608   1.391 -0.2518  0.2168  0.4049
 4530W        W22054   6.144   4.677   0.277  0.1028 -0.0604 -0.2290
 4531W        W22055   0.926  14.749   1.358 -0.2102 -0.0761  0.1241
 4532W        W22056  12.802  11.842  16.203  0.2374  0.1129  0.2549
 4533W        W22057   3.948   5.775   2.733 -0.2385  0.2526  0.0554
 4534W        W22058  11.713  12.664   0.294 -0.2772  0.2175 -0.2086
 4535W        W22059  13.234  12.382   3.791 -0.0150 -0.0956  0.2638
 4536W        W22060  14.074  15.906  16.911  0.3977  0.0461  0.2820
 4537W        W22061  16.260   8.482   4.635  0.3551  0.2011 -0.0658
 4538W        W22062   9.386   8.140   4.921  0.1545 -0.3629 -0.1334
 4539W        W22063  12.676   9.079  12.048  0.1223 -0.4317  0.0361
 4540W        W22064   9.475  11.483  14.471 -0.1499 -0.0579  0.3748
 4541W        W22065  11.430   3.443   0.185  0.1522  0.0149  0.2581
 4542W        W22066  10.652   5.481  17.530 -0.0872 -0.0848 -0.0830
 4543W        W22067   8.486   2.000   1.811 -0.0449 -0.2490  0.0534
 4544W        W22068   8.375   1.230  15.861  0.2671 -0.1023  0.1644
 4545W        W22069  11.245  10.443  16.014 -0.0603 -0.0996 -0.0785
 4546W        W22070   7.223   8.835  17.384  0.4509 -0.1847  0.0426
 4547W        W22071  11.555  12.306   3.889  0.2630 -0.1405 -0.4306
 4548W        W22072   0.507   2.721  14.834 -0.2347  0.0029 -0.0881
 4549W        W22073   4.403  15.901  12.836 -0.1581 -0.0554  0.1675
 4550W        W22074   8.460  10.319   4.016 -0.0467  0.1128 -0.0351
 4551W        W22075   7.089  15.950   6.250 -0.0135 -0.1695 -0.0750
 4552W        W22076   2.104   4.183  13.661  0.0201 -0.0406  0.2044
 4553W        W22077   2.162   1.261  12.777  0.0237  0.0831 -0.0466
 4554W        W22078   8.423  10.334  16.696 -0.1469  0.1040 -0.3732
 4555W        W22079  14.866  12.312   3.007 -0.1842  0.4589 -0.1937
 4556W        W22080   7.572   8.857   6.542  0.2783 -0.1089 -0.0258
 4557W        W22081   3.766  12.793  12.819  0.1180  0.1569 -0.0390
 4558W        W22082  10.441   5.863  12.943  0.1044 -0.0885 -0.2580
 4559W        W22083   8.955   9.781  14.063 -0.0253  0.2108  0.1512
 4560W        W22084   6.402   5.793   4.974  0.2544 -0.1555  0.1156
 4561W        W22085   0.134  15.742   2.657 -0.2566  0.1669 -0.0731
 4562W        W22086   9.061   5.121  12.895  0.1317  0.1680  0.2478
 4563W        W22087   5.021   3.503  16.766  0.1209 -0.2134 -0.2128
 4564W        W22088  12.929   1.754   1.753 -0.2414  0.2594 -0.0450
 4565W        W22089  12.691   1.262  13.463 -0.0520 -0.1598 -0.0026
 4566W        W22090   0.178   4.878  16.330 -0.1407  0.0752  0.2355
 4567W        W22091   3.976   6.124   4.818  0.2720  0.0995  0.0521
 4568W        W22092   7.132  15.200   0.985  0.2401 -0.4538 -0.0795
 4569W        W22093   9.649  11.721  16.386  0.1381  0.0558 -0.1651
 4570W        W22094   7.758  11.664  16.008 -0.0320  0.1470 -0.1158
 4571W        W22095  13.342   0.998   1.322 -0.1059 -0.0910  0.3605
 4572W        W22096  15.535  11.242  12.714 -0.0661  0.2252 -0.0353
 4573W        W22097   3.541   3.297   4.201  0.0248 -0.2831  0.2143
 4574W        W22098   4.424   5.735   2.852  0.1253 -0.2816  0.0461
 4575W        W22099  10.384  13.048   3.754  0.1456 -0.0513 -0.2890
 4576W        W22100   7.740   9.698  13.522  0.2457  0.0737  0.1860
 4577W        W22101  11.706   6.776  12.430  0.2717 -0.0381 -0.1958
 4578W        W22102  11.347  10.186   2.663 -0.2207  0.0664  0.2130
 4579W        W22103   9.290  14.320   1.544  0.1302 -0.0404  0.1385
 4580W        W22104  10.049   6.747   3.307 -0.2317  0.0271  0.0284
 4581W        W22105  14.398  15.007  14.313 -0.1721 -0.0224 -0.1919
 4582W        W22106   4.377  10.692   3.654  0.3047 -0.1462 -0.1631
 4583W        W22107  16.314   5.633  14.920 -0.0934  0.0579  0.3911
 4584W        W22108  12.712   9.578   2.151 -0.4487  0.1352 -0.0987
 4585W        W22109  12.427  15.680   3.537 -0.1058  0.0804 -0.1483
 4586W        W22110   3.343   6.509   0.398  0.0241  0.3485  0.0419
 4587W        W22111  16.916   0.513   1.893  0.0245  0.2475 -0.0677
 4588W        W22112   0.580   7.816   2.054 -0.0076  0.0230 -0.1390
 4589W        W22113   4.007  10.462  13.711  0.3781  0.1248 -0.2829
 4590W        W22114  12.055   2.895   0.528 -0.2157  0.1928 -0.0062
 4591W        W22115   6.648   4.018  17.183 -0.1723 -0.2068 -0.2823
 4592W        W22116   4.591   5.590   4.949 -0.1456  0.0954 -0.2281
 4593W        W22117   1.909   1.613  13.032  0.0507  0.2662  0.2293
 4594W        W22118  10.603  11.340  16.661  0.2134 -0.1605 -0.2613
 4595W        W22119  10.927   4.955   5.837 -0.2453  0.0161  0.0059
 4596W        W22120   4.661   2.266   0.322  0.2777 -0.1850 -0.1034
 4597W        W22121   1.982  10.870   3.548 -0.3175  0.1423 -0.0534
 4598W        W22122   9.900   5.845  17.287 -0.1794 -0.0466 -0.0924
 4599W        W22123   5.852  13.554   0.786 -0.1324  0.0326  0.2415
 4600W        W22124  15.238   8.044  11.883  0.1778  0.1332 -0.1304
 4601W        W22125   6.191   2.323   1.667 -0.0171  0.1062 -0.3014
 4602W        W22126  11.796  15.727   0.474 -0.1233 -0.0693  0.1342
 4603W        W22127   2.991  12.165  15.529 -0.0159  0.3671 -0.1045
 4604W        W22128  10.683  12.548  13.455  0.4978  0.4557 -0.1198
 4605W        W22129   7.326   9.181  14.631  0.1423  0.0201 -0.0273
 4606W        W22130   4.175   0.114   5.224 -0.1105  0.3603  0.3118
 4607W        W22131   4.936   3.686  14.050  0.2461  0.1577  0.0460
 4608W        W22132  13.291   4.289   1.454 -0.2192 -0.0311  0.0036
 4609W        W22133   9.614  15.743   4.771  0.0913  0.1037  0.4488
 4610W        W22134   6.260   5.171  14.816 -0.1247  0.0542  0.1816
 4611W        W22135  13.917  12.957  14.009  0.0324  0.0089 -0.0556
 4612W        W22136  14.739  14.407  14.613 -0.1273 -0.2533  0.1636
 4613W        W22137   0.917   0.624  13.234  0.1770  0.1117  0.0947
 4614W        W22138   0.633   4.427  16.691 -0.2402  0.1331 -0.0575
 4615W        W22139  10.082  13.578  14.273 -0.0729 -0.2830 -0.2148
 4616W        W22140   5.270   8.396   1.786 -0.0174 -0.0025 -0.2705
 4617W        W22141   4.093   4.521   0.381 -0.6143 -0.2118  0.0365
 4618W        W22142   9.265  13.216  16.015  0.3772  0.0577 -0.1650
 4619W        W22143   9.694  12.377   0.580 -0.1820 -0.1019 -0.1101
 4620W        W22144   0.107  10.818   5.132  0.0231 -0.0478 -0.1902
 4621W        W22145   3.175  14.997   1.383  0.0674 -0.2094 -0.1998
 4622W        W22146   9.418   0.162  13.389  0.1033 -0.0497 -0.2312
 4623W        W22147   2.435   8.121   5.208  0.3095  0.0144  0.1002
 4624W        W22148  12.736  11.623   0.362  0.1684 -0.1450  0.0700
 4625W        W22149   0.137   4.529  13.097  0.0009 -0.3554 -0.1971
 4626W        W22150   9.864  13.004  16.065 -0.0416  0.1470 -0.0527
 4627W        W22151  12.317   1.892   3.569 -0.2403 -0.2938  0.0109
 4628W        W22152   5.601   3.061   3.289 -0.1550  0.2768 -0.1466
 4629W        W22153  16.931   2.356  12.209  0.2443  0.0514 -0.0726
 4630W        W22154   8.770  14.956   0.489 -0.1034 -0.1785  0.0325
 4631W        W22155  15.174   6.730  13.545 -0.1006  0.4588  0.0013
 4632W        W22156  15.243   8.983   0.655  0.0839 -0.2761  0.0495
 4633W        W22157   1.968  10.241   2.878 -0.0843  0.2738  0.1918
 4634W        W22158   0.169   6.946  16.676  0.2751  0.2311  0.0258
 4635W        W22159  15.908   7.641  16.847  0.2764 -0.0530 -0.2018
 4636W        W22160  10.013   6.346   3.701 -0.1409 -0.1620 -0.1046
 4637W        W22161  12.556  13.526   5.448 -0.3773 -0.0242  0.0629
 4638W        W22162   6.963   4.415   5.706  0.2288  0.1369  0.1134
 4639W        W22163   7.009   9.207  14.068 -0.0598 -0.1676 -0.1987
 4640W        W22164   5.831  11.759   5.345 -0.0743  0.0129 -0.1353
 4641W        W22165  11.321  10.017  13.743 -0.1201 -0.2447 -0.4063
 4642W        W22166  15.447   3.657  17.644 -0.1964 -0.0280  0.0032
 4643W        W22167  15.642  10.676  14.661  0.1186  0.1959  0.2377
 4644W        W22168  14.431  13.650   1.373 -0.1825 -0.2948  0.1175
 4645W        W22169  11.940  14.792  15.448  0.0743 -0.3392  0.2927
 4646W        W22170   3.610   3.698   5.254 -0.3976 -0.2160  0.1196
 4647W        W22171   2.064  16.601  12.328  0.1322 -0.1349  0.1178
 4648W        W22172   6.519   0.911   0.799  0.2742 -0.1681 -0.0290
 4649W        W22173   4.677   9.244   6.808 -0.2666 -0.2510 -0.0218
 4650W        W22174  14.421   5.601  14.278 -0.1367 -0.1179  0.1282
 4651W        W22175   4.803   9.822  15.622 -0.2392  0.0181  0.0439
 4652W        W22176   1.424   8.673   2.872  0.0318  0.0930  0.1888
 4653W        W22177   5.093  13.335  12.271  0.0643 -0.1821 -0.1474
 4654W        W22178   4.051   8.859  14.765  0.2484  0.0738  0.1886
 4655W        W22179   5.164  14.350  15.821  0.2423  0.1255  0.2994
 4656W        W22180   9.982  10.446  12.629 -0.0430  0.1285  0.2734
 4657W        W22181  10.604   7.335   0.834 -0.1986  0.2187  0.1152
 4658W        W22182   8.317  15.890  13.595 -0.2351  0.0307 -0.2011
 4659W        W22183   0.243   5.995   0.464 -0.1197 -0.3971  0.1494
 4660W        W22184  15.112  12.936  15.876  0.1085  0.0082 -0.1109
 4661W        W22185   6.327   6.567  13.734  0.1007  0.0692  0.0868
 4662W        W22186   1.374   2.167   3.695 -0.0278  0.1439  0.0979
 4663W        W22187  10.550   4.984   5.532 -0.0856 -0.0771 -0.2575
 4664W        W22188  16.842   9.742  16.194  0.0033 -0.2918 -0.1298
 4665W        W22189  10.566  15.437   5.876 -0.3658  0.2396 -0.1319
 4666W        W22190  13.248   4.201   3.696  0.3812  0.1646  0.1658
 4667W        W22191   3.851  15.322  16.912  0.0233  0.1283  0.0173
 4668W        W22192   1.335   6.663   3.015 -0.2528 -0.0072  0.1350
 4669W        W22193  10.988   8.760  13.592  0.2644 -0.2158 -0.1481
 4670W        W22194  14.473  15.200  14.951 -0.1142 -0.0633  0.1878
 4671W        W22195  10.932  14.926   5.224  0.4317  0.0868 -0.1050
 4672W        W22196   5.136   4.137   0.604  0.2881 -0.1808 -0.0762
 4673W        W22197  16.665   0.719   1.447  0.0298  0.2364  0.2538
 4674W        W22198  10.933  16.304  15.015 -0.1727  0.0013  0.2453
 4675W        W22199  13.287   0.291   0.078  0.0142  0.0914 -0.0941
 4676W        W22200   0.809  14.900  15.129  0.2478 -0.0139 -0.0206
 4677W        W22201   0.502  13.569   3.785 -0.0375  0.1466  0.1955
 4678W        W22202  13.373  13.753  14.616  0.2102  0.0303 -0.1265
 4679W        W22203  10.960  13.425  15.676 -0.1506 -0.0202  0.1431
 4680W        W22204   9.838   3.078   3.698 -0.4804  0.1570 -0.0443
 4681W        W22205  12.172   5.291  14.954  0.0827 -0.0490 -0.2072
 4682W        W22206  12.699   7.320   2.739 -0.0940  0.0834 -0.0808
 4683W        W22207   5.535   0.201   4.649  0.1157 -0.1998  0.2356
 4684W        W22208   2.692   8.784  14.921 -0.1389 -0.3179  0.0807
 4685W        W22209  15.519  14.201   4.457  0.0473  0.0700  0.1539
 4686W        W22210   6.682   1.130  17.169 -0.0185  0.2296 -0.1227
 4687W        W22211  13.959   3.480  12.874 -0.0811 -0.0650 -0.0715
 4688W        W22212  12.086   6.005   0.738 -0.1667  0.0924  0.0353
 4689W        W22213  14.105  10.425  11.704 -0.1642 -0.0814  0.3031
 4690W        W22214   6.494   7.921  11.641 -0.0676 -0.0843 -0.3854
 4691W        W22215  10.847   3.127  15.858  0.0360 -0.3112  0.1269
 4692W        W22216   8.072  17.140  17.236 -0.1332 -0.2633  0.0478
 4693W        W22217  12.290   8.216  12.288  0.0724 -0.1290 -0.0641
 4694W        W22218   7.485  12.991   0.401  0.3160  0.0005 -0.2657
 4695W        W22219  10.457  14.972   2.962 -0.5678 -0.1025 -0.0193
 4696W        W22220   6.902   8.470  16.607  0.2603 -0.1610 -0.1297
 4697W        W22221  15.722   0.061   1.804 -0.0371 -0.0165  0.0585
 4698W        W22222  14.160  12.140  12.993  0.0458 -0.3257 -0.1477
 4699W        W22223   9.960  16.054   0.767  0.0519 -0.2489  0.1817
 4700W        W22224   9.481   4.357  16.494 -0.0660 -0.0195  0.1036
 4701W        W22225  14.979  10.759  16.264 -0.2058 -0.2359  0.2625
 4702W        W22226   9.393   1.690  17.564  0.0864 -0.2069  0.0400
 4703W        W22227   6.118   1.416   4.494  0.1423  0.0351  0.2787
 4704W        W22228  15.320   2.217  17.293 -0.0007 -0.0663  0.0237
 4705W        W22229  16.403   2.881   1.721  0.0661  0.0593  0.0729
 4706W        W22230  16.018   3.844   3.560 -0.0888 -0.0859 -0.1060
 4707W        W22231  15.934   4.999  13.558  0.2671  0.2059  0.1403
 4708W        W22232  13.900  10.397  12.666  0.1408  0.0244  0.1503
 4709W        W22233  12.763   6.826  15.840 -0.0891 -0.1504  0.1954
 4710W        W22234  10.476   7.233  16.620 -0.0090  0.2434 -0.0170
 4711W        W22235  15.246   5.327   0.496 -0.2550  0.1370  0.0583
 4712W        W22236  14.674  14.686   1.660  0.0203  0.1141  0.1627
 4713W        W22237   3.351   4.264   2.897  0.0497 -0.0897 -0.1359
 4714W        W22238   3.920   5.198   1.451  0.0276  0.2182  0.0651
 4715W        W22239  10.567   8.329   2.632  0.2666  0.0504  0.0065
 4716W        W22240   8.785   5.144   1.518  0.0150  0.0726 -0.2470
 4717W        W22241  10.873   2.095   5.823  0.0998 -0.0370 -0.1426
 4718W        W22242   7.549   9.743  16.217 -0.1153  0.1806 -0.1683
 4719W        W22243  17.167  15.175  12.652  0.2972 -0.1447  0.1146
 4720W        W22244   2.322  15.971   4.051 -0.2023  0.0190 -0.2680
 4721W        W22245   5.275  11.744   2.542 -0.0234 -0.1454 -0.3575
 4722W        W22246   5.649   3.768   3.840 -0.1533  0.3183 -0.0215
 4723W        W22247   1.690   3.987  17.502  0.0409 -0.0644 -0.1792
 4724W        W22248   6.210   5.123   1.220 -0.0039  0.0729  0.0077
 4725W        W22249   1.018   0.824   3.167  0.3542  0.0096 -0.1062
 4726W        W22250   7.529   4.656   3.633  0.0565 -0.0810 -0.2901
 4727W        W22251  13.698   1.187   3.042  0.2859 -0.4418 -0.1192
 4728W        W22252   3.842   1.985  16.473  0.0032 -0.1949 -0.0269
 4729W        W22253   1.320  13.799   4.924  0.1646  0.1754 -0.1029
 4730W        W22254  13.151   7.235   1.519 -0.0581  0.2266 -0.3311
 4731W        W22255   1.785   3.579  16.697 -0.1111  0.0336 -0.0685
 4732W        W22256   7.540   4.156  13.284  0.4403 -0.0278  0.1471
 4733W        W22257  10.506  12.798  17.381  0.0904  0.2844 -0.0736
 4734W        W22258   4.396   9.939  13.911 -0.0146 -0.3023 -0.0198
 4735W        W22259  17.212   8.309   4.419 -0.3236  0.2750  0.1383
 4736W        W22260  16.453  16.107   1.879  0.1775 -0.1464 -0.1095
 4737W        W22261   1.719   8.942  14.976  0.0907  0.2590  0.0996
 4738W        W22262   0.839  13.936   3.740 -0.0058  0.0602 -0.0668
 4739W        W22263   5.707  11.291  15.819  0.1677  0.3183  0.1790
 4740W        W22264   3.615   0.494   5.493 -0.2069 -0.1603  0.1569
 4741W        W22265   2.791   7.011  15.423 -0.1821  0.0824  0.6603
 4742W        W22266  10.863  13.679  15.221  0.0744 -0.3263  0.4703
 4743W        W22267   4.451   2.389  16.922 -0.4104  0.2099 -0.0416
 4744W        W22268  15.668  11.947   0.498 -0.0034 -0.2387  0.1282
 4745W        W22269  12.727   7.151   5.508 -0.5533 -0.2265  0.3270
 4746W        W22270  10.647  16.971  17.519  0.1167  0.0105  0.1149
 4747W        W22271   8.985   0.272  17.383 -0.4631  0.1432  0.2322
 4748W        W22272   4.555   7.965  16.778 -0.3539  0.0092 -0.1041
 4749W        W22273   9.557  15.793  12.801 -0.2574  0.0602 -0.0461
 4750W        W22274   2.593   7.421   0.610 -0.1072  0.0068  0.1072
 4751W        W22275  11.425   5.780  15.387 -0.0283 -0.2157 -0.1374
 4752W        W22276   0.352  12.246  12.294 -0.1458 -0.0389 -0.1251
 4753W        W22277   6.330  17.152  15.314 -0.2713  0.0030 -0.0463
 4754W        W22278  14.647  14.254  15.973  0.0431  0.2448  0.4028
 4755W        W22279   3.184  13.080   0.899 -0.1683 -0.0195 -0.1480
 4756W        W22280  13.119  13.723   5.283  0.0280 -0.2636  0.4910
 4757W        W22281   7.562  15.151  14.596 -0.0296 -0.0642 -0.1526
 4758W        W22282  15.639  11.208   1.902 -0.1216  0.0184  0.1099
 4759W        W22283   8.183  10.327  16.117 -0.1538 -0.1024 -0.0352
 4760W        W22284   4.350   1.555  13.910 -0.1186  0.2005 -0.2039
 4761W        W22285   7.091   4.367  13.733 -0.3387  0.1715 -0.1934
 4762W        W22286   2.249   4.426   1.331  0.4000 -0.1410  0.0217
 4763W        W22287  14.920   5.490   4.149  0.0929 -0.2457  0.0884
 4764W        W22288   5.517   6.802  17.194 -0.0979  0.2971  0.0982
 4765W        W22289   7.948   4.325  14.113 -0.0023 -0.1559 -0.3473
 4766W        W22290  12.344  15.679  13.437 -0.0655  0.1998 -0.2750
 4767W        W22291  16.639   2.351  12.651 -0.0813 -0.0204 -0.0079
 4768W        W22292   6.542  12.172  12.681  0.0470 -0.1594 -0.3250
 4769W        W22293   8.422   6.581  12.069  0.0588 -0.2744 -0.1643
 4770W        W22294   6.491  11.905  13.660 -0.3623 -0.4362  0.2893
 4771W        W22295  16.953   3.315   0.964 -0.1948 -0.0404 -0.1269
 4772W        W22296   8.208   8.790  13.733  0.2000 -0.0753  0.3470
 4773W        W22297   5.093  16.264   4.072  0.1480  0.1116  0.0864
 4774W        W22298   2.365   6.912   6.433 -0.2031 -0.2369  0.2589
 4775W        W22299   4.442  10.523   1.129  0.2495 -0.2198 -0.1144
 4776W        W22300  12.955   2.318  13.487 -0.0404  0.0752 -0.1344
 4777W        W22301  11.485   3.191   4.777 -0.1517 -0.2860 -0.2745
 4778W        W22302   4.348  15.629  16.212 -0.1245  0.0285  0.1771
 4779W        W22303   3.718  10.503   3.773  0.0443  0.2180 -0.1776
 4780W        W22304   1.194  16.987   2.869 -0.2275  0.1997  0.0187
 4781W        W22305  14.277   8.571  14.671  0.5052 -0.0116  0.2537
 4782W        W22306  11.136   4.157  16.942  0.0349  0.1458 -0.1238
 4783W        W22307  15.916   4.146   3.967 -0.0185  0.0531  0.1390
 4784W        W22308   2.715   6.158  13.591  0.1962 -0.0039  0.3928
 4785W        W22309   8.499   3.372   4.046 -0.1218 -0.0820  0.1519
 4786W        W22310  12.399   5.183   4.255  0.2049 -0.1905 -0.2257
 4787W        W22311  16.257   3.073  15.495 -0.1726  0.0460 -0.0247
 4788W        W22312  15.073   6.991   3.905  0.0877 -0.1613  0.1510
 4789W        W22313   7.445   5.829   4.175  0.2894 -0.2662  0.0046
 4790W        W22314  13.330  17.022   1.549  0.2130  0.0185  0.3237
 4791W        W22315   0.886   0.369   3.951 -0.1509  0.0222 -0.0865
 4792W        W22316   3.587   5.059   3.282 -0.0470 -0.0756  0.0874
 4793W        W22317   0.633   0.898  12.786  0.0940 -0.1319 -0.2599
 4794W        W22318   6.701   2.947   3.104 -0.0867 -0.0440 -0.0511
 4795W        W22319   4.419   7.469  13.993 -0.0310 -0.1835  0.2134
 4796W        W22320  11.282  15.966   5.441 -0.0348 -0.2761  0.0117
 4797W        W22321  12.802  10.261  14.635  0.1201  0.0512  0.2167
 4798W        W22322   1.599   7.380  11.991 -0.1604  0.1497 -0.1129
 4799W        W22323  14.995   4.091   3.763  0.0136  0.1805  0.0865
 4800W        W22324  15.729  14.549   4.805  0.0139 -0.2712 -0.0875
 4801W        W22325   2.748   7.925   3.788  0.0333  0.2336  0.1419
 4802W        W22326   6.963   6.218  14.654 -0.1265 -0.0733  0.0375
 4803W        W22327  11.834   5.561  13.521 -0.0170  0.1622 -0.0518
 4804W        W22328  13.946   6.931  11.932 -0.1162 -0.1170  0.2610
 4805W        W22329  15.343  13.939  16.047  0.1113  0.3899 -0.2917
 4806W        W22330  13.371  10.891   0.797 -0.1728  0.3072 -0.2172
 4807W        W22331   2.628   6.142  15.165 -0.1977  0.3495 -0.0817
 4808W        W22332  14.070  11.918   3.555 -0.0337 -0.4295 -0.0458
 4809W        W22333   2.432   2.710   2.486 -0.2686 -0.0965 -0.1776
 4810W        W22334   1.836   3.809   3.780 -0.3600 -0.1050 -0.0362
 4811W        W22335   8.566  13.312  14.784 -0.3413  0.2112 -0.0826
 4812W        W22336   0.835   3.218  16.004 -0.2061 -0.2231 -0.0106
 4813W        W22337  15.060  15.474   4.733  0.0908 -0.2578 -0.4324
 4814W        W22338   5.972   8.852  17.403  0.2561  0.0653 -0.0835
 4815W        W22339   1.702  12.940   3.243 -0.1302  0.4163 -0.1488
 4816W        W22340   9.885   8.077  11.291  0.1086  0.1852 -0.3516
 4817W        W22341   0.024   3.696   0.980 -0.0394 -0.1212  0.1330
 4818W        W22342   3.947   9.489  12.641 -0.1860 -0.1917  0.0137
 4819W        W22343   1.315   8.798   5.210 -0.3837 -0.0063 -0.1959
 4820W        W22344  16.352  16.427  13.008  0.0819  0.1557 -0.0343
 4821W        W22345  12.596   7.631   3.574 -0.0003 -0.3292  0.3087
 4822W        W22346   8.448  10.760   5.671  0.3974  0.1250 -0.0445
 4823W        W22347  11.191  12.069   3.458 -0.0380  0.2015  0.2056
 4824W        W22348   7.111   4.717   0.476  0.1486 -0.1691  0.3310
 4825W        W22349  15.258   9.676  12.462  0.1140  0.0644  0.2870
 4826W        W22350  10.671   6.269   5.967  0.1695  0.3169  0.2150
 4827W        W22351   3.011   0.913   2.282  0.0513  0.3782  0.1848
 4828W        W22352  16.058   7.255   0.621  0.2816  0.2312 -0.1092
 4829W        W22353   3.490  14.266   1.405 -0.0840  0.0518 -0.0170
 4830W        W22354  14.626   7.456  12.206 -0.1251 -0.2357  0.2306
 4831W        W22355   7.155   8.080  14.523 -0.3543 -0.0873 -0.1159
 4832W        W22356  16.910  16.564   4.634  0.0227 -0.0441 -0.0206
 4833W        W22357   0.390   7.117  14.057  0.1037  0.1125 -0.0296
 4834W        W22358   9.697  10.458  17.158 -0.0625 -0.2384  0.0014
 4835W        W22359   3.247   8.394   1.993  0.5762  0.1425  0.1456
 4836W        W22360   3.158   5.181  15.570 -0.0287 -0.0303 -0.1084
 4837W        W22361  10.690  13.358  13.856  0.0104 -0.0265 -0.1582
 4838W        W22362   0.801   6.573   4.948  0.0355 -0.2611  0.0663
 4839W        W22363   9.664   1.923   4.696  0.1377  0.3024 -0.1969
 4840W        W22364   0.431  12.298  16.608  0.2023  0.4497  0.2573
 4841W        W22365  10.606  13.656  16.143  0.1359 -0.1079 -0.3192
 4842W        W22366   7.280   7.144  17.447 -0.0927 -0.0735 -0.0917
 4843W        W22367   6.806   2.600   0.030 -0.0718 -0.0183  0.0693
 4844W        W22368  12.194   2.975   3.648  0.0437  0.0179 -0.0870
 4845W        W22369   4.609   9.995  13.279  0.0922  0.1051 -0.0836
 4846W        W22370  17.044  13.040  12.058  0.1015 -0.1727  0.1936
 4847W        W22371   3.355   2.732   1.248  0.0222 -0.0436  0.3230
 4848W        W22372  11.339  14.160   4.383 -0.1970 -0.1111  0.0516
 4849W        W22373   9.945   8.022   5.472 -0.2837  0.1224  0.0690
 4850W        W22374   4.805   1.420   4.982 -0.0239  0.3789  0.1516
 4851W        W22375   3.130   0.247   1.550 -0.0290 -0.1016 -0.1645
 4852W        W22376  10.066   7.581  16.344 -0.0151 -0.0631 -0.2501
 4853W        W22377   9.560  12.434  13.602 -0.1802  0.1222 -0.1992
 4854W        W22378  13.820   2.977   1.300  0.2719 -0.0553  0.2206
 4855W        W22379  10.461   0.142   0.244 -0.0553 -0.0572 -0.1404
 4856W        W22380   1.559   9.045   3.961  0.0512 -0.1895 -0.0327
 4857W        W22381   2.513   1.902   0.509  0.2410  0.4537  0.0689
 4858W        W22382  13.570  10.285   0.261  0.0930 -0.0490  0.0773
 4859W        W22383   2.633  12.582   3.443  0.0759  0.5113 -0.3935
 4860W        W22384   9.607  15.237   1.612 -0.0017 -0.0211 -0.1398
 4861W        W22385   4.644  16.777  15.167 -0.2205  0.0837  0.0718
 4862W        W22386  11.507   0.857   2.844  0.2431 -0.3452 -0.1437
 4863W        W22387   1.413  14.233   4.841 -0.1037  0.1037 -0.1521
 4864W        W22388  15.813  10.828  16.530 -0.1841 -0.2120 -0.1303
 4865W        W22389   5.659   4.191  13.945  0.1590 -0.1717  0.2233
 4866W        W22390   8.379   8.599   3.291 -0.1617  0.1978 -0.1540
 4867W        W22391  14.603  15.837   3.834 -0.1367 -0.0480  0.1795
 4868W        W22392   9.509   3.828   5.113  0.2621  0.0006  0.0830
 4869W        W22393   8.796   4.456  17.454  0.3392  0.1864  0.1316
 4870W        W22394  12.843   6.764   1.750 -0.0812 -0.0007 -0.1576
 4871W        W22395   3.098  10.960  17.418 -0.1904  0.0153 -0.2149
 4872W        W22396   2.551   3.695  15.124 -0.3080 -0.0655 -0.1930
 4873W        W22397   0.057  14.055   1.479 -0.2756 -0.0155  0.1445
 4874W        W22398  15.167  13.866   0.716  0.1275 -0.0548 -0.2342
 4875W        W22399   4.236   5.476  15.081  0.2652  0.0298  0.1454
 4876W        W22400   8.823   2.217  11.808  0.5307 -0.1142 -0.1286
 4877W        W22401  11.341   4.572  14.135  0.1954  0.1020 -0.0585
 4878W        W22402   7.385   4.562   0.933 -0.0600 -0.2103 -0.1487
 4879W        W22403   2.659  16.733  17.394  0.0304 -0.1564  0.0962
 4880W        W22404  15.795   2.318  12.222 -0.1312 -0.1874 -0.3182
 4881W        W22405  10.695   7.502   4.279  0.1198  0.1771 -0.1846
 4882W        W22406   4.973   3.093   2.646  0.2501 -0.0053  0.0386
 4883W        W22407   0.022  13.606  16.014 -0.2292  0.0196 -0.2882
 4884W        W22408  10.808   4.724  14.061  0.1365 -0.0732  0.1340
 4885W        W22409  14.813  13.438   1.655  0.0313  0.0862 -0.1713
 4886W        W22410   6.198   3.419   1.139  0.0787 -0.1002  0.1554
 4887W        W22411  13.193   8.274   3.461 -0.0418  0.1270 -0.1393
 4888W        W22412  10.299   3.275   3.499 -0.2367 -0.4757 -0.1816
 4889W        W22413  13.451  12.527   5.087 -0.0336 -0.0225  0.1050
 4890W        W22414   5.455   2.538  12.933 -0.0142 -0.2329  0.1270
 4891W        W22415   2.313   5.725  13.805 -0.1622 -0.0076 -0.0014
 4892W        W22416   6.522  11.538   2.675 -0.0700  0.1066 -0.2929
 4893W        W22417   8.919   2.994   1.216 -0.0638 -0.2624  0.0491
 4894W        W22418  11.178  16.745   0.627 -0.1027  0.0796 -0.0260
 4895W        W22419   9.596   1.971  15.229 -0.0406 -0.0068  0.1123
 4896W        W22420   1.844   3.490  12.751  0.2786  0.0093 -0.0293
 4897W        W22421   4.522   2.890  14.683 -0.1880 -0.4632 -0.0480
 4898W        W22422  14.243   9.260  17.447  0.1414  0.2006 -0.0724
 4899W        W22423   6.995   5.389  16.894  0.0708 -0.3401  0.1377
 4900W        W22424  14.353   0.783   2.314 -0.1285 -0.1904  0.1502
 4901W        W22425  11.575   3.814  12.874 -0.0926  0.0136 -0.1132
 4902W        W22426  10.577  16.063  12.783 -0.2388  0.0208 -0.0794
 4903W        W22427   0.348  16.075  16.339 -0.0644 -0.0811  0.1269
 4904W        W22428   2.904  10.509   1.996 -0.1073  0.1059 -0.2469
 4905W        W22429   5.091   4.002   5.625  0.0375 -0.0490 -0.0497
 4906W        W22430  11.636   4.009   4.357  0.1592 -0.0253 -0.0718
 4907W        W22431  10.737   9.995   3.870 -0.0176  0.1164  0.2773
 4908W        W22432   7.006  12.015   4.608 -0.1951 -0.1344 -0.0625
 4909W        W22433   7.183   2.399  12.494  0.1573 -0.2611 -0.0469
 4910W        W22434   0.359  12.519  14.856  0.3712  0.0025 -0.2125
 4911W        W22435  12.763   8.214   3.862 -0.2806  0.0234  0.1398
 4912W        W22436   2.056  11.963   4.115 -0.3004  0.0537  0.1194
 4913W        W22437   0.952   5.055   3.892 -0.4138 -0.1249 -0.0022
 4914W        W22438   2.134   0.775  15.518 -0.2318  0.1478  0.1786
 4915W        W22439   7.060  10.352   0.285 -0.0934  0.0916  0.0013
 4916W        W22440  11.196   7.981   0.516  0.0742  0.0090  0.0414
 4917W        W22441   9.837  14.329   0.219 -0.2062  0.2303  0.1496
 4918W        W22442   2.604  11.464   4.833 -0.1285 -0.2890 -0.0308
 4919W        W22443  16.409   3.822  12.552  0.0370  0.4191  0.0724
 4920W        W22444  14.941  13.418  13.749 -0.0212  0.1788 -0.2486
 4921W        W22445   2.804  15.225  15.827  0.0250 -0.0323 -0.2449
 4922W        W22446  16.253  12.951   5.124  0.1014 -0.0102  0.3147
 4923W        W22447  16.758   3.879  15.524 -0.2093  0.0608  0.0097
 4924W        W22448   1.200  14.333   2.365  0.0827 -0.2934  0.1031
 4925W        W22449   4.461   9.632   3.364  0.3100 -0.0206  0.2404
 4926W        W22450   8.905   2.111  14.963 -0.2305 -0.1023  0.0528
 4927W        W22451  12.270  13.993  15.228 -0.2438  0.0689  0.3508
 4928W        W22452   4.414   7.770   5.408  0.2349  0.0260 -0.1684
 4929W        W22453  13.700  13.144  16.857  0.2092 -0.0804  0.2087
 4930W        W22454  11.017   7.001   1.865  0.1509 -0.0135  0.0818
 4931W        W22455   8.889  14.274  15.139  0.1969  0.1195 -0.0904
 4932W        W22456   5.806  10.749   5.619 -0.0279  0.3493  0.0793
 4933W        W22457  10.591  16.077   3.818  0.1006 -0.1014 -0.1102
 4934W        W22458  13.541   9.325  14.152 -0.1253 -0.2652  0.0508
 4935W        W22459   6.858   0.844   0.088 -0.0618 -0.4020 -0.1195
 4936W        W22460   2.044   4.742  13.597  0.0575 -0.0438  0.3281
 4937W        W22461   4.996   9.928   5.262  0.2560  0.0732 -0.0246
 4938W        W22462  16.579  12.326  11.577 -0.1966  0.2708  0.2621
 4939W        W22463   5.176   2.821   4.562  0.0210  0.1211 -0.0243
 4940W        W22464  15.407   0.724  14.673 -0.2937 -0.1046 -0.1418
 4941W        W22465   8.002  14.275   1.804 -0.3210  0.1884 -0.2427
 4942W        W22466  11.856  16.825  13.285 -0.0960  0.3136 -0.0431
 4943W        W22467   1.753  13.391  15.738  0.1077  0.1680  0.4026
 4944W        W22468   1.574  11.503   2.347  0.0366 -0.1430  0.0212
 4945W        W22469   1.749   4.700  15.651 -0.1151  0.0995  0.0223
 4946W        W22470   4.976   2.327  13.028 -0.2509  0.0260  0.2874
 4947W        W22471   4.582   8.287  16.406 -0.0019  0.2912 -0.0704
 4948W        W22472  15.424   4.563  12.992  0.3438  0.0401 -0.1919
 4949W        W22473  13.947   3.498  17.173  0.0619 -0.2293 -0.1998
 4950W        W22474  11.407  16.951   1.052  0.1189  0.1355 -0.1435
 4951W        W22475   9.713   9.238   1.476  0.1062  0.2581 -0.0249
 4952W        W22476   8.547   3.937   4.860  0.0286  0.1480 -0.3336
 4953W        W22477  13.817   3.299  15.610  0.0146  0.4324 -0.2640
 4954W        W22478   1.179   9.372  13.673  0.3059  0.0390 -0.1303
 4955W        W22479   0.268   0.304   0.086  0.0869  0.1925  0.3425
 4956W        W22480  16.308  12.950   0.161 -0.0636 -0.1536  0.0716
 4957W        W22481   9.356  10.930   2.681 -0.1646 -0.0227 -0.1269
 4958W        W22482   4.365  11.302   4.020 -0.3078 -0.0390 -0.0900
 4959W        W22483  14.714   3.900   3.370 -0.0789  0.0565 -0.2941
 4960W        W22484  10.755   3.468   1.832  0.2657 -0.1168 -0.5380
 4961W        W22485   6.431   0.530   1.107 -0.0768  0.1892  0.0919
 4962W        W22486  15.567  15.817   4.039  0.0152  0.1428  0.1157
 4963W        W22487   5.839  17.074  15.199 -0.0421  0.0869  0.1376
 4964W        W22488   9.120   0.461   2.134  0.1626  0.0416 -0.1606
 4965W        W22489   9.379   0.347  16.038 -0.0892  0.0120 -0.0650
 4966W        W22490   3.763   1.024  14.102  0.0617 -0.0562 -0.1395
 4967W        W22491   5.020   8.810   0.084 -0.0249 -0.0912  0.1986
 4968W        W22492   4.885   6.276  13.054 -0.0720  0.0787  0.0833
 4969W        W22493   3.521   5.263  17.326  0.0649 -0.1619  0.1088
 4970W        W22494   5.502  12.659   0.116  0.1450  0.0888  0.0429
 4971W        W22495  10.674  16.497  17.286  0.1664 -0.2910  0.0622
 4972W        W22496  10.806   2.464  14.528 -0.0565  0.2052  0.2298
 4973W        W22497   1.045   7.682  13.126  0.1870  0.1227  0.0600
 4974W        W22498  13.052  10.530  11.328 -0.5409  0.0144  0.0652
 4975W        W22499   3.624  10.991  17.429  0.0083  0.1564 -0.4043
 4976W        W22500   3.838  11.097  17.022  0.3099 -0.2088 -0.4290
 4977W        W22501   5.259  15.110  16.418 -0.3025 -0.0352 -0.0345
 4978W        W22502  16.017   1.588  16.231 -0.3221  0.1110  0.2713
 4979W        W22503  14.381  12.260   0.452 -0.2234 -0.3561 -0.1959
 4980W        W22504  13.992  11.822   2.001 -0.1213 -0.0456  0.1552
 4981W        W22505   4.086  12.406   2.728  0.1621 -0.1376 -0.0015
 4982W        W22506  10.222  13.157   5.060 -0.0187 -0.0833  0.1523
 4983W        W22507   5.420   2.658   3.805 -0.1267  0.0451 -0.3864
 4984W        W22508  13.525   7.532   2.501  0.0417  0.0768  0.1272
 4985W        W22509   9.807  11.048   1.663 -0.1224  0.1229  0.3205
 4986W        W22510  12.312  11.324  14.518  0.0291  0.1630  0.2118
 4987W        W22511   2.370  11.729   3.615  0.0944 -0.3732 -0.1183
 4988W        W22512   1.657   6.220  12.508  0.0743 -0.1560 -0.0651
 4989W        W22513  10.145  12.280   0.235  0.1017 -0.4999 -0.1082
 4990W        W22514   0.992  16.706  15.642  0.2215  0.2195  0.0550
 4991W        W22515   4.608   0.702  14.330  0.1303  0.0254 -0.0264
 4992W        W22516  11.083  10.247   2.261 -0.1012 -0.0918 -0.0934
 4993W        W22517   4.347  14.961  13.993  0.0970  0.0812  0.5790
 4994W        W22518   6.627  11.109   2.418  0.1618  0.0204  0.0985
 4995W        W22519  14.320  11.753   1.008 -0.1515 -0.2390  0.0740
 4996W        W22520  11.580   8.065  14.075 -0.0093 -0.1419  0.0475
 4997W        W22521   4.936   7.488   5.223 -0.0488  0.0072 -0.2784
 4998W        W22522  11.378   6.511   3.758  0.5329  0.1777 -0.1109
 4999W        W22523  12.428  11.538   1.297 -0.1354  0.3353  0.0168
 5000W        W22524   3.270   9.318   1.219 -0.2043 -0.0752  0.3810
 5001W        W22525   7.378   1.969   2.725  0.0293  0.2013 -0.0314
 5002W        W22526   8.026   6.150  12.988  0.0154  0.2235  0.0020
 5003W        W22527  10.406   2.428   1.166 -0.0670 -0.0229 -0.0754
 5004W        W22528   0.584   6.329  12.526  0.1135 -0.0052 -0.1749
 5005W        W22529   8.135  12.411  14.563 -0.2119  0.2074 -0.1827
 5006W        W22530  16.326  15.328   2.704 -0.4752  0.0861 -0.2424
 5007W        W22531   2.530  16.007   6.381  0.2839 -0.0983  0.0199
 5008W        W22532   8.618   8.624   1.399  0.4221  0.3297 -0.0938
 5009W        W22533   3.965   1.531   4.639  0.0995  0.0198 -0.2755
 5010W        W22534  14.128  12.369  16.724 -0.2439  0.0298  0.2759
 5011W        W22535  10.816   6.795  15.056 -0.2219 -0.1198 -0.2135
 5012W        W22536   2.390  15.208   6.727 -0.0559 -0.2127 -0.0239
 5013W        W22537  10.730  17.063   5.714  0.0303  0.0240 -0.0488
 5014W        W22538   3.002   3.284  15.246 -0.0832  0.1556 -0.0056
 5015W        W22539   5.631  14.691   0.016 -0.2415 -0.1725  0.0417
 5016W        W22540  16.727   9.052  12.151  0.1241  0.0686 -0.1081
 5017W        W22541  12.095   8.599   0.023  0.1773 -0.2376 -0.4481
 5018W        W22542   7.201  12.743   1.533  0.3251  0.1612  0.2214
 5019W        W22543   6.294   6.720  14.859 -0.0923 -0.3708  0.1716
 5020W        W22544  11.484   0.033  16.304  0.1732  0.0113  0.0219
 5021W        W22545  16.720   3.586  17.421 -0.1239  0.1537  0.0381
 5022W        W22546   2.477   9.362   0.949 -0.4538 -0.0261  0.1698
 5023W        W22547  15.637   4.372   4.966  0.3501  0.2578 -0.2943
 5024W        W22548   4.268   6.297   0.041  0.2502 -0.5685 -0.1507
 5025W        W22549  16.093   8.100   0.215 -0.3769 -0.0660  0.0039
 5026W        W22550  10.940   1.252   4.716 -0.3024 -0.1020 -0.0159
 5027W        W22551  16.130   3.113   2.575  0.1894  0.2600  0.1199
 5028W        W22552  11.639   8.793  11.973  0.3623  0.0783 -0.0157
 5029W        W22553  16.280   5.823  15.720 -0.2322  0.0734 -0.0415
 5030W        W22554   2.897   7.836  11.811 -0.2510 -0.0848 -0.0772
 5031W        W22555  12.084  10.363  11.338  0.1468 -0.2630  0.0585
 5032W        W22556   7.667  13.530   0.291 -0.2656  0.0025 -0.0418
 5033W        W22557   5.163   5.114   2.859 -0.0715  0.0946  0.0315
 5034W        W22558  11.882   4.498  14.013 -0.4863  0.2396  0.0936
 5035W        W22559   0.249   9.113   3.677 -0.1435  0.0447 -0.2330
 5036W        W22560   5.978  13.475  12.550  0.1969  0.0601  0.0436
 5037W        W22561  16.095   8.173   0.836  0.0866  0.0960 -0.1121
 5038W        W22562   4.753   0.593  13.281 -0.1303  0.2846  0.0527
 5039W        W22563  13.947  12.045   0.147  0.0886 -0.1437  0.1402
 5040W        W22564  13.753  14.519   2.774 -0.4231 -0.1811  0.0963
 5041W        W22565   0.354  10.929   3.625 -0.0933  0.0671 -0.2230
 5042W        W22566  16.802   9.080  13.396  0.1202  0.1753  0.0320
 5043W        W22567  10.198   5.342  13.550  0.0897  0.2282  0.4840
 5044W        W22568  14.010   4.227  12.443 -0.1044  0.2630  0.1293
 5045W        W22569  14.068   5.323   3.214 -0.0829 -0.3683 -0.0798
 5046W        W22570  10.885  16.387  15.730 -0.2940 -0.0771  0.0628
 5047W        W22571   4.888   2.597  17.200 -0.0640  0.3538 -0.1710
 5048W        W22572   6.428  12.940   2.883 -0.3010 -0.2146  0.2252
 5049W        W22573   5.459   5.497  14.123  0.2563  0.0381 -0.0690
 5050W        W22574  14.514   1.033  14.277  0.3576  0.0969 -0.1043
 5051W        W22575   7.572  11.208   0.010 -0.0878 -0.1080  0.0112
 5052W        W22576   6.324   6.557   3.057 -0.0439 -0.1816  0.0650
 5053W        W22577   0.515  10.701   0.695 -0.1469  0.0754 -0.0678
 5054W        W22578  10.571  13.081  15.569 -0.0087  0.1181 -0.0787
 5055W        W22579   4.251   5.976  14.305  0.0663  0.0183 -0.2842
 5056W        W22580   4.038   3.648  16.611 -0.3566  0.3829  0.0148
 5057W        W22581  10.439  13.960   6.157 -0.0639 -0.1062  0.1114
 5058W        W22582  14.889   7.870   2.735 -0.0435  0.3365  0.3011
 5059W        W22583   4.437  14.767   3.945 -0.1854  0.0456 -0.1353
 5060W        W22584   7.494  13.824   2.455  0.1016 -0.1216 -0.2242
 5061W        W22585   6.690  11.578  13.339  0.0639  0.0420 -0.0856
 5062W        W22586   7.345   3.408  14.852 -0.0787 -0.1102  0.1854
 5063W        W22587  16.900   8.345  16.732  0.0572 -0.0266 -0.2132
 5064W        W22588  16.194  12.283   5.661  0.0314  0.0101 -0.0162
 5065W        W22589   0.723   6.501   4.452  0.2258  0.0268  0.0877
 5066W        W22590   0.859   5.539   4.323 -0.2555 -0.0356 -0.2028
 5067W        W22591   8.163  12.700  13.779 -0.0554  0.1276  0.1723
 5068W        W22592   0.836   8.547  15.128 -0.0188  0.0786 -0.1680
 5069W        W22593   7.217   0.776   5.488 -0.1762 -0.1429 -0.1362
 5070W        W22594   3.742  12.714  15.528  0.1292 -0.1556  0.0998
 5071W        W22595   1.263   8.134  16.925 -0.0794  0.1413 -0.3713
 5072W        W22596   6.528   4.037   3.329 -0.0137  0.0171  0.2618
 5073W        W22597  14.858   8.007  13.551 -0.0058 -0.3113 -0.2271
 5074W        W22598   0.698   9.843  14.257  0.0893  0.1057 -0.0914
 5075W        W22599   8.176   9.485   3.586  0.2594 -0.0660  0.1734
 5076W        W22600  14.442   8.423   4.802 -0.1245 -0.0379  0.2238
 5077W        W22601  11.559   9.812  13.415 -0.0437 -0.2537  0.0699
 5078W        W22602  11.265   6.763   5.174  0.0022  0.2583 -0.1797
 5079W        W22603  10.436  16.431  16.082 -0.1238  0.2385  0.2527
 5080W        W22604   3.362  12.951   4.414  0.2314 -0.1646 -0.0144
 5081W        W22605  14.224  11.892  14.576  0.0202 -0.1853 -0.0796
 5082W        W22606   1.476   9.597   2.635  0.0236  0.0303 -0.1039
 5083W        W22607   9.283  14.881   0.765 -0.0244  0.2825 -0.0420
 5084W        W22608  13.720  15.456   1.575 -0.3588  0.0778 -0.2489
 5085W        W22609   7.015   3.923  15.858  0.1953  0.0975 -0.3871
 5086W        W22610   3.205  12.215  16.450 -0.2320  0.0917 -0.0075
 5087W        W22611   0.029   1.220  13.995  0.0816 -0.0963  0.0365
 5088W        W22612  16.797   7.875  15.154  0.3574 -0.1134 -0.0338
 5089W        W22613   6.840   6.386  17.621  0.0514  0.1739 -0.0233
 5090W        W22614  15.497  13.570  14.367  0.1218 -0.0577 -0.1428
 5091W        W22615  11.293   6.776   2.562 -0.1498  0.0030  0.1143
 5092W        W22616   8.194  16.354   4.113 -0.0297 -0.2734 -0.0337
 5093W        W22617   7.878  13.230  15.168  0.1636 -0.4762  0.1214
 5094W        W22618   9.103   0.573   4.093 -0.2830  0.0754  0.1271
 5095W        W22619   0.320  10.668  12.420  0.0928 -0.0772  0.1024
 5096W        W22620   2.437   4.833  15.006  0.0293 -0.1376  0.3366
 5097W        W22621  11.798   6.839   6.799 -0.0583  0.0003 -0.1039
 5098W        W22622   4.355   5.743  13.754  0.0824 -0.0040  0.1621
 5099W        W22623   2.644  10.669  14.172 -0.2546 -0.2104  0.2773
 5100W        W22624  12.522   0.988  12.603  0.1342 -0.0241  0.1042
 5101W        W22625   7.074  16.878  16.962  0.0492  0.0515 -0.1983
 5102W        W22626  13.596  12.699  15.892 -0.2885 -0.2381 -0.0803
 5103W        W22627   5.363   8.931   1.681 -0.0737  0.3090 -0.2792
 5104W        W22628  11.973   5.597   3.004  0.0286 -0.0364  0.2557
 5105W        W22629  10.330   0.128   5.992 -0.0240  0.0296 -0.2057
 5106W        W22630   4.283  10.727  14.234  0.0061  0.2327 -0.1409
 5107W        W22631  11.646   8.978   1.390 -0.0496  0.0763 -0.1023
 5108W        W22632   6.140   0.536   5.478 -0.0734 -0.2462  0.3193
 5109W        W22633  15.921   3.907   2.283  0.2364  0.0071  0.0286
 5110W        W22634   7.763  12.583  16.921  0.0036  0.2715 -0.0384
 5111W        W22635  13.075   8.908   1.825 -0.2258 -0.1372  0.1666
 5112W        W22636   0.288   4.697  12.176 -0.0665 -0.0834  0.5291
 5113W        W22637  14.572  16.608   0.663  0.1288  0.2230 -0.1444
 5114W        W22638  12.485   2.811  15.912 -0.0889  0.0916  0.0988
 5115W        W22639   0.575   8.388  14.704 -0.3702 -0.0167 -0.0252
 5116W        W22640   0.239   1.026  16.277  0.0175 -0.0680 -0.2988
 5117W        W22641   6.624   6.317  14.063 -0.0685 -0.1348 -0.1211
 5118W        W22642   9.421   8.809  14.957  0.1217 -0.0638  0.1211
 5119W        W22643  15.150   7.619  13.954  0.0920 -0.0628 -0.0722
 5120W        W22644  16.316   3.908  17.457  0.0774 -0.0619  0.2698
 5121W        W22645  10.251   3.962   5.834 -0.0854 -0.0477 -0.1178
 5122W        W22646  12.574   2.919  14.547 -0.1162 -0.0369  0.0612
 5123W        W22647   8.965   6.497   2.723 -0.0852  0.3806 -0.0796
 5124W        W22648   1.302   2.852   1.746 -0.1334  0.0634  0.0351
 5125W        W22649   2.796   7.563  15.591  0.1706  0.0522  0.3519
 5126W        W22650   1.344  16.081   0.900 -0.0384  0.1973  0.3579
 5127W        W22651  14.401   5.755  16.753 -0.0278  0.0191  0.0090
 5128W        W22652   0.400  11.107   2.030  0.1173  0.2298 -0.0506
 5129W        W22653   4.274  15.780   3.965  0.1220  0.0138 -0.1046
 5130W        W22654   9.007  10.573  15.018  0.2080 -0.2069 -0.1487
 5131W        W22655  10.003  13.283   4.004  0.0316 -0.0014 -0.1468
 5132W        W22656  15.595   8.108  16.516  0.0972  0.0279 -0.3422
 5133W        W22657   1.815   1.256  16.347  0.0307  0.1934 -0.2237
 5134W        W22658  15.295  11.091  15.891  0.0985 -0.2686 -0.1108
 5135W        W22659  15.651   1.104  13.023  0.1157 -0.3085 -0.2647
 5136W        W22660   2.199  16.919   5.102  0.0509  0.0444  0.1179
 5137W        W22661   4.905  12.676  17.204 -0.0660 -0.1903 -0.0965
 5138W        W22662  15.443   1.552  12.251  0.1916  0.1521 -0.0514
 5139W        W22663   9.104   6.212   3.889 -0.0875 -0.0185 -0.2107
 5140W        W22664  10.379  12.735   1.438 -0.0986 -0.0302 -0.3846
 5141W        W22665   9.788  14.543   5.765 -0.1726 -0.0962  0.0902
 5142W        W22666   0.368   5.348  15.065  0.0045  0.0194  0.0255
 5143W        W22667   4.426  12.404   0.709  0.5961  0.0180 -0.1527
 5144W        W22668   9.050   4.516  13.596 -0.3759 -0.4346 -0.1791
 5145W        W22669   0.710  15.460  17.534 -0.1794 -0.2249  0.3512
 5146W        W22670   0.784  13.293   2.649  0.0292  0.0137  0.1395
 5147W        W22671  16.556   9.727   4.681  0.1171  0.0859  0.0528
 5148W        W22672  15.916  10.113   0.313 -0.1044 -0.0185  0.0504
 5149W        W22673   5.260   6.413  16.335  0.0094  0.1616  0.1145
 5150W        W22674  14.187  12.144  16.235 -0.1394 -0.3008  0.0130
 5151W        W22675   3.307  16.843   0.753 -0.0172  0.1437  0.0725
 5152W        W22676   3.594   5.075  16.827 -0.1118  0.1576 -0.0770
 5153W        W22677  15.509   7.802   1.591  0.2560 -0.0926  0.2410
 5154W        W22678   9.731   1.565  12.918 -0.0738 -0.2927  0.3272
 5155W        W22679  10.516   2.023   2.701 -0.0898 -0.0977  0.1579
 5156W        W22680   1.543   5.611  14.957  0.3858  0.5622  0.1781
 5157W        W22681   7.586   8.628  15.260  0.1889 -0.1603  0.1176
 5158W        W22682  13.495   6.990   2.344 -0.0066  0.2529  0.0078
 5159W        W22683  10.747   7.626   3.027 -0.2352  0.4096 -0.0845
 5160W        W22684   5.862   1.009   3.851 -0.0923  0.3135  0.0334
 5161W        W22685   7.496   8.586  15.881  0.0405 -0.1956  0.0260
 5162W        W22686  11.824   7.252   3.893 -0.1180 -0.0353 -0.1342
 5163W        W22687   9.070   1.213   1.099  0.0310  0.0484 -0.1168
 5164W        W22688   1.808   9.140  12.538  0.1314  0.4921  0.0315
 5165W        W22689  12.636  16.841  14.257  0.3180  0.1341  0.0084
 5166W        W22690  15.060  14.371  12.592 -0.1089  0.3407  0.0946
 5167W        W22691   6.639   4.467  14.236  0.0674  0.3361 -0.0764
 5168W        W22692   4.593   3.317   3.323  0.0064  0.2745 -0.0671
 5169W        W22693   7.720   2.227  15.506  0.2810  0.1005  0.6100
 5170W        W22694  11.516  12.826  16.546 -0.1086 -0.0685 -0.2769
 5171W        W22695  15.868   0.218  13.622 -0.0186 -0.1549 -0.0953
 5172W        W22696  10.552   9.727   4.444  0.3163  0.1356  0.0783
 5173W        W22697  10.407  15.274   1.210 -0.0604 -0.0692  0.2056
 5174W        W22698   8.770   1.940   3.688 -0.2324 -0.0325 -0.0447
 5175W        W22699   3.771   9.605  13.175 -0.1976  0.0872  0.1038
 5176W        W22700   0.435  13.224   0.491  0.0710  0.0529  0.0390
 5177W        W22701  12.562  13.743   2.592 -0.0941  0.1770 -0.1405
 5178W        W22702   9.457  10.346   5.616 -0.2581 -0.4183  0.0023
 5179W        W22703   8.748   0.346  15.319 -0.0550  0.0882  0.0676
 5180W        W22704   4.984  16.173   5.295 -0.0695 -0.0540 -0.3392
 5181W        W22705  12.373   4.981  17.041 -0.1944 -0.0541 -0.0334
 5182W        W22706   3.604  11.247  13.218 -0.0744 -0.1171  0.0771
 5183W        W22707  16.600   1.012   2.674 -0.0541  0.0764 -0.3190
 5184W        W22708  15.638   9.424   2.088 -0.1912  0.2999 -0.1898
 5185W        W22709   2.807  15.388   2.542  0.1776 -0.0029 -0.7757
 5186W        W22710  12.079   3.866  16.580  0.3725  0.1557 -0.1578
 5187W        W22711  13.325  10.662  13.975 -0.2389  0.0958 -0.2459
 5188W        W22712  13.987  16.881  12.646 -0.0357  0.3053 -0.0123
 5189W        W22713  15.426  12.989  16.277  0.2099 -0.2440 -0.0162
 5190W        W22714  11.375   4.897   4.316  0.0172 -0.1380 -0.0968
 5191W        W22715   4.412  12.774  13.228  0.3070 -0.3177  0.0970
 5192W        W22716   2.833  16.192   2.026 -0.1357  0.2779  0.0368
 5193W        W22717  15.052   5.007   1.160 -0.2156  0.0618  0.0108
 5194W        W22718   3.683   3.872  16.345  0.2356  0.0227  0.0597
 5195W        W22719   9.311   5.224   0.772 -0.1070  0.1937 -0.0568
 5196W        W22720   9.842   9.649   2.649  0.1143 -0.3158 -0.0514
 5197W        W22721   2.382  11.691  13.292 -0.2220 -0.1599 -0.3658
 5198W        W22722   7.917   0.755   5.590 -0.2189  0.1509  0.2428
 5199W        W22723   5.679   3.691  16.700  0.3413  0.1666  0.0470
 5200W        W22724   8.494   7.694  13.094  0.0018 -0.3265  0.2113
 5201W        W22725  15.137   3.003   3.702 -0.2767 -0.2668 -0.4188
 5202W        W22726   6.418   1.841   2.726 -0.1844  0.0299 -0.1198
 5203W        W22727   3.737   0.634   0.177  0.2011 -0.1458  0.0167
 5204W        W22728  14.809   9.257  16.917  0.0711 -0.2426  0.1926
 5205W        W22729   6.672   4.286   4.194 -0.1060 -0.0032  0.1745
 5206W        W22730   0.759  12.486  14.028 -0.1792 -0.3747 -0.2055
 5207W        W22731  14.885   1.905   6.455 -0.0038  0.0792 -0.1816
 5208W        W22732  13.661  11.159  16.137 -0.1128  0.0233  0.1139
 5209W        W22733  12.786   0.277  14.512 -0.0205  0.0654 -0.0919
 5210W        W22734   9.250  10.014  16.856 -0.0351 -0.0494 -0.0399
 5211W        W22735  12.862  16.435  12.116 -0.0064 -0.2713  0.2051
 5212W        W22736  15.005   5.240  16.921 -0.0124 -0.0636  0.1294
 5213W        W22737   6.632   6.307  15.972 -0.1013 -0.2317 -0.2159
 5214W        W22738  12.121  13.851   4.600  0.0552  0.1108 -0.2536
 5215W        W22739   7.925   0.924   3.636 -0.0326  0.1448 -0.0950
 5216W        W22740   2.420   1.971   1.673  0.3187 -0.1111  0.1580
 5217W        W22741  12.445  16.392   2.219  0.1408 -0.1850 -0.3795
 5218W        W22742  11.645   7.586   4.682 -0.1034  0.2583  0.0639
 5219W        W22743   0.484   9.138   1.520 -0.1433  0.0819 -0.1314
 5220W        W22744  10.755   3.999   5.547  0.2659 -0.0811  0.0706
 5221W        W22745   6.244  10.474  16.781  0.0079 -0.3942 -0.0332
 5222W        W22746  12.283   0.488  12.592 -0.0529 -0.1661 -0.0725
 5223W        W22747  13.495   6.078  16.818  0.4472  0.0090  0.3614
 5224W        W22748   2.659  12.426  15.217 -0.0158 -0.2892 -0.0609
 5225W        W22749  13.694   1.457  16.724  0.1264  0.1097  0.2710
 5226W        W22750   0.881   8.854   1.647 -0.2077  0.3882  0.0249
 5227W        W22751   8.054   7.895   2.569 -0.2333 -0.1502  0.1064
 5228W        W22752   3.655   3.184  12.183  0.0060  0.3794  0.0821
 5229W        W22753  10.514   4.023   1.791 -0.0235  0.0319 -0.0383
 5230W        W22754  13.903   9.417  13.788  0.0214  0.1613  0.1443
 5231W        W22755   9.812  16.991  14.800 -0.1078  0.0942 -0.1495
 5232W        W22756  14.538  10.016  11.626 -0.1112  0.3053 -0.1383
 5233W        W22757   8.247  17.141  14.260  0.0393  0.0700  0.2016
 5234W        W22758  10.213   3.586   1.846  0.3147  0.0354  0.3413
 5235W        W22759  11.113   0.286   2.010 -0.3405 -0.0547 -0.2248
 5236W        W22760  15.192  10.128  12.641 -0.3028  0.0982 -0.0592
 5237W        W22761  13.571   8.796   4.346 -0.2123 -0.2748 -0.0964
 5238W        W22762   7.660  16.296   3.378 -0.2485  0.2367  0.0682
 5239W        W22763   2.113  15.915   4.841  0.2141 -0.1519 -0.1885
 5240W        W22764  14.844   4.817  12.092 -0.0303 -0.2178  0.1098
 5241W        W22765   1.840   5.627  15.988 -0.0512  0.3752  0.1007
 5242W        W22766  11.172  16.605   4.973  0.2386 -0.0988 -0.1638
 5243W        W22767   1.455   2.693   0.204  0.2158 -0.1431 -0.0152
 5244W        W22768   4.545   6.400  13.410 -0.0901 -0.1244  0.0028
 5245W        W22769  16.016   5.269   2.120 -0.0952  0.3390  0.0941
 5246W        W22770   6.995  16.866   2.252  0.0169 -0.1195  0.3372
 5247W        W22771  11.870  12.356   1.198 -0.1070 -0.1544  0.0836
 5248W        W22772   6.290  16.278   2.686 -0.0360 -0.1608 -0.2095
 5249W        W22773  15.070   1.435  16.499  0.2136  0.0292  0.2038
 5250W        W22774  14.700   0.589  17.538  0.2660 -0.0996 -0.1262
 5251W        W22775   3.491   4.190   3.837  0.3122  0.3156  0.1627
 5252W        W22776   5.410  17.222   2.455 -0.1678 -0.0285 -0.1087
 5253W        W22777   3.916  16.486  16.305  0.1316  0.2322  0.2315
 5254W        W22778  10.592   0.237   5.022 -0.0168  0.2070  0.1363
 5255W        W22779   8.146  16.627  16.240 -0.4886 -0.3613  0.3678
 5256W        W22780   1.031   1.209  12.974 -0.1411 -0.2274 -0.3559
 5257W        W22781  11.057   3.101  13.841 -0.1709  0.1309 -0.2005
 5258W        W22782  12.430   3.890  14.200  0.2369 -0.0492 -0.1127
 5259W        W22783   9.171   0.952  15.822 -0.2842  0.0371 -0.0872
 5260W        W22784   6.074  12.568   3.007 -0.1448  0.1610  0.0464
 5261W        W22785  12.756   0.927  15.936  0.0359  0.0414 -0.0369
 5262W        W22786   0.367  13.709  16.750 -0.0714 -0.1505 -0.1040
 5263W        W22787   2.732  16.345  15.202 -0.2209 -0.2730 -0.2239
 5264W        W22788   0.015   4.233   0.020 -0.0119  0.0438 -0.2909
 5265W        W22789   2.208   6.932  17.418  0.3152  0.2168  0.0433
 5266W        W22790  11.587   8.015  13.501 -0.1354 -0.0943 -0.2294
 5267W        W22791   9.863   1.958  13.824 -0.1567 -0.2044 -0.2223
 5268W        W22792  15.629   7.501   3.952  0.1721  0.0089  0.1683
 5269W        W22793  10.011  14.970  13.236 -0.1189 -0.1214 -0.2562
 5270W        W22794   8.609   3.479  16.121  0.2936  0.2244  0.0365
 5271W        W22795   2.791  16.250   0.392 -0.0544 -0.2480  0.1064
 5272W        W22796   2.515   8.389  14.063 -0.0219  0.1193 -0.0452
 5273W        W22797  15.492  14.459  16.742  0.0445  0.1034  0.2071
 5274W        W22798   1.288  15.315  16.125 -0.1302 -0.0718  0.0846
 5275W        W22799  14.079  13.418  12.176  0.0374 -0.0411  0.2292
 5276W        W22800  14.140   1.082  12.758  0.0171  0.1670  0.0135
 5277W        W22801  11.772   6.823   1.165 -0.0003  0.1307 -0.0954
 5278W        W22802   5.943   9.859  15.491 -0.1202 -0.0211 -0.2363
 5279W        W22803  16.672  12.951  15.562  0.1414  0.0880 -0.0447
 5280W        W22804  12.078  12.086   3.729 -0.0779 -0.0725 -0.0219
 5281W        W22805  13.929   3.189  13.862 -0.1177 -0.3631  0.3040
 5282W        W22806  13.756  11.993  12.681 -0.0342 -0.0015 -0.0231
 5283W        W22807  14.161   1.847  12.718 -0.0766  0.2908 -0.2482
 5284W        W22808   8.971  15.023  15.229 -0.0302 -0.0243  0.0000
 5285W        W22809   6.816   5.026   3.189  0.1531 -0.2216 -0.2484
 5286W        W22810  14.573   2.883  14.363 -0.0169 -0.1505 -0.1072
 5287W        W22811   2.981   2.730   6.401 -0.2628  0.0806 -0.0471
 5288W        W22812   3.939  12.401  15.855  0.0714  0.0276  0.0025
 5289W        W22813   5.121  16.618  15.112 -0.1197  0.1100 -0.0211
 5290W        W22814   5.411  17.098  15.992  0.1040  0.1164 -0.0567
 5291W        W22815   4.799  10.075   4.817 -0.3770  0.1400 -0.3426
 5292W        W22816   4.673  16.184   3.202  0.1090 -0.0105  0.3510
 5293W        W22817  11.157   4.884  12.126 -0.2708 -0.1168 -0.0450
 5294W        W22818   0.305   8.082  15.437 -0.2354  0.2342  0.0817
 5295W        W22819   3.224   3.240  15.689 -0.1176 -0.0879 -0.0912
 5296W        W22820   8.468   9.808  15.255  0.0508 -0.2916  0.0380
 5297W        W22821   9.285  12.739   2.601 -0.1531  0.1969 -0.1362
 5298W        W22822  10.599  16.848  15.809 -0.3271  0.1439  0.1147
 5299W        W22823   1.230   8.317   3.139  0.0652 -0.2135  0.2920
 5300W        W22824  10.140   9.179   1.793  0.2514 -0.3488 -0.1131
 5301W        W22825  10.383  10.169  17.321 -0.1982 -0.2443 -0.0301
 5302W        W22826   5.086  10.375   5.556  0.1912 -0.2438 -0.1373
 5303W        W22827  14.584   1.695   2.910 -0.0058 -0.1522  0.3934
 5304W        W22828   2.770   8.639   3.428 -0.0489  0.1020  0.3378
 5305W        W22829   6.414   7.666   3.867 -0.1310 -0.2375  0.0979
 5306W        W22830   6.186   4.341   2.601  0.4929 -0.0875 -0.1791
 5307W        W22831   9.854   4.226   5.073  0.1518  0.0305 -0.2386
 5308W        W22832   4.826   2.141   2.431 -0.1962 -0.0135  0.1896
 5309W        W22833   8.436  15.587  17.633 -0.1095  0.1535  0.2563
 5310W        W22834  10.203   4.354  15.109 -0.1825  0.1253  0.0728
 5311W        W22835  11.483  10.903  13.481  0.2850 -0.0959  0.4291
 5312W        W22836  14.590   7.480   2.613  0.1943  0.0280 -0.1896
 5313W        W22837   3.499   6.090  12.649 -0.1126 -0.0290  0.2341
 5314W        W22838   8.328  13.030  16.264  0.0909 -0.2209  0.0506
 5315W        W22839   4.870  15.304   0.801 -0.1755 -0.0932 -0.0622
 5316W        W22840   3.488   2.914   3.856  0.0802 -0.2934 -0.0696
 5317W        W22841  10.701  14.182  15.105  0.0256  0.0764 -0.0522
 5318W        W22842  15.201   3.870   2.841  0.0081  0.0537 -0.2683
 5319W        W22843   6.753   8.627   2.023 -0.0109 -0.1222 -0.0350
 5320W        W22844   1.034   9.638  17.478 -0.0944 -0.0124 -0.2547
 5321W        W22845   8.212   7.740  15.888  0.1202  0.0039 -0.1003
 5322W        W22846   2.644   2.387   3.813 -0.1488 -0.0529  0.3522
 5323W        W22847   5.399  14.012  15.005  0.1014 -0.0314  0.1301
 5324W        W22848   4.407   6.090   5.023  0.0636  0.0726 -0.1803
 5325W        W22849   0.792  14.998   1.791 -0.1515  0.0527 -0.1945
 5326W        W22850  11.357  11.614  14.218  0.3642  0.1084 -0.0402
 5327W        W22851   6.279   4.642   3.908  0.0075  0.0794  0.0945
 5328W        W22852   4.066  11.135  16.525  0.3684 -0.2186 -0.1956
 5329W        W22853   8.767   8.813   5.234  0.1721  0.2222 -0.0245
 5330W        W22854   9.371  14.087  16.519 -0.2343  0.0882 -0.3269
 5331W        W22855   6.912  12.777   2.739  0.0985 -0.0285  0.1427
 5332W        W22856   5.541   0.004   0.662  0.0814 -0.2018  0.3447
 5333W        W22857  14.652   5.350   1.745 -0.1562 -0.1175 -0.0963
 5334W        W22858   2.562   1.687  15.705  0.2914  0.0332  0.0331
 5335W        W22859   4.539   4.511   2.430 -0.2607  0.1666 -0.2483
 5336W        W22860  12.332  16.369  16.727 -0.0133  0.1353 -0.0181
 5337W        W22861  10.054  15.183   5.129 -0.2254 -0.0290  0.1306
 5338W        W22862  10.956   7.935   3.386  0.0601  0.2824 -0.0183
 5339W        W22863  11.317  13.531  13.375  0.0094  0.2384  0.2113
 5340W        W22864   0.277  16.032  14.329  0.3592  0.2681 -0.0788
 5341W        W22865   2.499  16.286   3.081  0.0661 -0.0532  0.2070
 5342W        W22866   1.776   8.732   2.510  0.0394  0.1046  0.3122
 5343W        W22867  10.923  12.955  17.105  0.0088  0.0265 -0.1963
 5344W        W22868   2.784   5.257  14.991 -0.2635 -0.2617 -0.0398
 5345W        W22869   1.829  15.783  17.134  0.0373  0.2157 -0.0425
 5346W        W22870   5.683  16.889   5.516  0.1809  0.3222  0.0781
 5347W        W22871   5.441   3.795  12.095  0.0914 -0.1824 -0.1047
 5348W        W22872  12.322  14.508   0.877 -0.0982 -0.0520 -0.0005
 5349W        W22873   3.825   5.498   1.831 -0.0038 -0.0222  0.2210
 5350W        W22874  11.149   2.535   5.668 -0.1599  0.0298  0.0425
 5351W        W22875  15.277  14.712  11.065  0.2802 -0.3045  0.1603
 5352W        W22876   4.510  15.800   1.589  0.0441  0.5245  0.3815
 5353W        W22877  12.504   3.227   3.297 -0.1602  0.0661 -0.1181
 5354W        W22878   9.217   4.561   0.065 -0.2468 -0.0681  0.3957
 5355W        W22879   5.461  16.432  15.525  0.4694 -0.0965 -0.0377
 5356W        W22880   0.392   2.094  15.379 -0.0200  0.1811 -0.2144
 5357W        W22881   5.436  12.362   4.885 -0.2422  0.0435  0.2000
 5358W        W22882   7.130  16.231   5.184  0.1562 -0.1903  0.0227
 5359W        W22883  11.265   9.805   1.895 -0.4027  0.1700  0.1584
 5360W        W22884  10.858   7.520  14.389  0.1118 -0.0519 -0.0455
 5361W        W22885  11.587  13.365   5.053 -0.1424 -0.0186 -0.1701
 5362W        W22886  15.122   1.959  15.239 -0.0347  0.0414  0.1390
 5363W        W22887  15.169  15.853  15.497 -0.0388  0.0490 -0.0740
 5364W        W22888  10.428   3.091   3.026 -0.1377 -0.0526  0.3198
 5365W        W22889  12.150  10.483  12.808  0.0397  0.2077  0.1637
 5366W        W22890   7.722  11.425  16.811 -0.3488 -0.0145  0.1829
 5367W        W22891   7.549   2.755  13.182  0.1070 -0.0235  0.0439
 5368W        W22892  12.274   0.340   3.304 -0.0801 -0.0876 -0.2172
 5369W        W22893  16.484   0.667  15.409  0.1933  0.0369  0.1211
 5370W        W22894   4.729   5.805  12.764  0.3530 -0.0679 -0.1776
 5371W        W22895  17.032   1.232  12.936 -0.1688 -0.0061 -0.3772
 5372W        W22896   7.940  12.372  14.082  0.2710 -0.1611 -0.0151
 5373W        W22897   2.877   8.462   5.508  0.1936  0.0175  0.1711
 5374W        W22898  15.972  11.830   4.288 -0.3042 -0.0524 -0.2506
 5375W        W22899   0.442   0.116   3.435 -0.3674 -0.0393 -0.1196
 5376W        W22900   3.026   1.869  13.398 -0.2818 -0.1547 -0.1032
 5377W        W22901   4.064  12.388   1.059 -0.0666  0.1013 -0.0476
 5378W        W22902   9.867  17.008   5.255 -0.1985 -0.1305 -0.2532
 5379W        W22903   2.347   7.785   3.562 -0.1320  0.1857  0.0197
 5380W        W22904   8.625   8.570  16.757 -0.3726 -0.0455 -0.0686
 5381W        W22905   4.545   4.831  13.577 -0.0822 -0.0072 -0.1639
 5382W        W22906  16.182   4.829   1.894  0.0371  0.0298  0.0190
 5383W        W22907   4.864  15.440   2.529  0.2362 -0.0541  0.4608
 5384W        W22908  17.099  14.699  12.437 -0.1381 -0.1922  0.2832
 5385W        W22909   8.013  11.679  17.100 -0.0253 -0.0800  0.0786
 5386W        W22910  12.754  10.883  16.102 -0.1905  0.1898 -0.0657
 5387W        W22911   5.940   1.285   0.008  0.0204  0.0924  0.2175
 5388W        W22912  12.136   3.819   1.117 -0.2442  0.2366 -0.1203
 5389W        W22913  16.588   4.499   4.948 -0.0214  0.0182 -0.1433
 5390W        W22914   8.347  12.060  12.386 -0.1851 -0.1958 -0.2492
 5391W        W22915  16.061  10.276   5.291 -0.1899 -0.1340  0.1608
 5392W        W22916   7.749   2.066  15.023  0.0918 -0.3377 -0.2720
 5393W        W22917   4.376   4.475   3.069 -0.3584  0.0526  0.1603
 5394W        W22918  16.469   6.317  14.638  0.0384 -0.1294 -0.3471
 5395W        W22919  11.804   1.744  17.019  0.1193  0.2913 -0.0420
 5396W        W22920  15.918   1.496  17.403 -0.0505 -0.0961  0.0167
 5397W        W22921  15.373  10.223   1.072  0.0935 -0.1493 -0.1172
 5398W        W22922   0.111   2.561   0.365 -0.3333  0.0436 -0.2256
 5399W        W22923   7.468  14.938   3.347  0.1628 -0.2623 -0.2463
 5400W        W22924   0.315   7.855  13.537 -0.0574  0.0610 -0.1205
 5401W        W22925  11.800  15.955   4.701 -0.0095 -0.1647 -0.0087
 5402W        W22926   6.590   5.315  17.457 -0.0922  0.1610 -0.0607
 5403W        W22927  14.292  13.356  14.156 -0.0376  0.1311  0.2345
 5404W        W22928   4.755   9.011   5.521  0.2804  0.2079  0.0070
 5405W        W22929  13.280   0.683   3.591  0.0874 -0.1288 -0.0270
 5406W        W22930  16.548  10.093  16.478  0.0734 -0.3489 -0.0774
 5407W        W22931  15.214   9.801  16.168  0.2936 -0.0014  0.4949
 5408W        W22932   2.593   4.545   3.803  0.1829 -0.2533 -0.3690
 5409W        W22933   3.131  15.665   2.904  0.4214  0.1382  0.1165
 5410W        W22934   0.493   3.045  15.305  0.0782  0.2426  0.2031
 5411W        W22935   9.938   5.418   4.254  0.1459  0.1022  0.2501
 5412W        W22936   2.752  13.122  12.431  0.0778 -0.0677 -0.3397
 5413W        W22937   9.545  15.454   2.045  0.2559  0.0383  0.1775
 5414W        W22938  14.979   8.669   3.092 -0.0839 -0.2682  0.1226
 5415W        W22939   8.217   4.638  16.692  0.0836  0.0808  0.0185
 5416W        W22940  14.812   8.447  14.864 -0.0422 -0.2400 -0.3628
 5417W        W22941  15.765   6.984   0.231 -0.1470 -0.2650  0.1160
 5418W        W22942  14.399  14.766  12.164  0.2808  0.0031 -0.3713
 5419W        W22943   4.413   4.932   2.223 -0.4049  0.0183 -0.1261
 5420W        W22944  16.773   5.889  13.942 -0.2889 -0.0243  0.0171
 5421W        W22945   4.722   7.825   1.192 -0.1975 -0.2814  0.0681
 5422W        W22946  14.699   9.814   1.999 -0.0313 -0.1173  0.0153
 5423W        W22947   0.181  13.732   1.855 -0.1406 -0.1223  0.3036
 5424W        W22948   6.094  15.857  11.974 -0.0069  0.2540  0.0529
 5425W        W22949  15.619   9.768   1.180  0.0209  0.0866 -0.1277
 5426W        W22950  10.159   7.482   0.647  0.0307  0.2998  0.0510
 5427W        W22951   0.601   4.568   0.920  0.0634 -0.3808  0.1997
 5428W        W22952  13.216   7.913   3.096 -0.0804 -0.0025  0.0395
 5429W        W22953  14.782   6.105  17.459 -0.1265  0.0991 -0.0173
 5430W        W22954   7.681  11.643   3.012 -0.2487  0.1764 -0.2664
 5431W        W22955  13.595  14.410   0.522 -0.1358 -0.0403 -0.0463
 5432W        W22956  12.272  16.024  15.437  0.2050 -0.0234 -0.4549
 5433W        W22957   6.267   6.324  12.463  0.1711 -0.0208 -0.0212
 5434W        W22958  16.210  10.800  15.776  0.2056  0.0219  0.1568
 5435W        W22959  15.138   6.834  14.356  0.1519  0.2517  0.2265
 5436W        W22960  12.223   1.141   4.062  0.2720 -0.1455 -0.2704
 5437W        W22961  13.115   9.196  14.420  0.2553 -0.0490  0.0067
 5438W        W22962   5.816   4.938   2.523 -0.0310 -0.2026  0.3419
 5439W        W22963  10.768   0.671   4.048  0.2880 -0.0814 -0.0438
 5440W        W22964  11.843   9.083   4.405 -0.3044 -0.1735 -0.0210
 5441W        W22965  10.050   7.151   0.183 -0.1760  0.0720  0.0538
 5442W        W22966   3.930   2.410   1.572  0.2740 -0.1664  0.2245
 5443W        W22967   0.375  13.393  16.274 -0.1535  0.1366 -0.1222
 5444W        W22968  14.606  12.060  17.174  0.0003  0.0034 -0.0984
 5445W        W22969   8.697   9.438  17.300 -0.1623  0.0988 -0.0150
 5446W        W22970   6.894   9.297   1.042 -0.0462  0.1832 -0.2117
 5447W        W22971  11.075  13.143  16.196 -0.4752  0.2520 -0.1633
 5448W        W22972  14.179  11.704  11.857 -0.0070  0.1358 -0.0461
 5449W        W22973  11.507   8.079  11.156  0.1635  0.1580  0.1245
 5450W        W22974  11.573   9.253  15.462  0.0475 -0.0315  0.0674
 5451W        W22975   5.007  14.056  17.608  0.0455 -0.2761 -0.2916
 5452W        W22976   0.269  12.225  13.990 -0.0725  0.0520  0.0312
 5453W        W22977   5.633   1.143  17.235 -0.1874 -0.0124  0.0165
 5454W        W22978  14.712  12.381   4.586 -0.0528  0.1659 -0.2987
 5455W        W22979  12.607  12.322   0.449  0.1991  0.0060 -0.0195
 5456W        W22980   3.272   2.512  14.207 -0.0911  0.2332  0.0122
 5457W        W22981   6.858   5.934  16.794  0.1587  0.0835 -0.1047
 5458W        W22982  10.961   5.281   5.289 -0.2684 -0.0384  0.0793
 5459W        W22983  11.223   8.486   0.591 -0.1728  0.2643  0.0875
 5460W        W22984   6.147   9.938   2.957  0.0627  0.0139 -0.0693
 5461W        W22985   7.835   8.451   0.828 -0.1819  0.3552  0.1688
 5462W        W22986  17.169   7.209  17.641 -0.0484 -0.2668  0.0051
 5463W        W22987   6.907  11.633  17.252 -0.0036 -0.0491  0.0209
 5464W        W22988   9.558   4.911   5.875  0.0121 -0.2966 -0.0686
 5465W        W22989   7.907  13.838   3.845 -0.0834 -0.0371 -0.0924
 5466W        W22990   6.675   3.410   0.137 -0.0987  0.1788 -0.2117
 5467W        W22991   8.682   5.761  13.629 -0.0899  0.0246 -0.1159
 5468W        W22992   8.096   1.208   2.803 -0.0178  0.0344  0.1307
 5469W        W22993  16.586  10.420  14.078  0.2643  0.0621 -0.1882
 5470W        W22994   1.036   1.798  15.921 -0.0564  0.0277  0.3693
 5471W        W22995   1.291  10.388   1.729 -0.0972 -0.3146 -0.0753
 5472W        W22996   6.697   5.772   5.352 -0.0294  0.0307 -0.0209
 5473W        W22997   9.846  11.008   4.493  0.0754 -0.0684 -0.5650
 5474W        W22998  12.041   7.092  14.311  0.0985 -0.0210  0.0051
 5475W        W22999   0.130  10.959  14.330  0.1537  0.3759 -0.2385
 5476W        W23000   9.788   4.560  12.145  0.0800 -0.0774 -0.1002
 5477W        W23001   2.789  11.923   4.936 -0.1703  0.3472  0.2153
 5478W        W23002   0.926   8.041   5.404 -0.0239  0.1208 -0.2206
 5479W        W23003  15.127  16.616   0.742  0.0042  0.0366  0.2570
 5480W        W23004   8.838   5.776   0.158 -0.0923  0.0234 -0.2024
 5481W        W23005   8.344   2.786   4.121  0.0712  0.1517  0.0957
 5482W        W23006   2.448  10.546   0.311  0.0211 -0.1931 -0.0270
 5483W        W23007  14.710   0.266  17.122 -0.1007 -0.2547  0.0514
 5484W        W23008   8.617   7.421   5.173 -0.0419 -0.0814 -0.0979
 5485W        W23009   1.957   5.995  17.297  0.4361  0.0869  0.1059
 5486W        W23010   4.798   2.350  12.446 -0.1587  0.0900  0.1894
 5487W        W23011   8.653   0.128   0.080 -0.2324  0.0999 -0.1045
 5488W        W23012   0.854   7.753   1.587  0.0435 -0.0877  0.0998
 5489W        W23013   9.793   2.477  17.648 -0.3444  0.0894 -0.0426
 5490W        W23014  12.952   6.815  13.019 -0.2459  0.0713 -0.2142
 5491W        W23015   4.391  13.303   3.187  0.2166 -0.1728 -0.1071
 5492W        W23016  13.323  10.135  12.160  0.3275 -0.4157  0.1300
 5493W        W23017   4.136  10.993   0.078  0.2386  0.1140 -0.0059
 5494W        W23018  11.847  10.179   3.421 -0.2371  0.0651  0.2809
 5495W        W23019   9.405  15.021   4.417  0.0333 -0.1596  0.2596
 5496W        W23020  15.637   6.001   0.940 -0.0389  0.1873 -0.1435
 5497W        W23021  16.161  11.396   2.636  0.1035  0.0345 -0.1912
 5498W        W23022   2.526   4.000  16.160  0.0572 -0.1164 -0.2250
 5499W        W23023   8.407   6.279  15.050 -0.0494  0.3304  0.0571
 5500W        W23024  12.968   7.940  11.566 -0.1291 -0.2356  0.1122
 5501W        W23025   8.591   9.134   4.874 -0.0600  0.2554 -0.2813
 5502W        W23026  14.667   6.383   1.817  0.0130 -0.1183 -0.1846
 5503W        W23027   5.212  10.362   3.971 -0.3977  0.0778  0.0184
 5504W        W23028   0.304   3.106  13.084 -0.1236  0.1517 -0.2179
 5505W        W23029   3.785   8.296   3.875  0.1170  0.1740 -0.0597
 5506W        W23030   2.721   4.269  14.372 -0.0555 -0.0764 -0.0813
 5507W        W23031   5.777  12.917  16.928  0.2147  0.2703  0.0097
 5508W        W23032   8.926   5.200   2.351  0.2375  0.3667 -0.1345
 5509W        W23033  11.912  15.255   0.033 -0.0852 -0.0045 -0.1724
 5510W        W23034   2.037   0.254  15.547  0.2016 -0.2000 -0.1302
 5511W        W23035  10.336   5.862  16.932  0.0794 -0.0932 -0.0353
 5512W        W23036   3.831  13.383   3.482  0.1280  0.0422  0.1196
 5513W        W23037  12.281   4.750   0.685  0.0970 -0.1306  0.0416
 5514W        W23038   7.130   2.574   4.227  0.0576 -0.0279  0.1927
 5515W        W23039  17.156  15.799  15.691  0.0186 -0.0139 -0.0094
 5516W        W23040   5.386  11.357   0.433  0.1677 -0.0301  0.1266
 5517W        W23041  15.433   1.988  14.895 -0.0243  0.0465  0.0388
 5518W        W23042   0.989  10.008   3.003  0.0939  0.1877  0.0687
 5519W        W23043  15.704   4.173   5.432 -0.1944  0.0966  0.2418
 5520W        W23044  12.162   2.157  13.556 -0.0765 -0.1225 -0.1933
 5521W        W23045   3.357   8.425  13.762 -0.0883  0.0018  0.0724
 5522W        W23046   0.201  15.914   3.295 -0.1966  0.1291 -0.3145
 5523W        W23047  15.917  13.529   4.088 -0.1009  0.0305  0.4747
 5524W        W23048   6.401  10.923   3.093 -0.0068  0.0427 -0.0979
 5525W        W23049   4.699  15.951   4.225  0.0453 -0.2289  0.1291
 5526W        W23050   8.243  15.611  14.071  0.3240  0.1325 -0.1526
 5527W        W23051   4.992   8.006  12.179 -0.4133 -0.1479  0.1110
 5528W        W23052   1.595  16.545  15.963  0.1379 -0.0040  0.2926
 5529W        W23053  16.233  12.163   3.908 -0.0775  0.1238  0.3128
 5530W        W23054   0.416  13.842  15.833 -0.0661  0.3500  0.1554
 5531W        W23055  10.762   7.112   3.191  0.1556 -0.0653  0.0319
 5532W        W23056   3.912   9.383   5.743  0.0640 -0.1427 -0.2605
 5533W        W23057   0.684   9.866   1.807 -0.0736  0.0198 -0.1270
 5534W        W23058  13.134  13.771   3.094  0.0428  0.1550  0.2379
 5535W        W23059   0.708  11.358   3.465 -0.0402  0.2667  0.0336
 5536W        W23060   0.260   4.987  15.359 -0.0420 -0.0399  0.0126
 5537W        W23061   5.160  12.911  13.738 -0.0536  0.1644 -0.0112
 5538W        W23062   7.479   0.132  14.689  0.1748 -0.0190  0.2823
 5539W        W23063   8.974   2.784   2.738  0.0508  0.1471  0.0830
 5540W        W23064   7.506   1.431  15.835  0.2142  0.1128  0.1156
 5541W        W23065  15.004  12.568  12.656 -0.1850  0.2543  0.3300
 5542W        W23066   2.996   7.998  17.119  0.2562 -0.0346  0.0490
 5543W        W23067   6.183  12.061   2.814 -0.0319  0.2489  0.0788
 5544W        W23068  17.096  15.018  15.487 -0.0173 -0.1992  0.1392
 5545W        W23069  15.671  12.868  14.825 -0.0744  0.1439 -0.0514
 5546W        W23070  12.965  10.023  16.392 -0.1215 -0.0527 -0.0115
 5547W        W23071   8.660   3.803   5.354 -0.0819 -0.3887 -0.2003
 5548W        W23072  14.029   3.381   1.719 -0.2826 -0.0546  0.1308
 5549W        W23073   3.270   3.137   2.042 -0.1260  0.0125  0.0542
 5550W        W23074  15.689   0.788   0.400  0.0310  0.3220  0.1769
 5551W        W23075  15.855   1.544   2.724 -0.0149  0.0887 -0.0745
 5552W        W23076   2.505   4.479  12.692  0.0989 -0.3657  0.1516
 5553W        W23077  11.832   4.638  16.348  0.0301 -0.0685 -0.0982
 5554W        W23078   9.205   6.281  17.447 -0.1226 -0.1479  0.2286
 5555W        W23079  10.847   2.722   3.572  0.0076 -0.0540 -0.2642
 5556W        W23080   1.107   3.869  15.843 -0.0399 -0.2184 -0.2372
 5557W        W23081  13.168   9.604  16.590  0.1857 -0.0727 -0.1090
 5558W        W23082   3.285  11.929   4.775 -0.3275  0.1977 -0.1073
 5559W        W23083  11.129  16.172   5.877  0.0312  0.1201 -0.1036
 5560W        W23084  14.362  17.166   1.232  0.0844 -0.1098  0.1135
 5561W        W23085   7.128  17.101  12.603 -0.0476 -0.0389  0.0608
 5562W        W23086  16.389  13.107   2.010  0.1086  0.1447  0.1737
 5563W        W23087  12.567   4.264   1.034 -0.1804 -0.0616  0.0042
 5564W        W23088   3.958  16.197   0.909  0.0472 -0.0861 -0.0244
 5565W        W23089   2.308   5.068  17.214  0.3108  0.0289 -0.3472
 5566W        W23090   6.624   7.203   1.213 -0.0081  0.1490 -0.2850
 5567W        W23091   4.879  11.454  12.709 -0.1424  0.1947 -0.1134
 5568W        W23092   5.029   5.013   5.546  0.0307  0.0961 -0.1178
 5569W        W23093   3.436   9.841   1.224 -0.1750 -0.0709 -0.0676
 5570W        W23094  14.730   1.890  14.057  0.0954  0.2043 -0.0997
 5571W        W23095  14.340   5.046  14.960 -0.4557  0.0115  0.0203
 5572W        W23096  12.121  16.316   2.641 -0.0489 -0.1006 -0.1343
 5573W        W23097  12.470  14.554  14.974  0.1464 -0.1112  0.0538
 5574W        W23098   4.426   0.411   0.944  0.0738  0.0743  0.0144
 5575W        W23099   4.369  15.942  14.367 -0.1729 -0.1431 -0.2711
 5576W        W23100   9.779   9.370  16.442  0.0057  0.1219 -0.0457
 5577W        W23101   4.217   7.562   2.373 -0.0777 -0.0570  0.1752
 5578W        W23102  10.114  12.049  16.977 -0.1697 -0.1111 -0.3478
 5579W        W23103   3.507  15.148  15.740 -0.0866  0.2039  0.0763
 5580W        W23104  16.224   9.561   5.212  0.0974 -0.1929  0.1861
 5581W        W23105   8.073  11.681   4.257  0.1415  0.2477 -0.1549
 5582W        W23106   3.461  14.356   3.185  0.2940  0.0753  0.2468
 5583W        W23107   6.387  13.559  13.954 -0.1187 -0.1885 -0.0833
 5584W        W23108   1.871   0.920   3.689  0.0653  0.1128 -0.1359
 5585W        W23109  12.243   3.457  16.336  0.1815  0.0870 -0.1044
 5586W        W23110  13.573   4.419  16.015 -0.0453  0.1586  0.0443
 5587W        W23111  13.507  14.696  12.722 -0.0434  0.0866 -0.0784
 5588W        W23112   4.348   2.104   1.596 -0.1317 -0.0120 -0.3333
 5589W        W23113  14.522  12.497  12.947 -0.0060  0.0738  0.0652
 5590W        W23114   2.464   5.836  16.604  0.1318  0.1536 -0.0885
 5591W        W23115  16.446   1.806  17.561 -0.1741 -0.0729  0.1586
 5592W        W23116   1.249   6.409  13.162  0.1041 -0.1505  0.0811
 5593W        W23117   7.714  10.263  14.810 -0.2680 -0.2870 -0.1653
 5594W        W23118   5.056   6.978  12.347 -0.0286 -0.0171  0.0605
 5595W        W23119   4.545   4.503  15.569 -0.3430  0.1624 -0.0151
 5596W        W23120   2.348  11.905   4.617 -0.0669  0.0193 -0.2984
 5597W        W23121   6.191   2.325   2.535  0.1502  0.0232 -0.3409
 5598W        W23122   7.809   8.143  15.009  0.0959  0.1351  0.1501
 5599W        W23123  12.926  13.991   3.557  0.1473 -0.0089  0.0146
 5600W        W23124   2.961   8.987   5.396  0.0173  0.1024  0.1030
 5601W        W23125   7.963  13.921  13.093  0.3222  0.1191  0.2120
 5602W        W23126   0.600  13.973   0.072 -0.2125  0.0240 -0.0155
 5603W        W23127   5.753  14.503  17.117  0.0332 -0.1878  0.1651
 5604W        W23128   6.580   0.250   1.530  0.5284  0.0373 -0.0365
 5605W        W23129  16.929   4.539  16.278 -0.0913  0.3315  0.4144
 5606W        W23130   9.711   7.560   5.338 -0.1069 -0.0226  0.0760
 5607W        W23131   7.425   5.794  13.945  0.1991  0.0656 -0.3428
 5608W        W23132  10.903   7.549  16.617  0.0986  0.2057  0.1547
 5609W        W23133  11.410   8.458   3.954  0.0147  0.0473 -0.3201
 5610W        W23134   2.930  16.803  12.819  0.3868  0.2885  0.0635
 5611W        W23135   6.124   3.593  13.206  0.2904  0.0317 -0.1022
 5612W        W23136   0.615  10.121   2.260 -0.0925 -0.0725  0.0659
 5613W        W23137  11.148  16.019  13.911  0.2048 -0.0219 -0.1494
 5614W        W23138   2.437   1.329  14.940  0.0601 -0.2324 -0.0316
 5615W        W23139   8.297  13.708  17.266  0.0687 -0.0996 -0.2947
 5616W        W23140   6.798  10.795  12.928 -0.1908  0.1260  0.4250
 5617W        W23141   3.961  16.083   4.924 -0.0370 -0.1668 -0.1194
 5618W        W23142  10.291   4.161   4.385 -0.0160  0.2509  0.2295
 5619W        W23143   0.886  11.730   3.126  0.1512  0.0266 -0.1827
 5620W        W23144   8.613   0.977   2.715  0.1416  0.0709  0.0743
 5621W        W23145  13.939  10.376   1.198 -0.3267 -0.0318 -0.2224
 5622W        W23146   8.218  11.318  12.532 -0.2312 -0.1125 -0.0733
 5623W        W23147   1.024   9.098  12.594 -0.1289  0.2240  0.2287
 5624W        W23148   9.133   6.311   1.613 -0.2103 -0.2851 -0.0122
 5625W        W23149  10.243  15.115  16.101  0.1332  0.2899 -0.0851
 5626W        W23150   8.121   8.811  11.969  0.1752  0.0982  0.0214
 5627W        W23151  12.872   7.709  15.765  0.2797  0.2853  0.1122
 5628W        W23152   9.497   7.653  12.031  0.2612 -0.2216  0.2404
 5629W        W23153  10.010   9.049  14.322  0.0620  0.0171  0.2358
 5630W        W23154  13.549   5.799   3.129 -0.0073 -0.0301  0.0372
 5631W        W23155   3.781  12.893   5.561  0.1356 -0.0656 -0.0700
 5632W        W23156   7.088   1.131  14.249  0.0396 -0.1725 -0.1173
 5633W        W23157   9.450   4.274  12.331 -0.1503  0.1376  0.2153
 5634W        W23158   9.320   3.013   5.529 -0.1360  0.0877  0.0545
 5635W        W23159   9.049   1.812   2.327  0.0634 -0.2126  0.0944
 5636W        W23160  14.947  11.384   2.774  0.0124  0.0975 -0.2697
 5637W        W23161   6.795   4.062  15.402  0.1377 -0.0014 -0.1579
 5638W        W23162  15.711   4.590  16.419 -0.0682  0.2420 -0.1581
 5639W        W23163   8.768  14.072   4.272  0.1117  0.0378 -0.0785
 5640W        W23164   2.848   3.478   4.827  0.1959 -0.0767 -0.0349
 5641W        W23165  16.204   9.325  13.389 -0.1343  0.1102 -0.3176
 5642W        W23166  16.884   5.655  15.715 -0.0207 -0.3020 -0.2425
 5643W        W23167   0.025  17.064  16.006  0.2408  0.2016 -0.1498
 5644W        W23168   0.659  13.101   1.707  0.1171 -0.0462 -0.1032
 5645W        W23169  15.720  13.589   5.797 -0.2039  0.0791  0.0754
 5646W        W23170   1.028   9.349   2.480  0.0077 -0.0744 -0.1357
 5647W        W23171  12.737   2.829  16.925 -0.1097 -0.3948 -0.0700
 5648W        W23172  15.086   8.875  14.737 -0.2762 -0.2646  0.2295
 5649W        W23173   0.674  14.601  13.743 -0.0204  0.3313 -0.1390
 5650W        W23174  10.682  12.826  12.157  0.2027  0.1847  0.1120
 5651W        W23175   4.650  11.526   3.693  0.0459 -0.1052  0.0142
 5652W        W23176   5.184   4.714  12.110  0.1197 -0.1335  0.2074
 5653W        W23177   7.414   5.942  15.624 -0.0040  0.0006  0.0848
 5654W        W23178  15.101  11.608   5.049  0.0206 -0.1943 -0.0932
 5655W        W23179   2.037   5.219  16.255 -0.1694 -0.1480  0.1750
 5656W        W23180  12.240   2.926  17.217 -0.0062 -0.1161  0.1907
 5657W        W23181  14.152   6.103  12.537 -0.2040  0.0112  0.0410
 5658W        W23182  10.162  15.416   1.576  0.0727 -0.0452  0.0258
 5659W        W23183  11.715  16.500  12.882  0.1027 -0.0327  0.3402
 5660W        W23184  14.111  12.873   6.571  0.0725 -0.0721 -0.0158
 5661W        W23185  15.667  11.525  15.104  0.1340 -0.1452  0.4273
 5662W        W23186   8.674   5.991   6.158  0.0328 -0.0771 -0.0592
 5663W        W23187   5.837  10.205   1.716 -0.0944 -0.1121  0.0676
 5664W        W23188   2.121   0.619   1.528 -0.0578 -0.2515  0.0626
 5665W        W23189  11.286   2.684   1.561 -0.1784 -0.0694  0.0377
 5666W        W23190   8.947  13.316  12.937 -0.0575 -0.1228 -0.0611
 5667W        W23191   0.376   2.973  13.556 -0.2649  0.2603 -0.3541
 5668W        W23192  15.053  11.401   1.860  0.0599  0.1330 -0.0115
 5669W        W23193   4.393  10.999   2.933  0.0105  0.0035 -0.1207
 5670W        W23194  14.454   4.417   3.054  0.1197  0.0048  0.0612
 5671W        W23195   8.770   1.710  15.109 -0.2004  0.0274  0.1552
 5672W        W23196   2.046   2.796   1.652  0.2311 -0.2585 -0.0203
 5673W        W23197   8.406  10.809  16.227  0.0567  0.0779  0.0119
 5674W        W23198  16.359   8.405  14.702 -0.0378 -0.1461  0.2243
 5675W        W23199   7.712   3.800  12.356 -0.0287  0.2953 -0.2344
 5676W        W23200  11.876   0.531   3.541  0.0462  0.0302  0.2721
 5677W        W23201  16.068   9.807   3.872  0.0205 -0.0128 -0.1285
 5678W        W23202   6.667   2.473   1.619  0.0845  0.0404 -0.0359
 5679W        W23203   6.367   6.315  13.100 -0.0221 -0.2146 -0.1813
 5680W        W23204  12.004  12.126  16.569  0.3786 -0.0263 -0.1611
 5681W        W23205  16.958   3.935   1.242  0.0506 -0.0330  0.2412
 5682W        W23206  16.007   9.283  16.230 -0.4599  0.0245  0.0141
 5683W        W23207   1.140  10.942  16.173 -0.1671 -0.2173  0.0062
 5684W        W23208  13.823   2.422   5.014 -0.1550 -0.0066  0.1012
 5685W        W23209   1.850   7.746   3.462  0.2118 -0.1084  0.0215
 5686W        W23210  11.620   0.285  16.811 -0.1438  0.1472  0.0319
 5687W        W23211  15.953  11.222   3.584 -0.2166 -0.3760  0.1188
 5688W        W23212   8.254   4.716   4.205 -0.2786  0.2304 -0.1198
 5689W        W23213  15.494   8.817  13.178 -0.0417  0.3441 -0.2813
 5690W        W23214   3.102   8.665  13.426 -0.1252  0.3234 -0.1122
 5691W        W23215  14.383  10.284   4.868 -0.0148 -0.0391 -0.1593
 5692W        W23216   4.439   4.899  15.293  0.0104 -0.3904  0.1689
 5693W        W23217   7.392  11.327   2.670 -0.2104  0.0327 -0.0549
 5694W        W23218  15.490   1.626  14.534 -0.1781 -0.1611 -0.1921
 5695W        W23219   2.683  10.677  13.352 -0.0978  0.1852  0.0305
 5696W        W23220  11.800   1.181  17.079 -0.0647 -0.0941  0.1192
 5697W        W23221   2.271   0.461  16.712  0.0547 -0.0763  0.1385
 5698W        W23222   1.861   3.868   2.812 -0.1877  0.0251  0.3017
 5699W        W23223   9.752   5.406   1.682  0.0805  0.1351  0.4115
 5700W        W23224   7.622  10.902   2.217 -0.1046 -0.0366 -0.1214
 5701W        W23225  12.877   8.211  15.874  0.1905  0.2646  0.0154
 5702W        W23226  12.991   5.226   0.451 -0.3043 -0.0804  0.2442
 5703W        W23227  15.481   6.481   3.477 -0.0216  0.0930 -0.1048
 5704W        W23228  17.168   7.509  12.673  0.0875  0.2372 -0.0777
 5705W        W23229   9.750  13.570   3.565  0.2580 -0.1226  0.0100
 5706W        W23230  13.366  14.369  13.881  0.1776 -0.0462 -0.0006
 5707W        W23231  14.729   6.507   2.304  0.3348  0.2174  0.0276
 5708W        W23232   9.558   6.961   2.624 -0.0007 -0.0026  0.0013
 5709W        W23233  15.381  16.914   1.743 -0.1542  0.0727 -0.2109
 5710W        W23234   1.508   1.690  16.287 -0.1203 -0.2796 -0.2836
 5711W        W23235   8.647   3.757  12.658 -0.4989  0.0631 -0.2422
 5712W        W23236   6.714   1.653   1.238  0.2691 -0.1341 -0.0613
 5713W        W23237  11.075   6.893   1.292  0.3019 -0.1167  0.1425
 5714W        W23238   4.471   3.560  12.393 -0.0358 -0.1295  0.0821
 5715W        W23239  11.063   7.378  12.357 -0.1447  0.2399  0.0263
 5716W        W23240   0.378  13.308   2.937 -0.0498  0.1079 -0.0002
 5717W        W23241  13.129  17.071   2.021  0.1357  0.1347 -0.0902
 5718W        W23242   7.961   7.530   2.058  0.1494 -0.0683 -0.0470
 5719W        W23243   1.521   3.048  16.448  0.1836  0.0486 -0.1314
 5720W        W23244   7.278   4.220   4.268 -0.0013  0.2700  0.1161
 5721W        W23245   1.940   8.705  13.070  0.1862  0.1497 -0.1677
 5722W        W23246  15.981  15.883   3.735 -0.1884  0.0216 -0.3779
 5723W        W23247  15.247  13.897  17.256 -0.0080  0.0338 -0.0043
 5724W        W23248   4.530   6.869   4.910  0.1348  0.2359 -0.1798
 5725W        W23249  12.470  11.486   0.804  0.1233  0.1146  0.2148
 5726W        W23250   1.456   3.930  11.449  0.0167  0.0048  0.0144
 5727W        W23251  11.975  16.645   1.185  0.0437 -0.0800 -0.3314
 5728W        W23252   5.656  15.210  17.586 -0.1225 -0.3047 -0.0454
 5729W        W23253   1.760   4.478  14.035 -0.1083  0.1614 -0.0194
 5730W        W23254   2.110   2.376  13.385 -0.1016 -0.2610 -0.2390
 5731W        W23255  12.101   4.310   3.585 -0.3196 -0.0623 -0.1721
 5732W        W23256   6.279  15.871   3.847  0.0948  0.1535 -0.3738
 5733W        W23257   4.916  12.030   2.230 -0.0067  0.0586  0.0028
 5734W        W23258  13.239   2.073   0.291  0.1336  0.1499 -0.1409
 5735W        W23259  10.467   6.484   6.929 -0.2621 -0.0581  0.1263
 5736W        W23260   5.960   2.009   0.364 -0.0159 -0.0552  0.0308
 5737W        W23261  16.843   4.339  15.359  0.1517 -0.1057  0.2901
 5738W        W23262   9.264  15.339  12.840 -0.1551  0.1023 -0.0484
 5739W        W23263  10.615  13.861  17.253  0.2136  0.0397  0.3063
 5740W        W23264  12.787  12.386  14.721 -0.2693  0.2925  0.3519
 5741W        W23265  11.206   0.749   2.404  0.0415  0.1073  0.2795
 5742W        W23266   8.290   0.734   1.845 -0.0961  0.0291 -0.0395
 5743W        W23267   6.475   2.496  13.110 -0.0765  0.3769 -0.0214
 5744W        W23268  15.184   1.905  16.729  0.1577  0.2041  0.1458
 5745W        W23269  16.980  16.541  12.862 -0.0879  0.2241  0.0624
 5746W        W23270   0.930  12.036   2.083  0.5032 -0.2458 -0.0596
 5747W        W23271  12.342   7.639  12.242 -0.0084  0.1712  0.0210
 5748W        W23272   6.260   8.501   5.001  0.2173 -0.0328  0.0491
 5749W        W23273  12.623   0.108   0.108 -0.1486 -0.0256 -0.3907
 5750W        W23274  10.987   3.099   4.682  0.4013 -0.1131 -0.0178
 5751W        W23275  14.030   0.792  12.374 -0.2690  0.0397 -0.2763
 5752W        W23276   0.697   6.197   0.628 -0.0621 -0.2267  0.1100
 5753W        W23277   4.436   1.547   3.028  0.0917  0.1251  0.1906
 5754W        W23278   2.183  16.938  16.232  0.0265 -0.1766  0.0699
 5755W        W23279   2.154   9.354  16.024 -0.0181  0.1696  0.2602
 5756W        W23280   3.851  16.905   3.710 -0.1698 -0.0264 -0.1848
 5757W        W23281  16.044   7.949  14.641 -0.0481  0.1266 -0.0284
 5758W        W23282  15.155   6.306  12.301  0.2641 -0.0285  0.1794
 5759W        W23283  12.215   1.195  14.440 -0.1102  0.2811  0.1866
 5760W        W23284   1.966  13.887   1.340 -0.2773 -0.0402 -0.1639
 5761W        W23285   1.473  15.412   5.148 -0.2476 -0.0768 -0.2509
 5762W        W23286   4.833   0.943   4.662  0.0173 -0.3513  0.2816
 5763W        W23287  15.394   5.405   5.117 -0.0042  0.4087  0.1998
 5764W        W23288  15.015   5.877   3.228  0.1034 -0.1209  0.0610
 5765W        W23289   1.974   9.644  14.263 -0.1370 -0.0289 -0.1101
 5766W        W23290  11.369  15.971  16.502 -0.0612  0.1359 -0.1486
 5767W        W23291   7.819   6.362  13.418  0.2329  0.0746  0.2428
 5768W        W23292   8.602   4.369  16.454  0.0371  0.0299  0.0682
 5769W        W23293   8.516   2.909  15.259  0.3177  0.0364 -0.2940
 5770W        W23294  16.260   4.031  12.102 -0.0112  0.0315  0.2250
 5771W        W23295  14.116  11.314   1.841 -0.0668 -0.2908 -0.3061
 5772W        W23296  13.943  11.753  16.028  0.3465 -0.1212 -0.2504
 5773W        W23297  12.785   6.570   4.105 -0.0162 -0.0760 -0.0852
 5774W        W23298   6.260  10.432   3.060 -0.0055 -0.4032  0.0868
 5775W        W23299   7.950  12.231  13.577  0.2769  0.2812 -0.0940
 5776W        W23300   0.143   2.071  12.215  0.1500  0.3424  0.1426
 5777W        W23301  13.734   4.408   0.693  0.3590  0.1251 -0.1945
 5778W        W23302   3.873   4.504   5.144  0.0031 -0.0734  0.1053
 5779W        W23303  14.291  14.252  13.170 -0.5102  0.2755 -0.1455
 5780W        W23304   0.430  11.331  14.109  0.0249  0.0035  0.0841
 5781W        W23305  12.129   0.066   0.092  0.2744 -0.0339 -0.1667
 5782W        W23306   7.736  10.096   4.274 -0.1711 -0.0252 -0.0343
 5783W        W23307   3.726   0.171  14.330 -0.1441  0.0571 -0.3299
 5784W        W23308  16.019  16.067   3.223  0.1720  0.1708  0.1309
 5785W        W23309   9.798   0.537   2.924 -0.0104 -0.4507  0.1626
 5786W        W23310  13.221   6.393  13.857 -0.1398 -0.1102 -0.2281
 5787W        W23311   4.863  12.418   0.355  0.0105 -0.1246 -0.1348
 5788W        W23312   3.900  10.089  16.674  0.1758 -0.1227 -0.3867
 5789W        W23313   1.882   3.307   2.909 -0.4730  0.0902 -0.1160
 5790W        W23314   7.063   2.915   2.690 -0.1769 -0.0260 -0.0566
 5791W        W23315   6.064   3.932  15.931 -0.1216 -0.4639  0.2019
 5792W        W23316  15.779  11.524  14.543  0.0417  0.2350 -0.0788
 5793W        W23317  13.264  12.818  12.495  0.1306 -0.2011 -0.1058
 5794W        W23318  10.029   4.761   1.060 -0.0981 -0.1352 -0.1041
 5795W        W23319  14.275   7.647  11.677  0.0538  0.0345  0.1744
 5796W        W23320  11.738   3.581  16.169  0.0262 -0.0880  0.2846
 5797W        W23321  15.666   5.101   3.241  0.0720 -0.0014 -0.2209
 5798W        W23322   7.775   2.725   3.254  0.1234  0.1617  0.1182
 5799W        W23323   9.110   9.810   1.905 -0.0644  0.0562 -0.0660
 5800W        W23324   0.319   2.702   4.335 -0.1078 -0.2013 -0.3459
 5801W        W23325  13.507  10.233  15.765  0.0143  0.3047 -0.0679
 5802W        W23326  16.533  12.622  11.185  0.0040  0.1139  0.0812
 5803W        W23327   1.758  14.929  13.616  0.3250  0.1861  0.0643
 5804W        W23328  12.660   8.203  15.462  0.0762  0.1185  0.2437
 5805W        W23329   7.488  14.194   1.512 -0.1553 -0.1443 -0.3489
 5806W        W23330   3.705   2.197   4.578 -0.2874 -0.3959  0.0620
 5807W        W23331   0.472  10.722  17.529  0.1401  0.1942 -0.0809
 5808W        W23332   3.132   5.173   2.931  0.0542  0.1937  0.2430
 5809W        W23333   4.640   8.400  15.368 -0.0754  0.0906 -0.2366
 5810W        W23334   9.709  15.263   0.120  0.1182  0.0278  0.1508
 5811W        W23335   4.476   0.525   5.266  0.0942 -0.3144  0.0880
 5812W        W23336  13.434   9.332  17.044 -0.0912 -0.0559  0.3691
 5813W        W23337   2.264   1.332  14.118  0.0202 -0.0392 -0.0684
 5814W        W23338   4.141  13.040   1.602 -0.3246 -0.0852  0.0058
 5815W        W23339  15.810  15.646  11.314  0.3120  0.1671 -0.1531
 5816W        W23340   4.804   1.388  15.116  0.0063  0.2022 -0.0748
 5817W        W23341   3.713  13.047   2.091 -0.0803 -0.1876  0.2120
 5818W        W23342   9.790  12.379  17.074  0.1194 -0.0876 -0.2801
 5819W        W23343   6.304   0.521   5.949 -0.2832  0.2232  0.2852
 5820W        W23344   0.980  10.234  14.854  0.5235 -0.1994  0.1154
 5821W        W23345   6.175  11.711   4.928  0.2457  0.1514 -0.0825
 5822W        W23346   7.528  14.051   0.263 -0.1219  0.2374  0.1652
 5823W        W23347   6.141   3.643   3.979  0.0383 -0.0538  0.1992
 5824W        W23348   9.629   8.436   2.651 -0.0742  0.1724  0.3224
 5825W        W23349  12.638   1.764  15.740 -0.1478  0.0591 -0.1324
 5826W        W23350   9.614   6.430  15.231 -0.1814 -0.1966 -0.2204
 5827W        W23351   4.008  13.629   3.068  0.0546  0.6542 -0.1971
 5828W        W23352  16.795   2.991  15.488  0.2814  0.1136  0.4417
 5829W        W23353   3.895  13.484   2.488  0.0780  0.1639 -0.0577
 5830W        W23354   3.242   0.670  14.749 -0.3921 -0.2901  0.2189
 5831W        W23355  14.137   7.941  13.439 -0.3413  0.2502 -0.0241
 5832W        W23356  16.229   1.551   1.503 -0.1178 -0.0834  0.2736
 5833W        W23357   6.712   6.368  16.565  0.0644 -0.1719 -0.0788
 5834W        W23358   8.362   2.867  13.607  0.1223 -0.2227  0.1058
 5835W        W23359  14.379   3.539  12.631 -0.1765  0.5858 -0.1020
 5836W        W23360   0.142  11.462   0.207  0.4059 -0.0915 -0.0284
 5837W        W23361   6.846   0.468  17.132  0.0382 -0.2438  0.0965
 5838W        W23362  14.556   5.861  12.903 -0.2992 -0.0175  0.0807
 5839W        W23363   7.833  14.365  13.413  0.2371 -0.0670 -0.1392
 5840W        W23364   5.228  13.880  13.252  0.0296 -0.1175  0.0860
 5841W        W23365  10.819  13.115   1.220  0.1697 -0.0500  0.0902
 5842W        W23366   8.090  11.007   3.890 -0.0480  0.1816  0.0747
 5843W        W23367  11.385  11.583   3.466  0.1261  0.0780 -0.2221
 5844W        W23368   2.780   8.522   3.937  0.1251 -0.0056  0.0840
 5845W        W23369   5.797   2.601   1.747  0.0161  0.0495  0.1532
 5846W        W23370   9.614  10.542  15.081  0.0594  0.0761 -0.0599
 5847W        W23371   6.772  17.060  17.373  0.0233  0.1094  0.4107
 5848W        W23372  12.998   6.091  14.792 -0.3422  0.0369  0.1544
 5849W        W23373  16.784  11.124  15.108 -0.2260 -0.3238  0.1778
 5850W        W23374  14.751  13.901  17.140 -0.1144 -0.1722  0.2368
 5851W        W23375   6.110   4.676   5.681 -0.0336  0.2574  0.0163
 5852W        W23376   4.331  16.954  17.610 -0.1705  0.2603 -0.1399
 5853W        W23377  15.985   8.924  13.014  0.1645  0.1468 -0.0999
 5854W        W23378  11.237  13.313   1.502  0.0635  0.1201  0.2231
 5855W        W23379  10.134   0.187   2.992  0.0902 -0.2623  0.2001
 5856W        W23380   5.022   4.482   3.816 -0.1512 -0.3418 -0.0891
 5857W        W23381   0.698  13.302  13.560  0.3576 -0.1750  0.0273
 5858W        W23382  11.879   5.700   1.643  0.2613  0.0983  0.3139
 5859W        W23383  12.106  14.496  11.576 -0.0035 -0.1674  0.1935
 5860W        W23384  16.332   1.725   4.582  0.2168 -0.1260 -0.2658
 5861W        W23385  13.816   8.484  13.451  0.3808 -0.0525  0.1203
 5862W        W23386  12.979   3.162  14.778 -0.2664  0.3686 -0.4685
 5863W        W23387  11.538  15.044   0.315 -0.0478  0.2473  0.2767
 5864W        W23388  14.200   1.325  16.091  0.0351 -0.0841 -0.1661
 5865W        W23389   7.469  17.099  13.764 -0.2210  0.0553  0.1384
 5866W        W23390   5.777   3.398   4.169  0.0115  0.2318 -0.2906
 5867W        W23391  10.141   4.704   5.274 -0.2312 -0.2212 -0.0610
 5868W        W23392   4.032  12.731  15.067  0.1180  0.2795 -0.1227
 5869W        W23393   1.522  17.216  16.873  0.0358 -0.1681  0.2574
 5870W        W23394   7.597  11.160  15.796  0.0392 -0.0003  0.4129
 5871W        W23395  14.299   3.674   0.904  0.1974 -0.1903 -0.3314
 5872W        W23396   7.777  12.901   0.030 -0.0503 -0.0595  0.0199
 5873W        W23397   1.333  15.146   0.594 -0.0447 -0.2827  0.1262
 5874W        W23398   7.986   7.991   0.665  0.1721  0.0881  0.1740
 5875W        W23399  11.228   7.633   2.574 -0.1292 -0.5343 -0.0075
 5876W        W23400  14.411   9.751   1.653  0.0108  0.2715 -0.3676
 5877W        W23401   9.877  11.117   6.022 -0.1272  0.1646 -0.1020
 5878W        W23402  12.942   7.667   4.635  0.0038  0.0236 -0.1895
 5879W        W23403  16.703  14.760   3.235 -0.2781 -0.0770  0.1889
 5880W        W23404  11.955  15.878   4.032 -0.0333 -0.2759  0.1373
 5881W        W23405  12.441   4.686   2.669  0.0325  0.3231 -0.0966
 5882W        W23406  11.148   7.479  13.438 -0.1959  0.1015 -0.0920
 5883W        W23407  15.036  11.640  14.132  0.1168  0.2990 -0.1511
 5884W        W23408  15.864   7.674   4.959 -0.0648 -0.1153 -0.1602
 5885W        W23409   3.159  16.566   4.878 -0.3392 -0.4173 -0.1714
 5886W        W23410   9.817  13.874   2.157 -0.0090 -0.0037 -0.1189
 5887W        W23411  13.019   2.233   5.159  0.1676 -0.0315 -0.2132
 5888W        W23412   3.819   1.503  15.728 -0.0218  0.0616 -0.2748
 5889W        W23413   6.996  15.353  15.243  0.1079 -0.3457  0.1215
 5890W        W23414   3.583   0.297  16.178 -0.0763 -0.3196 -0.1548
 5891W        W23415  11.232  12.471   4.586  0.1920  0.0426 -0.4161
 5892W        W23416  10.997  15.915  17.020  0.2210 -0.0522  0.0921
 5893W        W23417  14.004   9.528  14.262  0.2387  0.0378 -0.0836
 5894W        W23418   7.343  12.616   2.576 -0.1737 -0.1029  0.0648
 5895W        W23419  16.621   5.181   0.710  0.1019  0.0352 -0.2688
 5896W        W23420  11.979   3.729   4.056 -0.1211 -0.1751 -0.0457
 5897W        W23421   3.136  17.228  12.757 -0.0132 -0.1733 -0.0333
 5898W        W23422  12.242   8.057  13.384 -0.0618 -0.2300 -0.0990
 5899W        W23423  10.322  15.710   0.972 -0.3831  0.1347  0.0072
 5900W        W23424   6.322   7.682  16.669  0.0275 -0.0840 -0.2861
 5901W        W23425   2.572   9.493   1.852  0.0298  0.0757 -0.0732
 5902W        W23426   3.050   2.351  13.497 -0.1218  0.0687 -0.0601
 5903W        W23427   5.279   0.934   3.037 -0.0459  0.1188 -0.2407
 5904W        W23428   4.177   1.944   4.692  0.1350 -0.1265  0.1544
 5905W        W23429   6.633   5.923  16.346 -0.1338 -0.0073  0.0970
 5906W        W23430   6.805   1.105   5.209 -0.0589  0.2862 -0.2204
 5907W        W23431   3.068  14.181   0.796  0.2825 -0.1121 -0.1067
 5908W        W23432  12.609   2.143   2.011  0.1554  0.1028  0.2209
 5909W        W23433  11.794   9.684   4.048 -0.0010 -0.1498  0.1763
 5910W        W23434   0.811  10.381   1.872  0.1030  0.2443  0.3109
 5911W        W23435  15.154   3.850   0.678  0.3283 -0.1765  0.0889
 5912W        W23436  13.417   9.840  15.488 -0.1719  0.1874 -0.2619
 5913W        W23437  16.828  11.646  12.030  0.0131  0.0087 -0.0576
 5914W        W23438  12.113   2.419  13.997  0.0546  0.2521 -0.1437
 5915W        W23439   5.843  13.701   0.015 -0.2431  0.3195 -0.0639
 5916W        W23440   4.583  15.674   2.907  0.1076 -0.2069 -0.2738
 5917W        W23441  15.616  14.589   2.675  0.0361  0.1239  0.2489
 5918W        W23442  15.412  16.323  15.735  0.2388  0.0384 -0.1747
 5919W        W23443  13.549   6.717  17.048 -0.3335 -0.0843 -0.0167
 5920W        W23444   7.589  11.658   3.536  0.2166  0.0357  0.0512
 5921W        W23445   2.722  12.078   3.355  0.2775 -0.2117 -0.0708
 5922W        W23446   1.696  14.511   5.180  0.0718  0.3035 -0.3915
 5923W        W23447  16.439   4.357  12.628 -0.1709 -0.1337  0.0562
 5924W        W23448   3.443  13.672  13.136  0.1717 -0.1722 -0.2431
 5925W        W23449   3.003  12.473   4.258 -0.1876  0.3225  0.2755
 5926W        W23450  12.791  12.771   2.868  0.0235 -0.2107  0.1377
 5927W        W23451   6.859   7.534  14.875  0.0063 -0.1553  0.0074
 5928W        W23452   1.804   9.816   0.333 -0.1109  0.3108  0.1872
 5929W        W23453   0.936   8.179   4.527  0.1863 -0.0675  0.1859
 5930W        W23454  13.175  12.026  17.018  0.2733 -0.0065  0.0736
 5931W        W23455   5.580  11.505  13.954 -0.1294  0.3842 -0.0223
 5932W        W23456  11.848  15.518   1.651 -0.2825  0.2555 -0.0402
 5933W        W23457   4.550   1.137  14.654  0.1254 -0.1651  0.0909
 5934W        W23458  14.562  14.721  13.905 -0.1205  0.0274 -0.3910
 5935W        W23459  10.678  14.312  13.960 -0.1696  0.0735  0.1604
 5936W        W23460  10.781   3.581  13.248  0.1965 -0.0996  0.0313
 5937W        W23461  13.573   9.175   0.889 -0.1446  0.0764  0.3594
 5938W        W23462   6.099   5.424  16.038 -0.0753  0.1057 -0.1859
 5939W        W23463  15.384   1.033   3.412 -0.0867  0.1926 -0.2449
 5940W        W23464   2.786  10.340  15.618 -0.1585  0.2250  0.0037
 5941W        W23465  15.291   9.911  14.251  0.0596  0.0441  0.2533
 5942W        W23466   7.181  12.318  15.161 -0.4168  0.0906 -0.2792
 5943W        W23467   8.911  13.088  15.617  0.1924  0.0259 -0.1161
 5944W        W23468  11.893   0.243  17.244  0.1991  0.1798  0.0522
 5945W        W23469   6.348   7.875   3.324  0.1466  0.4131 -0.0295
 5946W        W23470  14.033   0.918   1.065 -0.1867 -0.1463  0.0673
 5947W        W23471   6.817   5.933   2.717  0.2312 -0.1173 -0.2672
 5948W        W23472   5.502   5.028  13.592 -0.1424  0.0894 -0.3313
 5949W        W23473   6.159   9.953  16.826 -0.1296 -0.1600 -0.1493
 5950W        W23474   9.921  15.604   0.490  0.2130  0.0024  0.1666
 5951W        W23475   9.608  13.580  17.312 -0.2131  0.0660 -0.0185
 5952W        W23476  12.669  11.239  12.588 -0.0885 -0.3752  0.0366
 5953W        W23477  14.326  12.742   5.211  0.1525 -0.4043 -0.0433
 5954W        W23478   9.679   7.859  16.146 -0.3457 -0.0984 -0.0545
 5955W        W23479  10.230  13.545   3.597  0.3479 -0.2120 -0.3709
 5956W        W23480  17.085   7.674   0.089 -0.2934  0.1897 -0.3847
 5957W        W23481  16.784   3.501  14.784  0.0762  0.2930 -0.1643
 5958W        W23482   9.034   0.938   2.329 -0.1981 -0.4201 -0.1003
 5959W        W23483   8.926  10.907  17.133  0.0137  0.0176 -0.0319
 5960W        W23484  14.731  11.224   4.949  0.5164  0.0008 -0.2376
 5961W        W23485  15.515  10.678   4.677 -0.4545 -0.1042  0.1332
 5962W        W23486  11.776   4.363  16.953  0.0534 -0.0171  0.0761
 5963W        W23487   5.520   3.670   3.358 -0.2594  0.0824 -0.0617
 5964W        W23488  16.869   5.281   4.507  0.0530 -0.0219 -0.1887
 5965W        W23489   9.995  17.042  13.939  0.0312  0.0591 -0.0620
 5966W        W23490   5.532   2.072   1.634  0.0393 -0.2809  0.1966
 5967W        W23491   2.245   4.257  11.730 -0.0534 -0.1285  0.3217
 5968W        W23492   7.643  13.488  14.810  0.0609  0.1323  0.3588
 5969W        W23493   6.921   3.760   3.229 -0.3157 -0.0889 -0.3559
 5970W        W23494   6.029   9.639  12.893  0.0411  0.0935  0.1369
 5971W        W23495   5.997  16.809   0.131  0.0048  0.0642  0.2744
 5972W        W23496   0.832   5.210  12.804  0.1076 -0.2184  0.0299
 5973W        W23497  12.915   6.868   3.601 -0.1862 -0.0244 -0.0326
 5974W        W23498  10.674   7.005  14.545 -0.1055 -0.0787 -0.0494
 5975W        W23499   2.923   0.314   3.480  0.2116 -0.0427 -0.1076
 5976W        W23500   7.669   4.951   6.080 -0.0814  0.1343  0.0857
 5977W        W23501  13.076  13.296  15.603 -0.3305  0.0035  0.2973
 5978W        W23502  15.207   4.062  17.493  0.0658  0.0212  0.0255
 5979W        W23503  15.532  12.831   2.612 -0.1429 -0.2478  0.0411
 5980W        W23504  12.099   9.393  13.124 -0.1985  0.1056  0.3205
 5981W        W23505   3.180   3.639   0.933  0.0539  0.1777 -0.2384
 5982W        W23506  13.193   7.514  16.109  0.0392  0.2085  0.1802
 5983W        W23507   1.077   3.467   0.825  0.0920 -0.0818 -0.2818
 5984W        W23508  15.421   9.453  17.462 -0.0856  0.2000 -0.0632
 5985W        W23509   6.698   1.339  14.497 -0.2247 -0.1066  0.0904
 5986W        W23510   8.368   8.164  13.037 -0.0481  0.2507  0.0225
 5987W        W23511  10.202   1.537  16.335  0.2789 -0.0310  0.1024
 5988W        W23512  10.412   0.241   1.644 -0.0068 -0.3642 -0.1465
 5989W        W23513   4.741  16.033   3.703  0.4726 -0.0781 -0.2334
 5990W        W23514   8.253  11.003   5.184  0.0616  0.3391 -0.0924
 5991W        W23515   8.707   0.157   2.323 -0.2077 -0.5132 -0.2031
 5992W        W23516  14.688   1.405  13.928  0.1365  0.0200  0.1403
 5993W        W23517   2.284   7.277   2.243 -0.0935  0.1215  0.1897
 5994W        W23518   1.108   6.944   0.903 -0.0744 -0.1291  0.0171
 5995W        W23519   1.758  16.790   5.472 -0.0808 -0.2249 -0.2124
 5996W        W23520   1.379   6.617   4.938  0.1944  0.1136 -0.3076
 5997W        W23521  13.364  12.079  16.532  0.4635  0.1091 -0.1407
 5998W        W23522   1.856  13.339   0.966 -0.2695 -0.1714 -0.2585
 5999W        W23523   0.364   3.200  14.782  0.0939 -0.0505  0.1591
 6000W        W23524  12.885   4.343   5.212 -0.2421  0.1958 -0.0878
 6001W        W23525  16.771   5.476   3.915  0.0887 -0.1367 -0.0095
 6002W        W23526   0.913  12.171  16.840  0.1508 -0.0703  0.2832
 6003W        W23527   3.829  11.841  15.834 -0.0658  0.0095 -0.1321
 6004W        W23528   2.773   9.803   3.799 -0.1370  0.0466 -0.1260
 6005W        W23529   2.016   9.179  13.930  0.0980  0.0924 -0.0512
 6006W        W23530   9.202  11.051  16.681  0.0425  0.0588 -0.0853
 6007W        W23531  15.614   4.517  17.144  0.2261 -0.0149  0.1775
 6008W        W23532  13.007  11.571  13.734  0.0277 -0.0567  0.0139
 6009W        W23533  12.616   0.686   3.039  0.0285  0.0130 -0.1038
 6010W        W23534  13.362  16.932   2.524 -0.1503  0.0444 -0.0401
 6011W        W23535   2.758  14.252   4.967 -0.1239  0.0633 -0.0973
 6012W        W23536   1.430  12.619   0.229 -0.2941  0.2301 -0.3712
 6013W        W23537   8.135   6.981   2.575  0.1196 -0.1952 -0.1954
 6014W        W23538   5.637  12.328   0.763 -0.1327  0.1143  0.0365
 6015W        W23539  14.171   0.292  17.579 -0.1939 -0.0320  0.0492
 6016W        W23540   4.897   9.923  12.764  0.1711 -0.0361 -0.0030
 6017W        W23541   1.310  13.154   1.449  0.0573 -0.1643 -0.1730
 6018W        W23542  17.122   3.143  12.894 -0.0976  0.0239 -0.0398
 6019W        W23543   1.261   5.173  14.717 -0.2046  0.2231  0.1743
 6020W        W23544   1.635   8.461  15.171  0.0810 -0.0247  0.2176
 6021W        W23545   1.709  14.273   3.885 -0.0938  0.2118  0.1370
 6022W        W23546   8.476   4.996   0.419 -0.1484  0.1626  0.0037
 6023W        W23547   0.332   1.196   4.596 -0.1678  0.0614  0.1363
 6024W        W23548   5.603   1.715   2.076  0.1027  0.4639  0.0048
 6025W        W23549  12.368   7.370   5.199 -0.0358 -0.1985  0.0393
 6026W        W23550  10.432  15.490   0.232  0.0628 -0.0963  0.2222
 6027W        W23551   4.512   5.052  13.142  0.1338  0.0278 -0.0074
 6028W        W23552   3.989   3.536   2.752 -0.2433  0.1083 -0.0422
 6029W        W23553   9.427   3.323  15.520  0.0221 -0.2164 -0.0571
 6030W        W23554   9.148   5.077  15.979  0.1805 -0.0135 -0.2037
 6031W        W23555   7.736   4.933  15.551  0.2509  0.1414 -0.0211
 6032W        W23556   0.068   3.943  17.290 -0.0554 -0.0892 -0.0894
 6033W        W23557  12.175  13.345  12.998 -0.0631 -0.1180 -0.1068
 6034W        W23558   3.951   9.678   4.737  0.0527  0.1952 -0.1909
 6035W        W23559   8.508   9.882   2.490 -0.3095 -0.0795 -0.3059
 6036W        W23560   1.909   7.564  12.834 -0.1620 -0.1041  0.0321
 6037W        W23561  11.494   6.344  13.894 -0.1274  0.2456 -0.2713
 6038W        W23562   7.056   3.049   0.233  0.0447  0.1289 -0.0510
 6039W        W23563   2.824   8.120  12.652  0.2187 -0.2294  0.0893
 6040W        W23564   1.334   9.814  16.427 -0.0138 -0.2165 -0.1578
 6041W        W23565  13.138  12.849   3.627 -0.0980  0.0588 -0.1249
 6042W        W23566   6.139   7.059   3.195  0.1819  0.1303 -0.1527
 6043W        W23567   8.285  11.353  16.784  0.0497  0.1793 -0.0593
 6044W        W23568   4.002   3.992   5.157  0.0783 -0.0510 -0.1384
 6045W        W23569   3.063   1.013  14.396  0.2830  0.0895  0.0044
 6046W        W23570   2.933   5.509  13.160 -0.0149  0.1838 -0.2276
 6047W        W23571   7.738  11.012   1.747  0.1725  0.2597  0.1832
 6048W        W23572  11.440   3.184   0.745 -0.3641  0.0142  0.4354
 6049W        W23573   4.300   0.882  13.251  0.0993  0.0380 -0.0055
 6050W        W23574   3.655   9.244   1.587 -0.2051  0.2759 -0.0907
 6051W        W23575   9.061   6.749  14.640  0.1302 -0.2041  0.2081
 6052W        W23576  16.488   8.176   0.481 -0.4975  0.0242 -0.1835
 6053W        W23577   7.564  12.525  14.453  0.1895  0.0129  0.1407
 6054W        W23578   8.661   5.644  14.250  0.2917 -0.1035  0.0695
 6055W        W23579  15.742   2.323   3.039  0.0026 -0.1038  0.2528
 6056W        W23580   6.254   8.206  12.732  0.2882  0.0792  0.0519
 6057W        W23581   6.717  16.450   2.412  0.1819  0.3298  0.0699
 6058W        W23582  10.753  12.381   3.432  0.1456 -0.1420  0.0692
 6059W        W23583   7.294   8.346  17.318 -0.0317  0.1914  0.1101
 6060W        W23584   7.247   3.681  12.583  0.0283 -0.0063  0.0896
 6061W        W23585   4.140  15.931   2.795 -0.1781  0.1315 -0.0294
 6062W        W23586   2.323   0.606  16.148  0.1163 -0.0465 -0.1017
 6063W        W23587   0.707   5.077   2.231  0.0398 -0.2239 -0.0553
 6064W        W23588   8.411   9.801  16.507  0.1147  0.1877 -0.0687
 6065W        W23589   8.177   4.824   5.102 -0.2916 -0.1307 -0.0585
 6066W        W23590   9.330  11.825   5.156 -0.2116 -0.1167  0.1522
 6067W        W23591   9.552   5.423  12.961 -0.0496  0.3941 -0.3550
 6068W        W23592  16.113   1.903  13.434  0.0322  0.0574 -0.3803
 6069W        W23593   6.977  12.956  16.476  0.3346  0.2574 -0.1570
 6070W        W23594  10.634   1.480  12.421  0.4367 -0.2845 -0.2231
 6071W        W23595  14.325   1.472  13.615  0.0772 -0.0153  0.2063
 6072W        W23596   8.446   1.086  16.316  0.0620 -0.1933 -0.1298
 6073W        W23597   4.017  15.118   0.533 -0.0047  0.1285 -0.0196
 6074W        W23598  11.819   2.656   2.501 -0.0625 -0.0530  0.0483
 6075W        W23599   1.197   0.620  13.919  0.2723 -0.1619  0.0397
 6076W        W23600  13.686  13.156  16.297 -0.1930 -0.1387  0.1802
 6077W        W23601  12.019  11.808  13.068  0.0575  0.2028 -0.0378
 6078W        W23602   4.482   6.787  16.404 -0.1177 -0.2750 -0.1176
 6079W        W23603   4.519  12.318  13.450  0.0735 -0.2646  0.2287
 6080W        W23604   0.706   5.322   5.313  0.0676 -0.1073 -0.2002
 6081W        W23605   9.311  13.950  14.102 -0.0685  0.2121  0.3161
 6082W        W23606  10.581   1.371  13.520 -0.0217 -0.0349  0.1246
 6083W        W23607  14.337   0.172  16.686 -0.0454 -0.0510 -0.0189
 6084W        W23608   5.367  17.154  14.033 -0.0325  0.1115  0.1488
 6085W        W23609  10.861   3.851  14.605  0.4478  0.2638  0.2047
 6086W        W23610  16.699   3.301   2.336  0.1873  0.0504  0.1339
 6087W        W23611   7.900   4.953   0.782 -0.5308 -0.3109 -0.2630
 6088W        W23612   6.448   0.654  12.244 -0.2525 -0.3209 -0.0121
 6089W        W23613   0.592   9.607   2.317  0.3478  0.4176  0.2685
 6090W        W23614   6.482   1.746  15.243 -0.1493 -0.1895  0.1131
 6091W        W23615   7.687  13.574  13.880 -0.1936  0.0542  0.1227
 6092W        W23616  10.348   3.661   4.398 -0.2915 -0.1194  0.0111
 6093W        W23617  16.641   8.468   2.139 -0.0247  0.0841 -0.0193
 6094W        W23618  12.212   9.909   4.213  0.0665 -0.1030 -0.1241
 6095W        W23619   5.938   0.129  17.525  0.0134 -0.1485  0.1253
 6096W        W23620   5.588   7.088   5.354 -0.3864  0.1112 -0.2226
 6097W        W23621   6.166   3.307   0.664 -0.0758 -0.0530 -0.1310
 6098W        W23622  10.279  14.545   2.857  0.0037 -0.2015  0.3044
 6099W        W23623   4.371   5.578  13.112  0.0266  0.4184 -0.2776
 6100W        W23624  13.179   5.916   3.570  0.0211 -0.1960 -0.1653
 6101W        W23625   8.976   1.792  16.299 -0.1620 -0.3134  0.1232
 6102W        W23626   7.671  14.728   4.664 -0.0491  0.1675  0.2423
 6103W        W23627  12.817   0.531   0.279 -0.2037  0.3233  0.1588
 6104W        W23628  11.355   6.978   3.734 -0.0056 -0.1434 -0.0371
 6105W        W23629   7.075   1.611   1.992 -0.0614 -0.1792 -0.0356
 6106W        W23630   5.350   5.866  12.955 -0.1852  0.1015  0.0480
 6107W        W23631  17.115  12.446   1.150  0.2694 -0.2320 -0.1055
 6108W        W23632  15.237  16.628   1.344 -0.1054  0.1824 -0.0674
 6109W        W23633  15.938   6.105  14.548  0.1797  0.0027 -0.1115
 6110W        W23634  16.186   9.064   0.481 -0.1617 -0.0395 -0.2397
 6111W        W23635   9.101   3.249   2.992  0.0511 -0.0074  0.3423
 6112W        W23636   9.950  13.950   1.179 -0.0205  0.1930  0.2743
 6113W        W23637   4.527   4.795  17.333  0.3190  0.1513 -0.2341
 6114W        W23638   9.632   9.020  13.548 -0.2363 -0.1040 -0.3116
 6115W        W23639   9.369   0.003   4.475  0.1326  0.4183 -0.2542
 6116W        W23640  11.009  15.891   4.097  0.1425  0.2194 -0.0871
 6117W        W23641  14.091  15.990   1.691  0.5208  0.0295  0.2278
 6118W        W23642  14.188   1.938   4.341  0.2128  0.0729  0.0345
 6119W        W23643  14.080   8.892  13.613  0.0350  0.3246 -0.1452
 6120W        W23644   5.320   3.437  14.325 -0.0439  0.1230  0.0305
 6121W        W23645   0.546  13.190   4.101 -0.0212  0.1468  0.2547
 6122W        W23646   8.866   3.953  12.205 -0.0866 -0.5112  0.0507
 6123W        W23647   5.243  13.498  17.061  0.0435  0.1431 -0.2392
 6124W        W23648  13.323   7.527   3.345  0.0709 -0.1841  0.0028
 6125W        W23649   5.629   6.666   3.939 -0.2109  0.1351 -0.0480
 6126W        W23650   3.230   2.301   6.274 -0.0866  0.1746  0.1324
 6127W        W23651  11.309  16.258   0.667 -0.0118 -0.0428  0.1431
 6128W        W23652  13.525   8.279   3.846 -0.0490 -0.0444 -0.2510
 6129W        W23653   2.833   7.413  16.381 -0.1813 -0.1487  0.3397
 6130W        W23654  12.621  16.095  12.893 -0.0595  0.2806 -0.2158
 6131W        W23655  11.847   6.500   2.267 -0.3640 -0.0811 -0.0984
 6132W        W23656  11.303  13.330   5.510  0.0852  0.1962 -0.1058
 6133W        W23657  16.911  12.741   0.779  0.0444 -0.0188  0.3850
 6134W        W23658   8.210  10.790   4.705 -0.2685 -0.3415  0.0793
 6135W        W23659   4.766   1.697  17.130  0.0819  0.0034 -0.1222
 6136W        W23660   6.924  15.901  12.180  0.1488  0.0380  0.2757
 6137W        W23661  16.042  10.385  16.618 -0.0365  0.0119 -0.0713
 6138W        W23662   9.242   2.562   4.286 -0.1023  0.0756 -0.0854
 6139W        W23663  17.043   6.076  14.512 -0.1652  0.2047 -0.3975
 6140W        W23664   2.333   2.810  13.227 -0.1883  0.0412 -0.1320
 6141W        W23665  13.572  17.152   2.175 -0.0556 -0.1101  0.0813
 6142W        W23666   2.838   9.206   3.468  0.0088  0.0080 -0.0272
 6143W        W23667  14.746   8.817   5.144 -0.1821  0.2604  0.0040
 6144W        W23668  10.510  14.794  14.955  0.0871 -0.2013  0.2723
 6145W        W23669  13.983  15.386   4.259  0.1116  0.1907 -0.1918
 6146W        W23670  17.140   0.728   3.332  0.1805 -0.1559 -0.1761
 6147W        W23671  16.645  12.454   5.733 -0.1375 -0.0588 -0.0352
 6148W        W23672   6.186  15.342  15.518  0.0413 -0.2118 -0.1145
 6149W        W23673  14.130  13.238   4.731  0.1396  0.2002  0.0234
 6150W        W23674   5.611   4.496   4.985  0.0045  0.2191  0.0747
 6151W        W23675   9.868   7.179  12.734 -0.1350 -0.1911  0.0887
 6152W        W23676   3.130   4.638   1.492  0.1391  0.1067  0.0378
 6153W        W23677  11.656   6.369  13.368 -0.0701 -0.1307  0.0582
 6154W        W23678   1.590   5.684   0.268 -0.1035  0.5532  0.1251
 6155W        W23679  13.851  12.923   0.287  0.0607 -0.0035  0.0583
 6156W        W23680  15.913   6.159  16.366  0.2708  0.0002 -0.0675
 6157W        W23681   5.337  10.859  13.605 -0.1470  0.1502  0.1514
 6158W        W23682   9.268  12.210  17.237 -0.0096 -0.0688  0.0236
 6159W        W23683  13.779  16.637   0.892  0.1321  0.0663 -0.1027
 6160W        W23684   5.788  16.178  13.284 -0.0750 -0.0319  0.3130
 6161W        W23685  11.278   3.142  16.180  0.2444 -0.1028 -0.1249
 6162W        W23686   3.106  16.313   0.963  0.2448 -0.0049  0.2822
 6163W        W23687   2.591   4.191  15.631 -0.0322  0.2728  0.1515
 6164W        W23688  16.453   7.594   5.128  0.0761  0.0756  0.1434
 6165W        W23689  10.532   8.151   3.814 -0.1940 -0.1083 -0.2354
 6166W        W23690   4.216  15.361   2.810  0.3539 -0.1850  0.1757
 6167W        W23691   6.672   7.070  12.992 -0.0096 -0.0128 -0.2101
 6168W        W23692   6.959   3.607  14.510  0.2702  0.2630 -0.3265
 6169W        W23693  16.993  15.202   0.032  0.1389 -0.0734 -0.2576
 6170W        W23694   1.244  12.743  16.239  0.2872 -0.0976 -0.0168
 6171W        W23695   5.264   5.408  16.461  0.1468 -0.1645  0.0537
 6172W        W23696  14.505  15.476  13.194  0.2514 -0.0517 -0.2079
 6173W        W23697   1.256   1.477   2.647  0.3559 -0.0512 -0.1224
 6174W        W23698   3.597   7.298   3.818  0.1532  0.0512 -0.0364
 6175W        W23699  15.025  12.733   2.706  0.0410  0.4153 -0.1247
 6176W        W23700  15.536   1.933  15.746 -0.0504  0.0852 -0.1762
 6177W        W23701   3.622  11.768  12.848 -0.1627 -0.2620 -0.0535
 6178W        W23702  10.031   6.012  16.358 -0.0415  0.1629 -0.3920
 6179W        W23703  16.501  15.773  15.732 -0.2947 -0.0608  0.0505
 6180W        W23704  14.819  10.815  14.062  0.1034  0.0815 -0.0364
 6181W        W23705   9.805  14.377   3.209  0.0428 -0.1091  0.0347
 6182W        W23706  13.792   5.580   1.139 -0.5816  0.0786  0.0873
 6183W        W23707   1.811  16.417   4.492 -0.1553 -0.0517 -0.0969
 6184W        W23708  14.302   6.624  16.466 -0.1563  0.1886  0.0464
 6185W        W23709   2.072  12.777  13.709  0.0182 -0.0309  0.2256
 6186W        W23710   3.991  10.227  17.565 -0.2223 -0.2211 -0.0098
 6187W        W23711   9.355   7.341  14.845 -0.2369  0.0773  0.3624
 6188W        W23712   7.180   9.237   3.303  0.2833 -0.0887 -0.1515
 6189W        W23713  10.590   9.216   5.690 -0.1898 -0.1136  0.1523
 6190W        W23714   1.231  16.639  13.347 -0.0337 -0.0134 -0.0201
 6191W        W23715   9.848   5.784   0.157  0.1229 -0.1703 -0.4498
 6192W        W23716  17.194   7.413  13.956  0.0717 -0.2346 -0.0233
 6193W        W23717   5.347  16.464   0.501  0.0678  0.0603  0.0202
 6194W        W23718  14.573   0.112   0.755  0.3840  0.1123 -0.0696
 6195W        W23719  11.092   7.107  17.388 -0.4303  0.0992 -0.1358
 6196W        W23720   7.946   0.725   2.746 -0.0373 -0.1197  0.1146
 6197W        W23721   9.031  16.006  14.085  0.1166  0.2773  0.0989
 6198W        W23722   2.684   0.727  16.550 -0.1520 -0.3342  0.0574
 6199W        W23723   7.327   3.030  15.982 -0.3504 -0.3682  0.1243
 6200W        W23724   9.335   1.392  14.370 -0.2240  0.0438  0.1305
 6201W        W23725   4.750  12.319   4.916  0.2259 -0.0377  0.2189
 6202W        W23726   6.661  14.052  16.919  0.1696 -0.0938 -0.0536
 6203W        W23727   3.285  11.218  13.660 -0.0137  0.0816 -0.0362
 6204W        W23728   2.991  15.215   4.070  0.1257  0.2681 -0.2682
 6205W        W23729  14.063   0.209  14.301 -0.1854 -0.0819  0.3659
 6206W        W23730  10.446  12.829  13.741  0.0134 -0.1638 -0.0894
 6207W        W23731  14.095   4.819   0.245  0.0070  0.0184  0.0021
 6208W        W23732   0.070   6.741  17.474  0.2754  0.1647 -0.2234
 6209W        W23733   8.473   4.469   6.035  0.1352  0.2887  0.3451
 6210W        W23734  14.498   4.923  16.251  0.0790 -0.1719 -0.0951
 6211W        W23735   5.402  11.585   4.134  0.1245 -0.2694 -0.0881
 6212W        W23736  15.929  13.189   0.038 -0.0085  0.1062  0.0927
 6213W        W23737   0.250  10.827  13.818 -0.0632 -0.1684 -0.2596
 6214W        W23738   7.852   1.602  15.060  0.0021  0.2088  0.0393
 6215W        W23739   3.356  12.822   4.950  0.2430 -0.4257 -0.0635
 6216W        W23740   9.849  11.686  12.514  0.2010  0.4091  0.0500
 6217W        W23741  16.023   4.091   3.087  0.4051  0.0608  0.0781
 6218W        W23742   1.405   0.081   3.241  0.2065  0.2010  0.0306
 6219W        W23743   6.707   0.300   3.285 -0.1959 -0.1486 -0.1625
 6220W        W23744   3.865   7.956   3.290  0.0194 -0.1528 -0.1315
 6221W        W23745  15.452  15.912  13.845 -0.5293  0.0404 -0.1196
 6222W        W23746  15.688   0.161  16.586 -0.2297  0.0089 -0.1522
 6223W        W23747  15.745   4.203  13.837  0.0108 -0.1213  0.0074
 6224W        W23748  11.369   8.858   2.821 -0.0494  0.3124  0.0563
 6225W        W23749  10.034   7.046  16.524 -0.0535  0.3186  0.0695
 6226W        W23750  11.161   8.985  15.320 -0.1153 -0.0842  0.1443
 6227W        W23751  10.310   6.711   2.384  0.1127 -0.0656 -0.0112
 6228W        W23752  15.617  10.376   1.491  0.2718 -0.3601  0.1424
 6229W        W23753  15.749   1.409  15.422 -0.1557  0.0372 -0.2279
 6230W        W23754  14.893   7.776   0.998 -0.0353 -0.0545  0.1328
 6231W        W23755   2.688   0.032   3.039  0.0701 -0.0864  0.0060
 6232W        W23756  10.045   6.389  12.640 -0.2106 -0.1923  0.3465
 6233W        W23757  15.753   7.721  12.781 -0.0537 -0.3206 -0.1677
 6234W        W23758  12.574   2.023   6.437  0.0298  0.0317  0.0834
 6235W        W23759   7.044  12.456   5.409  0.1810 -0.3244 -0.1626
 6236W        W23760  12.565  16.671  15.451 -0.1237 -0.1725 -0.1299
 6237W        W23761  12.205  11.773  12.223 -0.2809  0.1631 -0.1685
 6238W        W23762   8.576  10.677   5.176  0.0742 -0.0755  0.0344
 6239W        W23763   4.482   8.007   2.370 -0.1428 -0.1366 -0.1195
 6240W        W23764   8.007   9.416  14.076  0.2487  0.2900  0.1956
 6241W        W23765   7.707   4.748  16.902 -0.0593  0.0326  0.1080
 6242W        W23766   7.881   9.853  13.011  0.1871 -0.0803 -0.2320
 6243W        W23767  12.070   4.641  13.531 -0.2098  0.0597  0.2190
 6244W        W23768   0.396  10.929  16.596  0.0776  0.2265  0.0013
 6245W        W23769   6.944   6.558  12.342 -0.1737 -0.0348 -0.0027
 6246W        W23770   2.244  14.844  12.425  0.2113 -0.1820 -0.3820
 6247W        W23771   3.190  14.747  16.105  0.0461 -0.1467 -0.0449
 6248W        W23772   0.837   8.692  16.041  0.5197 -0.0791 -0.1655
 6249W        W23773  13.445  13.203  15.197 -0.0954 -0.1817  0.2728
 6250W        W23774   6.553   5.052  12.691 -0.1589  0.1801 -0.2980
 6251W        W23775   7.535  11.973   4.709  0.3730  0.0434 -0.1412
 6252W        W23776   9.240  11.515  13.443 -0.1373 -0.2866  0.0826
 6253W        W23777  14.127   1.661  16.939  0.1763  0.1018 -0.1236
 6254W        W23778  11.485  10.316  17.304 -0.1358  0.0170  0.0202
 6255W        W23779  13.052   1.413  15.838  0.0790 -0.2230  0.1674
 6256W        W23780   0.697  15.438  13.437  0.2445  0.0416  0.1519
 6257W        W23781  16.283  16.718  16.956  0.0757 -0.0442  0.0567
 6258W        W23782   7.312   3.128   3.904 -0.1170  0.0232 -0.0534
 6259W        W23783   0.420   7.883  16.358 -0.1298 -0.5696  0.2046
 6260W        W23784   2.129  13.781   2.761  0.1393 -0.0327  0.0804
 6261W        W23785  15.509   7.326   1.543 -0.0285 -0.0569  0.0436
 6262W        W23786   9.809  10.923  17.458  0.0234 -0.0528 -0.0770
 6263W        W23787   5.297   8.163   5.540 -0.2686 -0.1912  0.1533
 6264W        W23788  16.222  15.072  16.739  0.1372  0.2185 -0.0942
 6265W        W23789   4.355  15.241  12.213  0.4043  0.0981  0.0951
 6266W        W23790   3.515  11.222   3.143 -0.1924  0.3424 -0.1709
 6267W        W23791   0.080   8.562  15.646 -0.1987 -0.0956  0.1071
 6268W        W23792   2.975  14.278   4.463 -0.0605  0.1107 -0.0040
 6269W        W23793  11.465   9.085   4.730 -0.1325 -0.1685  0.0303
 6270W        W23794   9.592   0.465   1.104 -0.0679  0.0954 -0.1455
 6271W        W23795   1.033  12.791  17.573 -0.0699  0.1241  0.1236
 6272W        W23796   1.879  11.701  16.064  0.3562 -0.1694  0.0491
 6273W        W23797   5.234   2.261  16.526 -0.1493 -0.3611  0.2072
 6274W        W23798  17.124  13.064   1.145 -0.0551  0.0897 -0.3069
 6275W        W23799  16.366   8.873  15.286  0.1678  0.1618  0.2817
 6276W        W23800   0.581   8.065   0.086 -0.4029  0.2810 -0.1587
 6277W        W23801   4.757   2.917  16.031  0.0372 -0.1294  0.1137
 6278W        W23802  10.491   2.893  12.655  0.5120  0.0021 -0.1697
 6279W        W23803   9.466  12.680   2.115 -0.1701  0.2366 -0.6238
 6280W        W23804   5.633   8.255   2.998 -0.0617 -0.2617  0.1063
 6281W        W23805  15.528  16.910  14.017 -0.0023  0.2441  0.1234
 6282W        W23806   0.623   9.739   0.828  0.3613  0.1097 -0.5470
 6283W        W23807   9.388  13.712   2.332 -0.2172 -0.3612  0.1295
 6284W        W23808  12.352   5.247   2.236 -0.2131  0.0257 -0.1227
 6285W        W23809  12.579   6.798  14.910 -0.0769  0.0702 -0.1685
 6286W        W23810  11.641   3.149  13.775  0.1714 -0.1256  0.1306
 6287W        W23811  14.062   6.479  13.360  0.0407  0.1257 -0.0708
 6288W        W23812   1.694   8.924  16.515 -0.0555 -0.0817 -0.0325
 6289W        W23813   4.175  12.433   3.851 -0.1749  0.1636 -0.1668
 6290W        W23814   7.298  12.145  16.945 -0.2829  0.0059  0.0087
 6291W        W23815  14.842  16.004   0.212  0.1451 -0.2409 -0.0603
 6292W        W23816   5.202   9.103   1.071  0.0573  0.2968  0.0805
 6293W        W23817  14.732  16.118  12.031 -0.1709  0.2040  0.1135
 6294W        W23818   4.019   9.834   3.490 -0.2434 -0.1700 -0.0396
 6295W        W23819  13.055  16.058  14.740  0.1219 -0.0393  0.0319
 6296W        W23820   3.337   8.412  17.221  0.2490 -0.0288 -0.0980
 6297W        W23821   2.803  13.669  17.304  0.1315  0.2391  0.2720
 6298W        W23822  13.301  14.120  12.015 -0.1283  0.0814  0.0186
 6299W        W23823   3.496   1.041   2.435 -0.1123  0.0555 -0.1761
 6300W        W23824   7.214   9.072  13.453  0.0722 -0.0699 -0.1954
 6301W        W23825  15.524   6.583  14.506  0.0145  0.1142 -0.1091
 6302W        W23826  12.515   2.066  14.041  0.0470  0.0846  0.2235
 6303W        W23827   2.149   1.064   0.623 -0.1294  0.1119 -0.2515
 6304W        W23828  13.442   2.208  16.224  0.0470  0.4224 -0.1537
 6305W        W23829   9.619  11.346   4.185 -0.1029 -0.0607  0.0306
 6306W        W23830  15.639  12.235  16.272 -0.3049  0.1803 -0.7287
 6307W        W23831   5.820  15.727   3.280  0.0428  0.0478 -0.1695
 6308W        W23832  12.187   1.965  12.341  0.2003 -0.0462  0.2972
 6309W        W23833   1.008  15.931   1.271  0.1412 -0.0535 -0.0380
 6310W        W23834  15.218  13.838   3.430  0.0775 -0.0966 -0.0160
 6311W        W23835   7.018   5.916  12.828 -0.1238 -0.2438  0.4650
 6312W        W23836   5.095   6.438  13.474  0.3068  0.0311 -0.0413
 6313W        W23837   9.505   1.416  13.366  0.2531 -0.0873 -0.0907
 6314W        W23838  11.569   2.698   1.993 -0.0887 -0.2557 -0.0302
 6315W        W23839  14.313   8.391   2.085 -0.1776  0.1870  0.1788
 6316W        W23840  10.421   3.881  13.653  0.0087 -0.0471 -0.1424
 6317W        W23841   9.450  15.716   3.207  0.0670  0.0982 -0.0152
 6318W        W23842  15.067   1.872   1.405 -0.0384  0.0303  0.0500
 6319W        W23843  16.797   7.508  17.239 -0.0946  0.0228 -0.1025
 6320W        W23844   2.662  11.107  12.553 -0.2020  0.0187  0.1051
 6321W        W23845   3.976   9.626  16.673 -0.1962  0.1307  0.0456
 6322W        W23846  14.513   8.838  17.111  0.4272  0.1985  0.2571
 6323W        W23847  15.520   0.743  14.159  0.0144 -0.1735 -0.1565
 6324W        W23848   2.928  12.918   1.859 -0.0336  0.0527  0.0640
 6325W        W23849   8.505  15.223  16.427  0.0133 -0.0554  0.0463
 6326W        W23850   2.114  16.441  15.898  0.0723 -0.0300 -0.3197
 6327W        W23851   1.889   3.675  13.359  0.2069  0.1458  0.0580
 6328W        W23852   6.774   8.011   4.049  0.0922  0.0557  0.2505
 6329W        W23853   0.711   0.756   1.221  0.1192  0.0976  0.1983
 6330W        W23854   4.954  13.554   4.418  0.2909 -0.1261  0.0651
 6331W        W23855   5.048  10.391  17.018 -0.1893 -0.0561  0.0538
 6332W        W23856   8.737  13.513   4.053 -0.0941 -0.1011 -0.1053
 6333W        W23857  10.661   6.790  13.183 -0.0913 -0.0283  0.1453
 6334W        W23858  13.883   6.297  16.599 -0.2411  0.0693  0.0771
 6335W        W23859   4.154   0.631   3.426 -0.0484 -0.1798 -0.0804
 6336W        W23860   0.632   6.614   1.957  0.1784  0.0589  0.0281
 6337W        W23861  16.074   5.719   0.301  0.1461 -0.3042  0.1382
 6338W        W23862  13.947   7.685   2.170  0.1007  0.1977 -0.0923
 6339W        W23863  13.152   9.293  12.300  0.3040  0.1664 -0.3300
 6340W        W23864   6.648   6.432  15.000 -0.4489  0.0838 -0.3553
 6341W        W23865   6.066   5.761   4.620 -0.0753 -0.0261 -0.2179
 6342W        W23866   1.010  10.685  17.478 -0.2741 -0.3303  0.1884
 6343W        W23867   9.488  10.601  13.139  0.0125  0.0668 -0.1408
 6344W        W23868  13.641   7.662   3.013  0.0968 -0.1551  0.4298
 6345W        W23869  13.262  13.918  17.325 -0.1634  0.2727 -0.2050
 6346W        W23870   6.942   9.815   5.041 -0.2456  0.1253  0.0803
 6347W        W23871  11.721   3.435   4.339 -0.3296 -0.0917 -0.0524
 6348W        W23872   5.116   9.216   2.946 -0.1623  0.1429 -0.1287
 6349W        W23873   4.769   3.200   4.166  0.0013  0.0122 -0.1702
 6350W        W23874  16.254  16.654  12.459  0.1312  0.1929 -0.0666
 6351W        W23875  16.767  13.338  14.056  0.2209  0.1442 -0.0721
 6352W        W23876  16.819  16.667  15.360  0.1749 -0.1473  0.1161
 6353W        W23877   6.727   9.912  14.435  0.2332  0.0963 -0.4453
 6354W        W23878   9.455   3.889   4.598 -0.0853 -0.3652  0.0009
 6355W        W23879  14.571  15.570   2.445 -0.2682 -0.2180 -0.0322
 6356W        W23880   0.970  14.354  12.189 -0.0734 -0.3567 -0.1688
 6357W        W23881  15.693  11.489   2.663  0.0531 -0.1758 -0.1333
 6358W        W23882  13.871  16.126  14.597  0.0947  0.1412  0.0994
 6359W        W23883  11.456   1.814  13.390 -0.0612  0.0789  0.1819
 6360W        W23884  14.998   8.065   4.512 -0.0014  0.2591 -0.3087
 6361W        W23885   5.398   0.540   6.529  0.0268  0.2874 -0.0156
 6362W        W23886  12.474   7.675  13.617 -0.1148 -0.0347 -0.4701
 6363W        W23887  10.961  10.580   4.971 -0.1451 -0.0441  0.0357
 6364W        W23888   1.726  10.372  15.575 -0.0782 -0.0607 -0.0627
 6365W        W23889  15.370  15.055   4.768 -0.2763  0.2815 -0.0345
 6366W        W23890   7.898   0.286  12.305 -0.3214  0.0040 -0.0137
 6367W        W23891   6.374   5.899  15.839  0.0069 -0.1095 -0.0163
 6368W        W23892  11.397  11.328  11.750 -0.0899 -0.1231 -0.1036
 6369W        W23893  15.122   3.913  14.471  0.0710  0.2177 -0.1131
 6370W        W23894   2.135   6.256   4.989  0.4204  0.0359 -0.3191
 6371W        W23895   4.821   3.156   5.581  0.3462  0.5465  0.0236
 6372W        W23896  14.124   0.387   2.591  0.2507  0.1818 -0.2037
 6373W        W23897  16.529   1.917   5.002  0.2653 -0.0333  0.1199
 6374W        W23898   6.780   2.800  12.349 -0.2497 -0.0707  0.0511
 6375W        W23899  15.847  16.374  16.968  0.0337  0.5452  0.0294
 6376W        W23900   0.809  10.137  12.178  0.0486  0.1117  0.0414
 6377W        W23901   7.277   0.259  12.371 -0.0033 -0.0640 -0.1055
 6378W        W23902  15.313   3.356  12.805 -0.0691 -0.0597 -0.0071
 6379W        W23903   4.663   5.331  12.741  0.2908  0.0739 -0.0002
 6380W        W23904  13.480  13.693   2.699 -0.2138 -0.1360 -0.1029
 6381W        W23905  14.986   7.561   4.623  0.0066  0.0563 -0.2213
 6382W        W23906  11.222  13.408   4.702  0.1401  0.1624  0.0987
 6383W        W23907   0.664  11.473  17.189  0.0260  0.0131 -0.0412
 6384W        W23908   1.213   4.179  17.509 -0.0087 -0.0475  0.2798
 6385W        W23909   4.522   1.008   0.592  0.0146 -0.0038  0.3258
 6386W        W23910  13.052  15.903   2.831 -0.1320  0.2667 -0.0622
 6387W        W23911  12.729   3.957   0.241  0.0409  0.3088 -0.2009
 6388W        W23912   5.812  17.220  15.699 -0.1805  0.0487  0.0161
 6389W        W23913   7.958  10.487   3.489  0.3010  0.1444  0.0180
 6390W        W23914   5.564  16.116   4.189 -0.0668 -0.1989 -0.2636
 6391W        W23915   8.119  14.449  13.847 -0.2843 -0.1353  0.1730
 6392W        W23916   5.255   5.052   1.509 -0.1027  0.1544 -0.1844
 6393W        W23917   9.690  12.487   3.536  0.2039  0.1797 -0.2815
 6394W        W23918  11.390   2.547  15.002  0.1976 -0.3120  0.2013
 6395W        W23919   8.650   1.331   5.181 -0.0471  0.3925 -0.3142
 6396W        W23920  14.970   5.148  13.162  0.3472 -0.2207  0.1552
 6397W        W23921   7.746   6.160   4.467 -0.3284  0.2181  0.0961
 6398W        W23922  14.084   8.465   3.513  0.0705 -0.0428  0.0690
 6399W        W23923   9.252  15.183  14.738  0.0686 -0.0295  0.0624
 6400W        W23924   8.416   7.129   2.100 -0.0307 -0.0094 -0.0965
 6401W        W23925   2.725   7.448   5.232 -0.0613 -0.2970  0.2148
 6402W        W23926  13.226   2.754  13.539  0.0234  0.1910 -0.0376
 6403W        W23927  15.521   2.227  13.895  0.0176 -0.0828  0.2723
 6404W        W23928  11.860  11.606   2.960  0.0196  0.0411  0.0811
 6405W        W23929   0.846  11.896   0.512  0.2632  0.2597 -0.0505
 6406W        W23930  16.792  16.210  15.748  0.0752  0.0786  0.2146
 6407W        W23931   9.234   2.623   1.215  0.4095 -0.0025  0.0134
 6408W        W23932   2.736   9.646  16.169  0.0816 -0.0552 -0.2614
 6409W        W23933  14.064  12.248   2.228 -0.0882  0.1218 -0.2907
 6410W        W23934   2.291   0.715   5.142 -0.1436  0.1589 -0.1482
 6411W        W23935   0.035   8.071   3.728  0.0863 -0.0351 -0.0398
 6412W        W23936  10.670   6.365  16.992  0.0085 -0.0327 -0.1862
 6413W        W23937  14.355   0.476   1.186 -0.1215  0.0455 -0.2900
 6414W        W23938   7.484  15.360  16.460 -0.1096  0.1163 -0.2184
 6415W        W23939  11.833  15.808  16.616 -0.0873 -0.1042  0.0505
 6416W        W23940   6.142   2.389   4.318 -0.1397 -0.0245  0.0898
 6417W        W23941  12.638   8.101   2.800  0.1708 -0.1370 -0.0027
 6418W        W23942  13.492   4.813  14.541  0.0793 -0.1068  0.2860
 6419W        W23943   1.427   5.663   2.833 -0.1981 -0.4400 -0.3390
 6420W        W23944   9.112  13.283  11.586 -0.0811 -0.0032  0.1457
 6421W        W23945   6.878   7.816  15.290  0.1344  0.1470 -0.0689
 6422W        W23946   9.212  12.197   0.130 -0.2186  0.0150 -0.0654
 6423W        W23947   9.227  13.486  14.187  0.1862 -0.2093 -0.0526
 6424W        W23948  14.772  14.401  13.016 -0.1306 -0.1396  0.3511
 6425W        W23949  13.827   5.608  13.720  0.0956 -0.1778  0.1457
 6426W        W23950   2.997   3.853   0.380  0.1448 -0.1433  0.3311
 6427W        W23951   0.053  16.534   6.526  0.3050 -0.2203  0.0614
 6428W        W23952  10.648   0.059   2.074  0.1423  0.1354 -0.0622
 6429W        W23953   4.080  15.953   0.040 -0.1199  0.0820  0.0492
 6430W        W23954   1.865   7.833  13.538 -0.0290  0.1321 -0.0119
 6431W        W23955   2.258   8.289   4.742  0.0091  0.1967 -0.0178
 6432W        W23956  16.205   5.632  13.979 -0.0993  0.1975 -0.2752
 6433W        W23957  11.373   5.513   3.749 -0.1306  0.0733 -0.0208
 6434W        W23958   4.306   4.678   5.075 -0.5624  0.0360 -0.2063
 6435W        W23959  10.479   7.317   4.880  0.0592 -0.0150  0.2533
 6436W        W23960  14.877   3.034   3.232 -0.0806 -0.1716  0.1337
 6437W        W23961   2.592   2.025  13.494  0.2330  0.1009 -0.0660
 6438W        W23962  16.032  12.324  16.700  0.2407 -0.3916  0.2475
 6439W        W23963   2.983   4.354  12.634 -0.1335  0.2139  0.0197
 6440W        W23964  14.124   6.416   0.469  0.1704  0.2743 -0.0295
 6441W        W23965  17.186  15.811  14.016  0.0912  0.0851 -0.2477
 6442W        W23966   9.348  14.490   3.071 -0.0438 -0.2889  0.1099
 6443W        W23967   3.438   5.896  13.992 -0.1316 -0.0924 -0.0133
 6444W        W23968   6.408   9.650  16.510 -0.0709  0.1336  0.0380
 6445W        W23969  12.849   0.363  16.900  0.0502 -0.1721 -0.0102
 6446W        W23970   5.442  10.453  15.154  0.0714  0.3127 -0.0705
 6447W        W23971   7.622  16.954  15.212  0.0660  0.1464 -0.1273
 6448W        W23972   3.071   9.621  16.533 -0.0873 -0.2667 -0.0144
 6449W        W23973  14.004   4.241   0.277  0.1098 -0.3221 -0.2396
 6450W        W23974  11.053   3.378  14.716 -0.1920 -0.1645 -0.0779
 6451W        W23975   3.849   2.050  17.598  0.1140 -0.2470 -0.1686
 6452W        W23976  15.776   8.043  14.030 -0.0231  0.1416 -0.0343
 6453W        W23977   8.858   0.000  16.065 -0.1248 -0.1475 -0.1021
 6454W        W23978   4.828   8.792  14.585  0.0657  0.2914 -0.1678
 6455W        W23979   9.303  16.686   0.264 -0.1053  0.0482  0.2781
 6456W        W23980   5.191  13.405  17.655 -0.0159 -0.4140  0.2467
 6457W        W23981   3.895  10.411  14.677 -0.0497  0.0273  0.2035
 6458W        W23982   2.456   2.754   3.419  0.0949 -0.1652  0.3542
 6459W        W23983   0.406   3.153   2.762 -0.2608 -0.0706  0.1031
 6460W        W23984  10.476   6.687   4.187 -0.2615  0.1405 -0.0324
 6461W        W23985  10.124  10.096  11.719  0.1250 -0.1736  0.0858
 6462W        W23986   7.119   2.106   1.182  0.1156  0.2679  0.0953
 6463W        W23987   0.217  10.142   1.930 -0.1402 -0.0775  0.3583
 6464W        W23988   9.362   1.904  14.806 -0.2046  0.1607 -0.0113
 6465W        W23989   4.220  10.007   4.385  0.0581 -0.1781 -0.0374
 6466W        W23990   0.856  13.130   5.412  0.1977  0.0159 -0.0626
 6467W        W23991  15.315   1.096  15.378  0.1144  0.0825 -0.0242
 6468W        W23992  10.754   0.541   1.887 -0.0476  0.1552 -0.0724
 6469W        W23993  11.173   8.882   4.346  0.0208 -0.1916 -0.2696
 6470W        W23994   5.551   6.678   1.347 -0.2737 -0.1051  0.5579
 6471W        W23995   3.823   5.760  16.026 -0.1044 -0.1733 -0.2395
 6472W        W23996  14.257   8.680  13.172  0.2710  0.2828  0.0276
 6473W        W23997  14.606   6.853  16.810 -0.0437 -0.0423 -0.0997
 6474W        W23998   2.723   4.159  12.004 -0.0836  0.1062 -0.2035
 6475W        W23999   3.902   9.563   5.263 -0.1759  0.0288  0.2891
 6476W        W24000   0.082  12.573  13.543  0.0900 -0.0929  0.1153
 6477W        W24001   8.288  12.150   3.008  0.2182 -0.1578  0.2129
 6478W        W24002  10.788  15.822   3.052  0.0429  0.2070 -0.0502
 6479W        W24003   7.438   1.969   3.298 -0.3882 -0.0216  0.1136
 6480W        W24004   6.610   1.414  15.553  0.1171  0.2575 -0.0647
 6481W        W24005   0.723   6.697   0.410 -0.2588  0.0396  0.1729
 6482W        W24006   0.935  11.879  15.782  0.1600 -0.0387 -0.0376
 6483W        W24007  12.358   6.292   5.094 -0.3498  0.2473 -0.0476
 6484W        W24008  10.386  12.542  14.151  0.2315 -0.1011 -0.1405
 6485W        W24009  16.062  10.682   1.143  0.0120 -0.0482  0.2340
 6486W        W24010   6.728   6.164   2.306 -0.0068  0.1453  0.1445
 6487W        W24011  12.306   8.521  16.340  0.3069 -0.0223  0.0243
 6488W        W24012  12.891  17.131  16.199 -0.1220 -0.0381  0.0292
 6489W        W24013   5.628  13.565   5.273 -0.2919 -0.0433  0.1367
 6490W        W24014   0.548   4.330   1.389  0.0257 -0.0299  0.0449
 6491W        W24015   9.937   2.914   3.156 -0.0005 -0.3038 -0.0681
 6492W        W24016   7.675   0.871  13.971 -0.2437 -0.0015  0.0662
 6493W        W24017  10.174  13.063   6.809 -0.0777  0.2339  0.2301
 6494W        W24018   2.765   7.556  16.962  0.0514  0.2430 -0.3718
 6495W        W24019  15.408  17.235   5.530  0.0471  0.4666  0.1833
 6496W        W24020   3.184  12.247  17.466 -0.1189 -0.0687 -0.0882
 6497W        W24021  16.131  13.760   1.960  0.1053  0.0903  0.0826
 6498W        W24022   6.872   0.970  16.676 -0.1711 -0.1132 -0.1304
 6499W        W24023  16.592   8.987   3.462  0.0304 -0.0666  0.0494
 6500W        W24024   8.695   5.683  16.489 -0.3834  0.2213 -0.0997
 6501W        W24025   6.520   3.924  14.974 -0.1406  0.0847  0.1022
 6502W        W24026   5.470  11.145   1.566  0.1105 -0.0040 -0.1235
 6503W        W24027  16.308   1.375   0.087  0.1348 -0.1229 -0.2318
 6504W        W24028  11.462   7.910   1.453  0.1637 -0.0680  0.1205
 6505W        W24029   7.656   7.162   1.779  0.0463 -0.1633  0.1773
 6506W        W24030  14.658   0.307   2.564 -0.0783  0.1839 -0.2315
 6507W        W24031   5.590   7.064   1.645 -0.1654 -0.0722 -0.3734
 6508W        W24032  13.509  16.519   1.377  0.2496 -0.0274 -0.4432
 6509W        W24033   9.646   7.769  14.886 -0.2408  0.2451 -0.1644
 6510W        W24034   7.792   4.310  12.440  0.3329  0.1827  0.1955
 6511W        W24035   1.566   3.344  14.806  0.1411  0.0368  0.0063
 6512W        W24036  10.131  10.651   4.795 -0.1010 -0.0010  0.2126
 6513W        W24037   1.407  12.342   5.221 -0.2494  0.0440  0.0698
 6514W        W24038  13.368  13.573   1.368  0.0706 -0.3226  0.2602
 6515W        W24039   4.043  15.549  15.639 -0.0322  0.1853 -0.0166
 6516W        W24040  13.552   3.285   3.559  0.0648  0.0363 -0.0774
 6517W        W24041   3.239   3.873  14.589  0.1405 -0.1927  0.2409
 6518W        W24042  16.741  10.787   5.064  0.0214  0.1837 -0.2244
 6519W        W24043   8.535   2.680   3.012 -0.3206  0.1411  0.0859
 6520W        W24044  16.512   9.445  11.874  0.1602 -0.1722 -0.0039
 6521W        W24045   8.209  15.090  13.221 -0.0499  0.1465 -0.0683
 6522W        W24046   1.564   7.783  13.126 -0.2584 -0.1982  0.1669
 6523W        W24047   7.757  11.016  12.606 -0.4259 -0.0537 -0.2398
 6524W        W24048   3.348  13.511  13.597 -0.0473  0.2783  0.0963
 6525W        W24049   1.063   4.623  14.992 -0.2742  0.0072 -0.0512
 6526W        W24050   9.979   3.952   3.022  0.1045  0.1373 -0.2767
 6527W        W24051   7.384  13.247   1.652  0.1394  0.1148 -0.3618
 6528W        W24052   3.174   3.828   2.836 -0.2004 -0.0944 -0.1245
 6529W        W24053   0.625   0.969   5.585  0.0589 -0.0270  0.2179
 6530W        W24054  11.798   7.625   5.639  0.1921  0.1603  0.0620
 6531W        W24055   5.229  16.859  13.016  0.1897  0.0787 -0.1383
 6532W        W24056  12.503   6.912   3.123  0.1631  0.1896 -0.1330
 6533W        W24057   0.841   7.068   3.697  0.2146  0.2170  0.1147
 6534W        W24058  17.128   0.875  13.309 -0.2138  0.1346  0.0104
 6535W        W24059   5.399   1.421   3.307 -0.1321 -0.1617 -0.1868
 6536W        W24060   2.297   4.054   2.455  0.3870 -0.2176  0.4152
 6537W        W24061  14.719  10.104  13.548 -0.3055  0.1432  0.3111
 6538W        W24062  16.852   8.055   2.944 -0.0287 -0.0366  0.0285
 6539W        W24063   9.729   3.864  12.648  0.0320 -0.0257  0.1832
 6540W        W24064   6.740   5.875  13.754 -0.0808  0.1272  0.3034
 6541W        W24065   8.779  14.383  16.946 -0.0271 -0.0178 -0.3908
 6542W        W24066   0.253   7.323  12.325 -0.1551 -0.1639  0.1258
 6543W        W24067   2.029   7.677  16.893 -0.0910  0.0250  0.1100
 6544W        W24068   7.167  11.538   4.617  0.3123  0.0501  0.0135
 6545W        W24069   3.196  16.000  12.349  0.0636  0.0612 -0.1443
 6546W        W24070  11.029  12.858   2.735 -0.3327 -0.0498 -0.0093
 6547W        W24071   0.720  16.252   2.037 -0.1652  0.1256 -0.4583
 6548W        W24072   4.734   2.528   3.635  0.2084  0.1491  0.0279
 6549W        W24073  15.536  13.986  12.127 -0.2233  0.0096 -0.0191
 6550W        W24074  11.261   0.863  15.422 -0.0309 -0.0442  0.2663
 6551W        W24075   7.803   6.721   4.733  0.0690 -0.1094 -0.0983
 6552W        W24076   8.323  14.051  14.484 -0.0805  0.1439  0.2531
 6553W        W24077   4.328   2.476  14.549  0.0245 -0.0765 -0.2378
 6554W        W24078  16.063  17.211  17.185 -0.0755  0.1608  0.2608
 6555W        W24079   3.840  10.674   1.963 -0.1334  0.1520  0.0344
 6556W        W24080   3.166   7.069  14.476  0.0193 -0.2173  0.1698
 6557W        W24081   0.436  12.117   3.157 -0.0295 -0.1940  0.1646
 6558W        W24082   0.305  12.836   1.468 -0.0395 -0.2467  0.0549
 6559W        W24083   7.407   4.868  15.135 -0.0463 -0.1163 -0.2776
 6560W        W24084   5.781  14.513   3.844 -0.0069 -0.1505  0.1203
 6561W        W24085   6.071  13.873  16.756 -0.0637  0.2296  0.4543
 6562W        W24086  13.279   4.306  14.363 -0.0174 -0.5285 -0.1178
 6563W        W24087  12.645   9.690  17.246 -0.2611 -0.0696  0.2924
 6564W        W24088  16.100   0.801   5.565  0.1064  0.0030  0.0466
 6565W        W24089   1.924   8.460   0.215 -0.1045  0.0235 -0.0207
 6566W        W24090   6.500   9.848   4.700 -0.0013  0.2712 -0.2794
 6567W        W24091  16.901  14.225  12.548 -0.1348  0.0621  0.4572
 6568W        W24092  13.380  17.023   3.624 -0.0674 -0.0641  0.0888
 6569W        W24093   2.585  12.077  15.792  0.1389  0.2424  0.0570
 6570W        W24094   4.103   7.037   5.154  0.0399 -0.1682  0.1719
 6571W        W24095  16.807   1.348   0.103 -0.0319  0.1179 -0.0303
 6572W        W24096   9.810  13.154   5.407 -0.0160  0.0879  0.1028
 6573W        W24097  12.931  11.376  16.122  0.0539  0.0627  0.1019
 6574W        W24098   5.913   6.656  17.483 -0.0315 -0.2709 -0.3057
 6575W        W24099  15.996   3.793   0.156 -0.0584 -0.2017  0.1247
 6576W        W24100  15.376   9.826   0.163 -0.0693 -0.0655 -0.1347
 6577W        W24101  13.884   8.223  15.897  0.0861  0.1611  0.2496
 6578W        W24102  15.609  13.538  16.542 -0.0222  0.2701  0.1946
 6579W        W24103  14.607   0.864   1.303 -0.0154 -0.1455 -0.3329
 6580W        W24104  16.395   4.121   1.040 -0.3019  0.2779 -0.2139
 6581W        W24105   1.766   4.217  15.339  0.4723  0.1219  0.1395
 6582W        W24106  17.159   0.956   4.538 -0.1881  0.0072 -0.3746
 6583W        W24107   4.872   7.254   4.772 -0.0937  0.2042 -0.1096
 6584W        W24108  14.896   4.657   5.260 -0.2260  0.0376  0.1026
 6585W        W24109  15.588   7.565   4.514 -0.1514  0.0003 -0.4653
 6586W        W24110   8.072  10.679   0.965  0.0093  0.1124 -0.1236
 6587W        W24111  13.415   6.096   2.673  0.0374 -0.0401 -0.1742
 6588W        W24112   4.142  16.541  14.125  0.1856  0.0086  0.2920
 6589W        W24113   0.908   8.397   2.744  0.1432 -0.1581 -0.1306
 6590W        W24114  13.895  11.627  13.566  0.0356  0.2260 -0.1711
 6591W        W24115   7.193  11.036   4.518  0.0219 -0.0898  0.1479
 6592W        W24116   9.505   4.457  13.834  0.2381 -0.1599  0.0620
 6593W        W24117   3.157   6.405  17.627  0.5186 -0.0479 -0.0556
 6594W        W24118   9.510   0.109  14.670  0.0270  0.4326  0.0767
 6595W        W24119   1.360  11.737   0.718  0.0355 -0.0556 -0.1073
 6596W        W24120   3.521   5.475   1.000 -0.0445  0.1596 -0.4617
 6597W        W24121   5.086   2.095  15.822  0.1247  0.2114 -0.1087
 6598W        W24122  10.379   7.187  15.078 -0.0686 -0.1426 -0.3037
 6599W        W24123  11.838   5.439   3.487  0.2616  0.0423  0.1211
 6600W        W24124   4.796  11.590   4.269  0.0414  0.2496  0.2235
 6601W        W24125   4.576  15.681  16.614 -0.2995 -0.0423 -0.0143
 6602W        W24126   5.823  10.213  16.010 -0.2054 -0.0947 -0.1950
 6603W        W24127  11.918   6.147  16.619 -0.2997  0.1359 -0.0859
 6604W        W24128   8.088  15.550   4.393  0.2324  0.0620 -0.1291
 6605W        W24129   8.873  10.625   4.771 -0.0050  0.2088  0.0598
 6606W        W24130  10.178   9.910  14.501  0.2595  0.0488 -0.2332
 6607W        W24131  14.526  12.052  16.683 -0.1648  0.1454 -0.0423
 6608W        W24132  11.772   3.099   3.974 -0.1362 -0.0699 -0.0432
 6609W        W24133   2.853   7.075   0.382  0.0510  0.2178  0.3548
 6610W        W24134   0.022  16.937  16.542 -0.3382 -0.0808  0.0402
 6611W        W24135  14.349   4.299  15.911 -0.1310  0.0949  0.0174
 6612W        W24136  11.793  16.027  14.662 -0.1458  0.1458 -0.2638
 6613W        W24137  13.867   3.913   0.936 -0.0150  0.0393 -0.0830
 6614W        W24138   7.145  15.280   1.517  0.2380 -0.1565 -0.4382
 6615W        W24139   3.784  10.443  14.164 -0.2973  0.3161 -0.0617
 6616W        W24140   3.588   2.641   4.815 -0.2662  0.1456  0.0379
 6617W        W24141   3.977  16.172  17.249  0.2245  0.0085  0.3365
 6618W        W24142   8.320   6.847  17.562 -0.0678  0.4721  0.3113
 6619W        W24143   5.484   3.773  13.725  0.0322  0.0848  0.0894
 6620W        W24144   3.573   4.191  11.817  0.2414  0.1998  0.0665
 6621W        W24145  15.587   3.030  16.526  0.0317 -0.3118 -0.1140
 6622W        W24146   5.570  10.119   1.326  0.2768  0.1082  0.2048
 6623W        W24147  10.175   4.626  14.636 -0.0133  0.0210 -0.2696
 6624W        W24148  15.238  15.600   1.371 -0.0181  0.0638  0.2507
 6625W        W24149   1.845   0.484   3.441 -0.3379 -0.1938 -0.2022
 6626W        W24150  12.587  10.489   1.109 -0.1860 -0.1082 -0.0107
 6627W        W24151   5.109   7.151   3.470  0.1497 -0.1769  0.1308
 6628W        W24152   0.428  15.313   2.558  0.1551  0.1275  0.1481
 6629W        W24153   1.025   0.838  14.839  0.0996 -0.3365 -0.3029
 6630W        W24154   9.630   7.420  16.597 -0.0990  0.2068  0.1861
 6631W        W24155   8.718   0.579   0.536  0.1940 -0.0280 -0.1301
 6632W        W24156   0.690  14.627  17.074 -0.1647  0.2656  0.0468
 6633W        W24157  11.194  10.903   3.173 -0.1970  0.0188 -0.3856
 6634W        W24158   9.902   4.150  14.684 -0.1979  0.2305 -0.2285
 6635W        W24159   0.371   5.052  11.801 -0.1451 -0.0233  0.1153
 6636W        W24160  11.757   2.041   4.910  0.0609 -0.3216 -0.0705
 6637W        W24161   3.909   2.550  11.197  0.0050  0.2209 -0.1115
 6638W        W24162  16.290  11.848  17.596 -0.0543 -0.1881  0.0549
 6639W        W24163   0.321   6.915   3.658  0.1084 -0.2139  0.2369
 6640W        W24164   4.971   7.838   1.676 -0.2198  0.1823  0.0594
 6641W        W24165   0.742   3.123   0.782 -0.2464 -0.0031 -0.0775
 6642W        W24166   3.102   1.655   4.258 -0.0565 -0.0558 -0.0353
 6643W        W24167   8.539  13.492   1.059  0.5093 -0.1284 -0.1759
 6644W        W24168  11.024   1.812   3.208 -0.1163  0.0547  0.0659
 6645W        W24169  12.813  16.133   2.441 -0.0812 -0.0449 -0.0569
 6646W        W24170   9.806   4.127  16.079  0.1604 -0.0563  0.3268
 6647W        W24171   8.748  16.502   3.278 -0.2201  0.1164  0.0612
 6648W        W24172   2.719   3.559  13.854 -0.1587  0.0740 -0.1330
 6649W        W24173   1.524  14.040   1.143  0.1619 -0.0279 -0.3254
 6650W        W24174   4.732  12.408   2.633  0.2020  0.1060  0.0983
 6651W        W24175   6.299   3.942   4.377 -0.0362 -0.1727 -0.0260
 6652W        W24176   6.348  16.199  14.955  0.0726 -0.0839  0.0575
 6653W        W24177  10.834  10.245  12.932  0.1285 -0.2094  0.2461
 6654W        W24178  13.236   2.324   2.675  0.0111  0.0590  0.2733
 6655W        W24179  16.236  14.466   4.214 -0.1601 -0.1440  0.1129
 6656W        W24180  11.342   3.549  13.665  0.2720 -0.1258 -0.1152
 6657W        W24181   1.977  14.078   2.359  0.1124 -0.0866  0.1165
 6658W        W24182   0.251  16.044  13.650 -0.0646 -0.0191  0.0286
 6659W        W24183   9.658   9.317   5.580  0.3629 -0.0904  0.4161
 6660W        W24184   5.840   0.412  14.522 -0.0377  0.0389  0.1272
 6661W        W24185  13.844  16.183   0.997 -0.1477  0.0487  0.2599
 6662W        W24186   3.690  12.308  16.366 -0.2775 -0.0842 -0.1425
 6663W        W24187  14.671  15.006  13.082 -0.1601  0.2877  0.4098
 6664W        W24188   1.625   3.497  17.412  0.3452  0.0872 -0.0983
 6665W        W24189  10.307  12.768  16.402 -0.2214 -0.2255  0.0761
 6666W        W24190  14.427   6.128   3.076 -0.0306  0.3297  0.0649
 6667W        W24191   4.999  10.876  17.108 -0.1309  0.0600  0.0767
 6668W        W24192   4.858   7.118  11.900  0.0984 -0.2234 -0.1475
 6669W        W24193   0.842   7.923   3.671 -0.1836 -0.4456 -0.0640
 6670W        W24194  13.990  12.717   1.542  0.1798 -0.0439  0.0732
 6671W        W24195  14.980   8.382   2.680 -0.3138 -0.0542  0.0854
 6672W        W24196  17.110  13.084   3.176  0.1792  0.2225 -0.0729
 6673W        W24197   5.736   8.632  13.569  0.2966  0.1228 -0.1823
 6674W        W24198  17.025   9.424  17.617 -0.1666 -0.1392  0.3134
 6675W        W24199   1.937   2.421   0.004  0.4913 -0.3337  0.0843
 6676W        W24200   4.589   3.930  13.771  0.0725  0.1835  0.1842
 6677W        W24201  17.149  11.251  13.973 -0.1799  0.1080 -0.2843
 6678W        W24202   7.868  16.956  12.869  0.0015  0.0481 -0.0908
 6679W        W24203   9.605  17.111   0.343  0.0576  0.2315  0.0863
 6680W        W24204  16.503   3.785  16.993  0.0702  0.3281 -0.2796
 6681W        W24205   4.849   0.386   1.819  0.0409 -0.2873 -0.2852
 6682W        W24206  11.050   5.066  16.993 -0.1093 -0.0152 -0.2532
 6683W        W24207   0.985   6.284   1.121  0.0053  0.1873  0.4964
 6684W        W24208  13.762   6.180   4.023  0.0106 -0.0183 -0.1295
 6685W        W24209   4.430   4.176  12.749 -0.0463 -0.0918  0.1093
 6686W        W24210  10.360  13.051   2.741 -0.1637  0.2293  0.1244
 6687W        W24211  15.066  14.353  13.845  0.3334 -0.2529 -0.3141
 6688W        W24212   6.164   7.537   2.955 -0.1360  0.0632  0.0388
 6689W        W24213   7.414  14.247   4.527  0.5684  0.3037  0.1849
 6690W        W24214  11.060   5.179   3.603 -0.1399 -0.2983 -0.1962
 6691W        W24215  14.784   9.400   1.750  0.3504  0.2291 -0.3142
 6692W        W24216   1.163  11.768  13.714 -0.0631 -0.2921 -0.1112
 6693W        W24217  16.098  11.447   1.803 -0.0066 -0.1203  0.1553
 6694W        W24218  13.320   5.921  15.145 -0.2396  0.0315  0.2499
 6695W        W24219   8.483  13.928   4.768 -0.2210  0.0807  0.1913
 6696W        W24220   3.960   7.323  15.150  0.2227 -0.2105  0.1103
 6697W        W24221  13.552   6.024   1.536 -0.1276 -0.0277 -0.1822
 6698W        W24222  12.057  16.621   4.819  0.0455  0.2038 -0.1813
 6699W        W24223  13.163  16.691  15.522 -0.1283  0.3417 -0.1110
 6700W        W24224   5.850   4.871   4.044 -0.0475 -0.1777  0.1084
 6701W        W24225  12.771  10.045   2.361  0.1264  0.1501  0.1470
 6702W        W24226   1.734   1.057   3.230 -0.3726  0.2145  0.4468
 6703W        W24227   9.687   7.155  17.100 -0.1608  0.0512 -0.0134
 6704W        W24228  10.127   8.835  13.310  0.0761 -0.4621  0.3160
 6705W        W24229  15.669   0.645   4.567  0.1487  0.1026  0.1000
 6706W        W24230   4.916  16.308  17.368  0.3685  0.1984 -0.0779
 6707W        W24231  15.562  10.605   2.774 -0.0029 -0.0587 -0.0291
 6708W        W24232   3.358   8.479   4.051 -0.1876 -0.1950  0.2423
 6709W        W24233   6.465   7.982   1.203  0.2053 -0.2715 -0.1775
 6710W        W24234   1.906  11.164   5.293  0.0995  0.1478  0.1679
 6711W        W24235   2.520   5.245   1.225  0.0407  0.3109  0.0868
 6712W        W24236   1.996   7.964   1.243 -0.1458  0.0281 -0.2088
 6713W        W24237  14.963   6.335   0.716 -0.3489 -0.1524  0.1128
 6714W        W24238   5.845   3.310  13.497  0.3428  0.5488 -0.1840
 6715W        W24239   6.985  16.983  14.814  0.0497  0.2894 -0.1800
 6716W        W24240   8.578   3.507   4.559 -0.3994  0.1461 -0.2372
 6717W        W24241  13.563   2.077  14.270  0.1209 -0.0621 -0.1497
 6718W        W24242   1.924  10.468  14.690  0.3955 -0.0186  0.1865
 6719W        W24243   9.720   4.562  15.466 -0.1518 -0.0526  0.1064
 6720W        W24244   9.281   3.482   0.716  0.1149 -0.1471 -0.1397
 6721W        W24245   5.691  13.870   6.778 -0.3406 -0.1279 -0.0161
 6722W        W24246   4.216   3.808  13.240 -0.1538  0.0802  0.0222
 6723W        W24247   5.378   1.697  15.806 -0.2215  0.0539 -0.2454
 6724W        W24248   2.792  17.194  13.123 -0.2283  0.0720  0.0127
 6725W        W24249  15.365   0.924   4.919 -0.0066  0.0198 -0.2250
 6726W        W24250   6.809   3.902   0.026  0.0674 -0.2104  0.1015
 6727W        W24251  11.332  13.970  12.291  0.3305 -0.0794 -0.1383
 6728W        W24252   7.806  15.872  15.379 -0.0231  0.2327  0.0179
 6729W        W24253  13.143   6.075   5.491  0.1852  0.1650 -0.2810
 6730W        W24254  16.759  16.456  12.402 -0.0106 -0.1152 -0.2607
 6731W        W24255   9.790   6.716   2.283  0.2634  0.2120  0.1181
 6732W        W24256  11.051   1.114   4.166 -0.0704  0.0484  0.0070
 6733W        W24257  13.528   0.608   1.530 -0.0879  0.2333  0.1225
 6734W        W24258   1.537  10.099   3.736 -0.0095 -0.0827 -0.2399
 6735W        W24259   8.958   5.384   4.340 -0.1666 -0.0848  0.1937
 6736W        W24260  12.244  11.479  13.389 -0.0817  0.0266  0.0566
 6737W        W24261  14.023  17.151   5.916  0.2414 -0.1629 -0.1546
 6738W        W24262   3.252   6.559   1.784  0.2891  0.1748  0.2539
 6739W        W24263  11.378   6.425  16.446 -0.1479  0.1382  0.0200
 6740W        W24264   7.772   9.223   0.521  0.4101  0.2268  0.0425
 6741W        W24265   4.808  12.765   5.202 -0.1408 -0.0582  0.3560
 6742W        W24266   6.730   2.847   4.162  0.2022 -0.0305 -0.1635
 6743W        W24267   8.321  12.856   6.300 -0.0032  0.0340 -0.1080
 6744W        W24268  13.970   8.861  12.277  0.0118 -0.1447 -0.0733
 6745W        W24269   3.260  11.399   6.679 -0.5492 -0.0670  0.1657
 6746W        W24270   2.577   1.353   4.022 -0.3089 -0.0125 -0.1194
 6747W        W24271   4.533   7.421  13.208  0.0515  0.1152 -0.0580
 6748W        W24272  13.833   3.696  13.320  0.1834 -0.0452  0.0534
 6749W        W24273  16.288  15.138   5.225 -0.3361 -0.0074 -0.1605
 6750W        W24274   6.686  17.221  12.843 -0.1094  0.2614 -0.0522
 6751W        W24275   8.555  10.939  14.937  0.1541 -0.2728 -0.0133
 6752W        W24276  16.677  12.767  16.239 -0.0269 -0.1449 -0.0828
 6753W        W24277  15.695  14.776  14.885  0.2287 -0.1347  0.1047
 6754W        W24278  10.931   8.334  12.340  0.1872  0.0712  0.0543
 6755W        W24279   7.258   2.084  15.712 -0.1801  0.0525 -0.0256
 6756W        W24280  16.960  15.723   3.214  0.2284 -0.2966 -0.2593
 6757W        W24281   4.649  12.184  17.191  0.1040 -0.0486  0.0753
 6758W        W24282   4.036  15.629  16.599 -0.1644  0.1318  0.0462
 6759W        W24283   9.814   6.285   1.570  0.2571 -0.0815  0.1858
 6760W        W24284   9.119   1.438   5.454 -0.0856  0.1323  0.1189
 6761W        W24285   2.524  15.041   4.168  0.3529  0.0082 -0.1832
 6762W        W24286  10.521  10.286  14.014  0.1453 -0.2601  0.1435
 6763W        W24287   3.388  10.303  14.441  0.2960  0.2102 -0.2348
 6764W        W24288   0.731  12.427   2.405 -0.1233  0.0928  0.0124
 6765W        W24289   8.428  10.114  13.841 -0.2581  0.1899 -0.0162
 6766W        W24290  14.654  16.236   2.872  0.0741  0.0832 -0.1340
 6767W        W24291   4.974  16.487   4.512 -0.0178 -0.2582  0.0260
 6768W        W24292  11.120   1.374  12.582 -0.0220  0.1962  0.0780
 6769W        W24293   6.809   5.357  13.604 -0.1386  0.0219 -0.1202
 6770W        W24294  13.153  11.102  15.077  0.2132  0.2692  0.1038
 6771W        W24295   3.504   5.555  12.375 -0.2186  0.2981  0.0061
 6772W        W24296   1.356  14.425   3.039  0.1643  0.0224 -0.0723
 6773W        W24297  14.822   6.343  11.910 -0.1377 -0.3155 -0.2303
 6774W        W24298   1.681  13.853  13.293  0.0722  0.0497 -0.0294
 6775W        W24299   2.278  15.308  15.370 -0.2017 -0.1207 -0.0898
 6776W        W24300  14.233  15.519  16.215  0.1956 -0.1828  0.3607
 6777W        W24301  15.740  16.148  14.371 -0.1017 -0.0527 -0.0433
 6778W        W24302  15.101  16.788   5.421 -0.0340 -0.2137 -0.2174
 6779W        W24303   3.163  15.454  14.567  0.2347 -0.0279  0.3291
 6780W        W24304  14.403  17.225   0.341  0.0663 -0.1397  0.0362
 6781W        W24305   5.494  12.991   1.558  0.1171 -0.0007  0.0814
 6782W        W24306   7.207   6.562  14.842 -0.0894 -0.1217 -0.1071
 6783W        W24307  12.331   5.616  12.577  0.1738  0.3330  0.0416
 6784W        W24308   2.229   6.559  13.481 -0.0804  0.0431 -0.1681
 6785W        W24309  13.571   0.431  12.586 -0.0063  0.1211 -0.0439
 6786W        W24310   1.972  16.694   3.157  0.2031  0.0998 -0.0603
 6787W        W24311   4.942   3.741  14.571  0.1999 -0.5215  0.0130
 6788W        W24312  15.802  16.734  13.241  0.0882  0.0264  0.0679
 6789W        W24313   5.118   0.441  15.029 -0.0419 -0.0071  0.3300
 6790W        W24314  12.986  10.572   2.109 -0.0650 -0.2734  0.1945
 6791W        W24315   0.012  13.684  15.466  0.1318  0.0776 -0.2370
 6792W        W24316   7.743   8.824  14.549 -0.0820 -0.2224 -0.0935
 6793W        W24317   7.161  12.076   0.458 -0.2358  0.0315 -0.1345
 6794W        W24318  13.884   4.362   4.789  0.0718 -0.2353  0.0140
 6795W        W24319   5.725  13.332   1.800 -0.3313 -0.1307  0.1839
 6796W        W24320   6.143   2.499   2.978  0.1340  0.1911  0.0092
 6797W        W24321   2.986  13.566  11.812  0.1483  0.2090 -0.0902
 6798W        W24322   9.997   0.440   2.509  0.0795  0.2589  0.1667
 6799W        W24323  14.307  12.700   0.625 -0.1145  0.0727 -0.1751
 6800W        W24324   2.416   9.426  15.119 -0.1133 -0.0397 -0.3088
 6801W        W24325   6.093   2.844  13.439 -0.1309  0.1430  0.2130
 6802W        W24326   0.672  10.705  16.188  0.2699 -0.0899 -0.1684
 6803W        W24327   8.602  12.982   3.094 -0.0545 -0.2799  0.0031
 6804W        W24328  14.205   9.760  17.536 -0.3999 -0.1478 -0.3147
 6805W        W24329   3.001   9.424   2.116 -0.0528 -0.1561 -0.1935
 6806W        W24330  10.470   4.951  13.278 -0.1132  0.0183  0.1867
 6807W        W24331   8.766   2.436   1.404 -0.2463  0.2364  0.1433
 6808W        W24332  14.355  14.347   0.167  0.4792 -0.2927  0.1548
 6809W        W24333   5.248  17.239  14.513 -0.0609  0.3066  0.0052
 6810W        W24334   8.609   9.063   0.422 -0.0236  0.0415  0.3572
 6811W        W24335   8.994  11.894   3.983  0.0739 -0.1046 -0.1840
 6812W        W24336  12.196   5.146   4.728  0.0512  0.2663 -0.0508
 6813W        W24337  14.006  11.512   3.242  0.0905  0.1472 -0.1158
 6814W        W24338   3.289   6.930   0.721 -0.1303 -0.2781  0.0232
 6815W        W24339   3.040   4.333   0.351 -0.0681 -0.2756 -0.1315
 6816W        W24340  14.392  11.436   2.917  0.0102  0.1039 -0.3154
 6817W        W24341   5.893  14.224  14.013 -0.2308  0.3836 -0.0507
 6818W        W24342   7.065   0.972   0.526 -0.3264 -0.0065 -0.0864
 6819W        W24343  10.905   7.767   3.954 -0.5275 -0.0335  0.3473
 6820W        W24344   5.996   8.872   4.656 -0.0407  0.1766  0.3022
 6821W        W24345   3.896   5.025  15.126  0.1540  0.2805 -0.0611
 6822W        W24346  15.862   1.558   4.514  0.0155 -0.2042 -0.1131
 6823W        W24347   3.144   9.339  12.490  0.0624 -0.1000  0.0910
 6824W        W24348   3.597   1.914   5.471  0.0160  0.0733 -0.3008
 6825W        W24349  10.944  15.341  14.833 -0.2157  0.3367  0.1058
 6826W        W24350   1.319   2.930  15.999  0.1413  0.0126  0.1947
 6827W        W24351   0.415  12.984   2.482 -0.1906 -0.1075  0.1466
 6828W        W24352   8.991  15.518  16.472 -0.0652  0.0863  0.0976
 6829W        W24353   6.011  13.795  13.739 -0.2270 -0.4245  0.1264
 6830W        W24354   0.839   7.342  14.875  0.0844 -0.0260  0.1859
 6831W        W24355   0.383  11.934   2.208  0.2063 -0.0205  0.0967
 6832W        W24356   8.495   4.035   0.122 -0.0484 -0.0936  0.1547
 6833W        W24357  12.565   0.289   3.894 -0.0571  0.1708 -0.1098
 6834W        W24358  12.194  13.007   1.728  0.4180  0.3185  0.0661
 6835W        W24359   5.466  15.601   4.347  0.0623  0.1029 -0.0958
 6836W        W24360   5.330   4.278  12.388 -0.0848 -0.1537  0.3117
 6837W        W24361  12.798  16.273   1.037 -0.0657  0.0341  0.2001
 6838W        W24362  12.854   1.370  12.532  0.0848 -0.0317  0.1366
 6839W        W24363   4.851  16.377   1.808 -0.1084  0.3382  0.1260
 6840W        W24364   9.487  13.778  15.556  0.2242  0.0983 -0.0386
 6841W        W24365   2.042  13.396   5.541  0.0296  0.0841 -0.1920
 6842W        W24366  11.963  12.106  15.985  0.1463  0.3033  0.2294
 6843W        W24367   1.772  10.133  14.301  0.1642 -0.0428 -0.3107
 6844W        W24368   2.021   2.790  13.686 -0.3042  0.2728  0.2427
 6845W        W24369   0.396   8.928  13.613  0.0110  0.0971  0.2352
 6846W        W24370   5.717  16.813   0.543  0.2050  0.1093 -0.3127
 6847W        W24371  12.306  14.478  15.560  0.3197  0.3768  0.2745
 6848W        W24372   6.223   4.755  16.967  0.1041 -0.2931 -0.0669
 6849W        W24373   4.257  10.031   3.020 -0.2892 -0.1567  0.0378
 6850W        W24374  10.206   1.146  16.024  0.0661 -0.2628 -0.0441
 6851W        W24375  14.361  14.223  16.879 -0.1225  0.0261  0.2722
 6852W        W24376   7.828  15.100  15.023  0.0979  0.0724 -0.2805
 6853W        W24377   7.518   0.153   0.625  0.2021  0.0810 -0.0562
 6854W        W24378   8.513   6.105  14.525  0.0435  0.0633  0.1767
 6855W        W24379   8.725  13.198   0.686 -0.2617  0.0105 -0.1956
 6856W        W24380   4.444  13.473   3.680  0.0546  0.2792  0.0853
 6857W        W24381   2.339   0.815   2.125  0.0200 -0.3867  0.0031
 6858W        W24382   0.676  17.023   2.539  0.3149  0.2392  0.1255
 6859W        W24383   0.853   0.055   4.356  0.0726  0.1348  0.1405
 6860W        W24384  16.809  14.863   2.020 -0.1462  0.1549 -0.0699
 6861W        W24385   1.133   6.516  14.913  0.3700 -0.1953  0.0779
 6862W        W24386  16.646   8.008  16.437 -0.2186  0.2191  0.3528
 6863W        W24387   4.651  16.887   2.454  0.1767  0.1776  0.3234
 6864W        W24388   6.217   4.756  14.194  0.2168  0.0990 -0.0318
 6865W        W24389  13.614  12.300  13.088 -0.1126  0.3410  0.2384
 6866W        W24390   5.981  16.502  14.703  0.0622 -0.2578 -0.4216
 6867W        W24391   5.894   2.633  17.192 -0.1785  0.2004 -0.1090
 6868W        W24392   9.379   8.519   2.055 -0.2878  0.3142  0.1567
 6869W        W24393  12.855  11.303   1.180 -0.1251  0.1174  0.3286
 6870W        W24394  13.162  15.247   3.450 -0.2328  0.0390 -0.0671
 6871W        W24395   3.430  12.932   3.136  0.3015  0.1926  0.3697
 6872W        W24396  10.278   0.980   0.761  0.2105  0.0716 -0.0370
 6873W        W24397   1.912   8.297  14.763  0.0169  0.2905 -0.3188
 6874W        W24398   2.958   4.889  16.292 -0.1356 -0.3918  0.4865
 6875W        W24399  16.455  15.126  11.215 -0.0872 -0.2318  0.1290
 6876W        W24400  11.669   2.210  15.813  0.2182 -0.0185  0.4491
 6877W        W24401  14.084  14.528   0.555 -0.0080  0.2117 -0.2175
 6878W        W24402   0.878   3.393   2.827 -0.1475 -0.1833  0.1036
 6879W        W24403   2.641  12.022  13.920 -0.0488  0.1629 -0.1089
 6880W        W24404  10.343   3.459  14.003  0.0663 -0.0671 -0.0597
 6881W        W24405   1.183   9.318  17.127  0.0530  0.3002  0.0609
 6882W        W24406  14.921  11.845   1.649  0.2135 -0.0537  0.0964
 6883W        W24407   4.244   6.383  17.217  0.1383  0.1474 -0.1261
 6884W        W24408   0.973   2.135   4.808  0.3082 -0.0504 -0.2203
 6885W        W24409  14.821   8.809  12.583 -0.3367 -0.1572 -0.1835
 6886W        W24410   8.243  12.770  11.815  0.2291  0.2229 -0.0174
 6887W        W24411  11.428   3.464   3.095 -0.2362  0.1858 -0.2979
 6888W        W24412  13.525   2.951  16.979  0.0547 -0.2726  0.1663
 6889W        W24413  17.206  12.972  12.707 -0.2639 -0.2591 -0.0186
 6890W        W24414  15.106   1.216  15.859 -0.0379 -0.0342  0.2817
 6891W        W24415   9.457   6.588   0.416  0.0460 -0.2505 -0.0561
 6892W        W24416   1.792   3.506   4.239  0.0167  0.1685 -0.1462
 6893W        W24417  16.591   9.795  12.204  0.0550  0.3020 -0.0752
 6894W        W24418  16.104  12.710   3.146 -0.1898  0.0408 -0.1821
 6895W        W24419  14.083   9.699   2.033  0.0540 -0.1962  0.1946
 6896W        W24420   5.143   0.834   1.176 -0.1881 -0.1513 -0.1139
 6897W        W24421  10.383  15.911   0.520  0.2215 -0.1160 -0.1873
 6898W        W24422   7.421  10.687  15.782  0.0447 -0.0444 -0.3676
 6899W        W24423   0.523  16.929   5.507 -0.0830  0.0961 -0.2996
 6900W        W24424   9.792   5.813   1.995  0.4327 -0.0707 -0.1410
 6901W        W24425  12.094   7.980   1.676 -0.1806 -0.1706  0.1090
 6902W        W24426   0.041  11.169   0.638 -0.3821 -0.0632  0.1290
 6903W        W24427   5.268  13.501   0.642 -0.1479  0.1300 -0.0512
 6904W        W24428   5.957  14.601   0.822 -0.1027  0.1227 -0.1503
 6905W        W24429   4.801   5.411   3.571 -0.2634  0.1418 -0.2693
 6906W        W24430   8.712   6.609   3.784 -0.0541 -0.2489  0.0403
 6907W        W24431  10.910  16.552  16.342  0.3731  0.2968 -0.0790
 6908W        W24432   8.901   3.642   1.066 -0.1979  0.0644 -0.1135
 6909W        W24433   8.158   8.804   2.602 -0.0367 -0.3197  0.2301
 6910W        W24434  10.905  12.640   1.360 -0.2547 -0.2229 -0.1977
 6911W        W24435   5.536   0.465   5.211 -0.2618  0.0152  0.0777
 6912W        W24436  16.884  15.309  11.902 -0.0811  0.1221 -0.1175
 6913W        W24437   8.759  11.117   0.459  0.1390 -0.2063  0.0993
 6914W        W24438  15.213   6.739  12.760 -0.2937 -0.2876 -0.0027
 6915W        W24439   6.296   8.264   4.083 -0.2032  0.1308 -0.1233
 6916W        W24440   5.572   2.495  11.996  0.0291 -0.1120 -0.0480
 6917W        W24441  16.210  10.358   0.620  0.2657 -0.1442 -0.1506
 6918W        W24442  15.532   3.232  14.812  0.0549 -0.4527 -0.0118
 6919W        W24443   5.628   2.609   5.476 -0.1443 -0.0511  0.0599
 6920W        W24444   6.128  13.099  16.624  0.0920 -0.4064  0.1430
 6921W        W24445  12.983  10.382  12.377  0.0731 -0.3639 -0.0945
 6922W        W24446  16.941   9.140  14.262 -0.3426 -0.0236  0.3750
 6923W        W24447   0.799  17.006   3.949  0.0012  0.0343  0.0212
 6924W        W24448  15.458   1.441   4.913 -0.1968 -0.0421 -0.0964
 6925W        W24449  10.689  16.434  14.003  0.1703  0.0865  0.3747
 6926W        W24450   9.639   0.519  13.767  0.1302  0.1168  0.5788
 6927W        W24451   0.507   4.964   1.685 -0.2211  0.2162  0.0746
 6928W        W24452  16.358   9.638  16.548 -0.2670 -0.1010 -0.4146
 6929W        W24453   3.378  14.018  16.355 -0.0111  0.1608  0.1630
 6930W        W24454  12.640  14.555   2.094 -0.1947 -0.1993 -0.0455
 6931W        W24455   9.615  10.528   0.134  0.1660 -0.1412  0.2875
 6932W        W24456  13.526   5.225   3.180  0.0546 -0.0611 -0.1900
 6933W        W24457   9.238  16.473  12.883  0.1529  0.0620  0.1835
 6934W        W24458   7.528   6.443  15.548  0.3522 -0.0497  0.1734
 6935W        W24459   2.582   3.198  17.631 -0.1169  0.0390 -0.2593
 6936W        W24460   7.810   5.413   5.756 -0.3346  0.5226  0.0421
 6937W        W24461   5.190  11.843  13.180  0.2231  0.1551 -0.3973
 6938W        W24462   2.813   3.072   1.796 -0.2990  0.1033 -0.0385
 6939W        W24463   9.012   2.726   0.450 -0.1246  0.1399 -0.0787
 6940W        W24464   3.993  17.092  16.820 -0.2214 -0.1681  0.2181
 6941W        W24465  11.595  11.250   3.151 -0.0804  0.0389  0.2173
 6942W        W24466   1.443   5.654  15.636  0.2575  0.2202  0.1410
 6943W        W24467  11.034   7.528   0.460 -0.1401 -0.1588  0.0366
 6944W        W24468   0.581  10.009   4.976 -0.0259  0.3185  0.3474
 6945W        W24469   1.718  15.193  15.046 -0.3202 -0.0283  0.0508
 6946W        W24470  16.064   3.970  12.937  0.0690  0.0803 -0.1720
 6947W        W24471   5.169  17.144  15.032 -0.0752  0.0269  0.2062
 6948W        W24472   6.010   1.968   2.961 -0.0571  0.3213 -0.0406
 6949W        W24473  13.584   9.234  14.618 -0.1886  0.2005  0.1229
 6950W        W24474  15.289   3.484  17.044  0.1588  0.0402 -0.1048
 6951W        W24475  10.085  14.184  16.464  0.1051  0.2718  0.4164
 6952W        W24476  15.639   2.490   4.899 -0.1962 -0.0974 -0.0382
 6953W        W24477  11.992   4.414   5.176 -0.1844  0.1111 -0.0640
 6954W        W24478   3.836   0.590   1.797 -0.0092  0.0631  0.1490
 6955W        W24479   6.788  16.277   3.353 -0.2722 -0.0184 -0.1086
 6956W        W24480  11.038  11.871   1.810  0.3228 -0.0451  0.0119
 6957W        W24481   9.006   8.036  14.240 -0.2816  0.1149 -0.2555
 6958W        W24482   0.148  15.478  13.680  0.2778  0.4028 -0.2312
 6959W        W24483   0.133   7.528  14.406  0.2675  0.1633 -0.0234
 6960W        W24484   3.456  10.946  15.748  0.1340  0.0368 -0.0246
 6961W        W24485  16.859   9.382   2.357  0.1192  0.1589 -0.1297
 6962W        W24486  16.472   5.228  14.402  0.1870 -0.0106  0.0969
 6963W        W24487   0.206   9.367   0.722  0.2539 -0.2045  0.0806
 6964W        W24488  15.836  13.342  14.062  0.2461  0.0018 -0.0151
 6965W        W24489  17.220  13.174   2.686  0.0383  0.0138 -0.0749
 6966W        W24490  10.580  10.555   0.004  0.2310 -0.0345 -0.0952
 6967W        W24491  15.944   6.967  14.029  0.2280  0.2364  0.0955
 6968W        W24492   8.703  17.056   3.907  0.2790 -0.0661  0.3019
 6969W        W24493  14.476  15.833  15.016  0.1267  0.3056 -0.0270
 6970W        W24494   3.907  15.395   0.137 -0.2809 -0.1676  0.0445
 6971W        W24495  10.919   7.523   5.137  0.2537  0.1181  0.0598
 6972W        W24496  14.794   8.351  11.956  0.3158  0.4606 -0.0002
 6973W        W24497   2.562  14.063  13.922 -0.1372 -0.0971  0.0750
 6974W        W24498  12.128   0.033  12.957  0.0904 -0.0634  0.0331
 6975W        W24499  14.967  15.493  12.921  0.0832 -0.1632 -0.3727
 6976W        W24500  16.576   3.634   1.164 -0.1166  0.1872 -0.1846
 6977W        W24501  11.936  13.283   4.612  0.2538  0.1718  0.0199
 6978W        W24502  12.582   0.833   1.669 -0.0890 -0.1182 -0.0327
 6979W        W24503  12.328   9.415  12.119  0.0639  0.1924 -0.2498
 6980W        W24504   5.034   5.211  13.955 -0.3569  0.2142  0.1295
 6981W        W24505  10.134   2.173   4.661 -0.0514 -0.1767  0.3967
 6982W        W24506  14.467   0.741   2.815  0.0571  0.0295  0.0004
 6983W        W24507  11.722  15.192   4.239  0.1223 -0.0280  0.0617
 6984W        W24508   6.368   1.149  11.932 -0.1958  0.2675  0.1006
 6985W        W24509   5.157  16.178   0.915  0.0060 -0.1163  0.1450
 6986W        W24510  12.377  13.117  16.111  0.2169  0.4364 -0.2463
 6987W        W24511   8.382   4.548  13.036 -0.0258 -0.0786 -0.2054
 6988W        W24512  13.975   2.913   4.109 -0.2742 -0.1464  0.1713
 6989W        W24513   7.020  11.066   5.113 -0.0727 -0.0814 -0.2821
 6990W        W24514  17.134  12.118   3.123 -0.0013  0.1010 -0.0382
 6991W        W24515  10.723  10.722  12.735  0.0105 -0.0744  0.0856
 6992W        W24516  13.393  12.148   4.571  0.1143  0.1807 -0.0075
 6993W        W24517   0.979   4.504   2.950 -0.0224 -0.0613 -0.1923
 6994W        W24518  15.880   1.733  14.863  0.0965 -0.1360 -0.1828
 6995W        W24519  15.600   2.766  13.759 -0.2575 -0.1356  0.1287
 6996W        W24520  13.085  10.029   1.937 -0.3907  0.0932  0.0228
 6997W        W24521  11.570   0.426   2.606 -0.0579 -0.0470  0.0998
 6998W        W24522   4.877   6.432   4.241 -0.3815 -0.1261  0.2034
 6999W        W24523   3.038   1.014   2.786  0.1149  0.1331  0.0205
 7000W        W24524   4.090   6.410   2.057 -0.1994  0.0294  0.1608
 7001W        W24525   4.472  17.222   4.795  0.0506 -0.1582  0.1276
 7002W        W24526  17.008  14.589   4.789 -0.1376  0.0935 -0.4145
 7003W        W24527   8.266   5.247   4.843 -0.1811  0.0295  0.1386
 7004W        W24528  11.707  11.757   0.339 -0.0951 -0.1881 -0.1139
 7005W        W24529  16.877  10.677  17.135  0.0117  0.3616 -0.0820
 7006W        W24530   8.288  11.243   5.679  0.1218 -0.0471  0.0745
 7007W        W24531   1.378   3.903  11.940 -0.0700 -0.1689 -0.1970
 7008W        W24532   1.425   4.722  16.077 -0.2558 -0.1884  0.1612
 7009W        W24533   7.728   3.212   0.547 -0.2244 -0.3286 -0.1203
 7010W        W24534   1.414   3.298  11.081 -0.1932  0.0330  0.2924
 7011W        W24535   4.014  14.164  16.352  0.0032 -0.1888 -0.1893
 7012W        W24536  11.663  10.299  14.673 -0.0496 -0.0883  0.5135
 7013W        W24537   5.366   9.171   2.266 -0.0547 -0.0678  0.0331
 7014W        W24538   4.658  12.559  11.120 -0.1763  0.2118  0.0890
 7015W        W24539   8.309  14.770  14.764  0.1181 -0.0469  0.0622
 7016W        W24540   7.307   4.643   0.016  0.2662  0.0876  0.1933
 7017W        W24541  10.679  10.235   4.691  0.2647 -0.2145  0.0739
 7018W        W24542   6.803   0.329  13.213 -0.1085  0.0960 -0.3082
 7019W        W24543  11.827   3.131   5.551 -0.3142  0.0527 -0.2043
 7020W        W24544  11.578  12.994  17.613  0.2782  0.0150  0.1137
 7021W        W24545   7.024  10.334  15.219  0.0904 -0.4076 -0.0575
 7022W        W24546  16.494   9.712   2.368 -0.0320  0.0003 -0.1810
 7023W        W24547  16.173  16.148  12.595 -0.0387 -0.0668 -0.0682
 7024W        W24548   9.733   1.103   2.125 -0.1427  0.2922  0.0243
 7025W        W24549  13.411   1.215   4.378 -0.1549 -0.0894 -0.3960
 7026W        W24550  10.758  14.550   5.481 -0.0773  0.1251  0.2319
 7027W        W24551   9.436   0.736  12.665  0.2547  0.0521 -0.0112
 7028W        W24552   6.247  16.521   2.202  0.2661 -0.2779  0.2281
 7029W        W24553  14.944  11.815   3.822 -0.0973  0.2484  0.2022
 7030W        W24554   1.333   3.925  17.148  0.2318  0.2900 -0.0660
 7031W        W24555  10.801   1.423  13.042 -0.3082 -0.0253  0.1294
 7032W        W24556   8.318  15.850  15.408  0.0743 -0.0636 -0.2174
 7033W        W24557  14.167   7.512  17.447  0.1549  0.0048 -0.1461
 7034W        W24558   0.110  17.044   2.380  0.0103 -0.0289  0.3223
 7035W        W24559   6.262  14.934  15.163 -0.2162 -0.3453 -0.0782
 7036W        W24560   4.324   3.294  14.484 -0.1658 -0.3831  0.0828
 7037W        W24561   5.128   1.956  13.323 -0.1111 -0.0780 -0.0501
 7038W        W24562   5.676   0.504   0.586  0.1055  0.2546  0.0900
 7039W        W24563   4.021   1.392  17.070  0.0785  0.0646  0.0621
 7040W        W24564   0.490  15.522   3.395  0.0067 -0.1147 -0.3266
 7041W        W24565  12.619  10.288   0.637 -0.2466  0.2915 -0.3583
 7042W        W24566  12.238  10.668   1.733 -0.1219 -0.1250 -0.1112
 7043W        W24567  16.585  16.668   1.961  0.1591  0.1509 -0.1716
 7044W        W24568  13.070   0.517   3.132 -0.0949 -0.0421 -0.4400
 7045W        W24569   7.236  10.275  15.667  0.1214 -0.3317  0.2274
 7046W        W24570   4.248  12.461  15.424  0.1069 -0.2379 -0.1787
 7047W        W24571  12.227   3.362  16.846  0.0192  0.1128 -0.0299
 7048W        W24572   1.423   9.724  17.145 -0.2362 -0.2374  0.0719
 7049W        W24573   9.837   0.962  11.738 -0.0020 -0.1856 -0.1931
 7050W        W24574  11.886   9.424  13.542  0.0324  0.1756 -0.0327
 7051W        W24575   3.899   1.479  14.094  0.2461 -0.2306 -0.2318
 7052W        W24576   3.263  12.472   1.431  0.0957  0.3033  0.0266
 7053W        W24577   6.214  14.416  12.430 -0.2878 -0.0807  0.1056
 7054W        W24578   9.251  15.653   5.947 -0.0647  0.1800  0.0419
 7055W        W24579   7.589  11.284  13.392 -0.1969 -0.0762 -0.0145
 7056W        W24580  13.825   2.256   0.880  0.1038 -0.0274  0.1629
 7057W        W24581   4.967   1.343   5.456 -0.0157  0.1735  0.0467
 7058W        W24582   1.705  10.308   0.227  0.1133 -0.0722 -0.0573
 7059W        W24583  13.753  11.799   5.251 -0.0661 -0.3719 -0.0577
 7060W        W24584   0.574   5.283   0.426 -0.0624 -0.0044  0.4622
 7061W        W24585   6.124  13.140   4.995  0.0851  0.1192 -0.1952
 7062W        W24586   1.268   1.421  12.489 -0.1044 -0.1006 -0.0856
 7063W        W24587   0.604   4.187   3.236  0.1733 -0.0441  0.1361
 7064W        W24588  13.016   2.799   2.555  0.2119  0.1382 -0.2152
 7065W        W24589  11.867   7.636   2.920  0.2046 -0.0015  0.3156
 7066W        W24590   0.607  15.663   4.269 -0.2028 -0.0188  0.2684
 7067W        W24591   0.230   2.274  16.339 -0.0077 -0.0025  0.3730
 7068W        W24592   9.474   1.869  14.170 -0.1040  0.1984 -0.2075
 7069W        W24593  13.800  14.919  15.444 -0.0981  0.2940  0.1349
 7070W        W24594   0.047   3.024  16.221 -0.0831  0.0741 -0.3516
 7071W        W24595  11.674  14.080   1.420  0.0662  0.2015  0.1247
 7072W        W24596  14.344  12.120  11.439 -0.0893 -0.0966  0.0159
 7073W        W24597   3.310   7.084  12.413 -0.1960  0.0609 -0.1174
 7074W        W24598  16.127  12.318   4.404 -0.1501 -0.1209 -0.3320
 7075W        W24599   6.906   0.450   1.821  0.0509  0.0372  0.0967
 7076W        W24600  12.802   0.840  17.057 -0.0640  0.0149  0.3968
 7077W        W24601  14.454  16.199  12.718  0.0644 -0.5176  0.3004
 7078W        W24602   1.775   7.908  15.754 -0.2744  0.0767 -0.3072
 7079W        W24603  14.959   3.106   1.841 -0.1807  0.2338 -0.0797
 7080W        W24604  16.683   0.201   3.699  0.1090 -0.1896  0.1762
 7081W        W24605   8.624   3.334   5.585  0.0265  0.0034 -0.1689
 7082W        W24606  14.315   2.169  13.131  0.1651  0.0838 -0.0252
 7083W        W24607   8.938  13.986   1.663  0.1449  0.0147 -0.1536
 7084W        W24608  10.920   5.790  13.156  0.0153 -0.0855 -0.1247
 7085W        W24609  11.619  15.290   2.582 -0.2139 -0.1937 -0.3213
 7086W        W24610   0.884   7.297  17.244 -0.2442  0.1229 -0.3899
 7087W        W24611   9.114   5.718   0.618 -0.0454 -0.1705  0.2977
 7088W        W24612   9.572  11.933  14.697 -0.0679 -0.2569  0.0840
 7089W        W24613   4.435   9.045   1.415  0.1276  0.0600  0.3588
 7090W        W24614  13.944  13.374   4.192 -0.3175  0.0070  0.0747
 7091W        W24615   9.169  13.248   5.168  0.1421  0.0830 -0.0888
 7092W        W24616   6.809   8.458  17.395  0.1473 -0.2800 -0.2775
 7093W        W24617  11.005  14.770  15.637  0.0676 -0.2783 -0.0385
 7094W        W24618   6.593   9.849   0.434  0.0978 -0.0019 -0.4991
 7095W        W24619   3.024   2.655  17.160 -0.1604 -0.1017  0.0170
 7096W        W24620   2.659  11.521   2.372 -0.1163 -0.4178  0.1075
 7097W        W24621   9.997   1.798   0.450 -0.2064  0.2095 -0.4316
 7098W        W24622   6.877   5.722  14.912 -0.2439  0.1674 -0.0499
 7099W        W24623   4.770   8.984   2.359  0.1125 -0.0038 -0.0493
 7100W        W24624  14.944   4.076  12.431  0.0133  0.3314  0.0569
 7101W        W24625  15.721   6.263  16.801  0.1636 -0.0939 -0.1803
 7102W        W24626   3.171   0.447   5.333 -0.0650  0.0336  0.1562
 7103W        W24627   6.345   0.907   5.289 -0.1474 -0.3289  0.1695
 7104W        W24628  13.494  15.201   0.857 -0.0866  0.3721 -0.0905
 7105W        W24629  10.011   6.206  13.125 -0.0475 -0.2211 -0.1456
 7106W        W24630   9.829   7.441  14.526  0.1173 -0.1344 -0.0065
 7107W        W24631   4.333   9.902  17.441  0.0598  0.2311 -0.1966
 7108W        W24632  10.656   4.383  13.460 -0.3742  0.1077  0.0263
 7109W        W24633   3.226   8.001   2.556  0.0642  0.0657  0.2371
 7110W        W24634  14.842   7.089   4.610  0.0698  0.4397  0.1809
 7111W        W24635   5.194   3.996   2.468 -0.1953 -0.2533  0.0430
 7112W        W24636   0.400   4.078   0.981 -0.2414 -0.4349 -0.0059
 7113W        W24637   3.662  11.579   1.385 -0.1251  0.0540 -0.1024
 7114W        W24638  10.123   4.999  16.421 -0.1399  0.1371  0.4846
 7115W        W24639   3.679   7.704  12.801 -0.0618 -0.2178 -0.2514
 7116W        W24640  11.349  13.311   2.917 -0.2064  0.1641  0.0022
 7117W        W24641  11.909   2.863  15.041 -0.0338  0.1377 -0.1940
 7118W        W24642   2.269  13.141   0.246 -0.2203  0.4057 -0.3578
 7119W        W24643   3.434  15.970   3.315  0.0164 -0.1198  0.1733
 7120W        W24644   2.993   1.488  13.683  0.1551 -0.0703 -0.1257
 7121W        W24645   8.011  13.988   3.360  0.0676  0.1264 -0.1481
 7122W        W24646  15.253   9.756   4.913  0.2935  0.0947  0.0112
 7123W        W24647   4.630   5.831   3.330 -0.0627 -0.0702 -0.1007
 7124W        W24648  15.680   0.100  17.523 -0.3644  0.0077 -0.0067
 7125W        W24649   9.415  11.394   2.778 -0.1860  0.0210 -0.1068
 7126W        W24650  13.053  15.687   0.483  0.1666 -0.0263  0.1846
 7127W        W24651   8.866   3.036   4.143 -0.0116 -0.0351  0.0446
 7128W        W24652  16.794   2.190  17.476 -0.0384  0.0732 -0.1051
 7129W        W24653   9.464  14.047   3.371 -0.0884  0.3575 -0.1212
 7130W        W24654  16.138   1.931   5.329  0.2657 -0.0287 -0.0584
 7131W        W24655   6.966   0.120   0.670 -0.1514  0.0740  0.0032
 7132W        W24656  13.106   1.775   2.653 -0.3457  0.0544 -0.1186
 7133W        W24657  13.752   4.629   1.585 -0.0184  0.4064 -0.0635
 7134W        W24658   9.841  15.906  15.433  0.0206  0.1986  0.0625
 7135W        W24659  16.123   8.518  12.533  0.1786  0.2535 -0.3017
 7136W        W24660  16.695  11.484   2.855  0.0976 -0.1428  0.0375
 7137W        W24661   4.493   3.733   3.643  0.1381  0.2698 -0.0040
 7138W        W24662   9.239   3.735  14.325  0.0833 -0.1878  0.1770
 7139W        W24663  15.456   5.518   3.401  0.0824  0.2004  0.0811
 7140W        W24664   2.128  13.432   4.906 -0.0372 -0.1276 -0.0492
 7141W        W24665   2.934   8.828   4.897 -0.1401 -0.0089 -0.3210
 7142W        W24666   5.892  10.299  17.101 -0.1091  0.2577  0.0555
 7143W        W24667  13.502  16.413  17.453  0.1263  0.3771 -0.1690
 7144W        W24668  15.400  10.348   3.734  0.0024 -0.0296 -0.0758
 7145W        W24669  11.112  16.368   2.885 -0.6830  0.2081  0.0876
 7146W        W24670  12.907   1.036   4.413 -0.2973 -0.0962  0.0398
 7147W        W24671   9.375   9.532   2.187 -0.0925  0.3702 -0.2014
 7148W        W24672   5.069  16.171  15.660 -0.0288 -0.1379  0.2030
 7149W        W24673  11.090  15.558   5.706 -0.0202 -0.2023  0.1902
 7150W        W24674  10.226   3.298  17.129  0.1745  0.1359 -0.1292
 7151W        W24675  15.418   7.692  16.678  0.0460 -0.3261  0.0856
 7152W        W24676   1.298   9.427   0.232 -0.2409 -0.0278 -0.1250
 7153W        W24677   0.103   9.166   2.788 -0.0462  0.1115 -0.1173
 7154W        W24678   9.278   6.287   3.344  0.0748 -0.0413  0.3171
 7155W        W24679  11.518   6.810   2.070  0.3474  0.4404  0.1130
 7156W        W24680   5.955  11.029  15.407  0.2095 -0.0260  0.1909
 7157W        W24681   4.492   4.392   1.357  0.0078 -0.2306  0.0075
 7158W        W24682   3.537  12.503   2.388  0.1531 -0.0313 -0.0675
 7159W        W24683  17.040  12.792   1.541 -0.2232  0.0166  0.2668
 7160W        W24684   2.321  10.557   4.665  0.0369 -0.0137 -0.0202
 7161W        W24685   1.235  14.548  17.280 -0.1401  0.0645  0.5417
 7162W        W24686  13.915  16.429  12.518 -0.2596  0.0216  0.0918
 7163W        W24687  11.405  14.074  16.831  0.0030 -0.0630 -0.1537
 7164W        W24688  10.186   6.267  16.731  0.1644 -0.2302 -0.0700
 7165W        W24689   6.585  10.623  16.349  0.1244 -0.1289 -0.1884
 7166W        W24690  10.741  14.139   1.413 -0.0235  0.0194  0.1093
 7167W        W24691   8.877   3.457  12.331  0.0049  0.1970  0.1150
 7168W        W24692  17.084   4.135  13.031  0.1335  0.0113  0.2287
 7169W        W24693   4.516   8.308  15.859 -0.0274 -0.0767  0.0415
 7170W        W24694  15.576   0.823   5.722  0.3726  0.4329 -0.2028
 7171W        W24695   2.445   8.239  15.096 -0.1557  0.0636 -0.0420
 7172W        W24696   7.675   4.242   1.465  0.0027  0.1833  0.0377
 7173W        W24697   6.949   7.410   2.962  0.2310 -0.1052  0.0970
 7174W        W24698   8.210   0.959   2.322  0.0633  0.0321 -0.1808
 7175W        W24699   0.768   7.383   2.370  0.0374  0.1024  0.2942
 7176W        W24700   2.761  16.888  15.394 -0.2337  0.1801  0.0458
 7177W        W24701   2.184  15.406   0.461  0.4379 -0.2919 -0.0550
 7178W        W24702  12.651  14.037   5.231 -0.0351  0.0657 -0.1304
 7179W        W24703  15.171   7.197   1.995  0.1456  0.1347 -0.0705
 7180W        W24704  11.367  14.790  12.459 -0.1105 -0.1557 -0.0777
 7181W        W24705   7.320  10.005   0.100 -0.1634  0.0729 -0.2740
 7182W        W24706  17.218  14.275  17.119 -0.1343  0.1683 -0.3729
 7183W        W24707   7.959  13.871   0.651  0.0344  0.0140 -0.0516
 7184W        W24708   0.308   4.797   2.453 -0.1549  0.1264  0.0838
 7185W        W24709  13.015   0.971  13.810 -0.0946 -0.1680  0.0505
 7186W        W24710  15.631   1.939   3.478 -0.4193  0.1015 -0.0033
 7187W        W24711  14.483  11.259  12.303  0.3464 -0.1798  0.1698
 7188W        W24712  10.280  14.855   0.922 -0.0129 -0.0900  0.2742
 7189W        W24713  15.326  15.063  17.440  0.1610 -0.0408  0.0477
 7190W        W24714  12.855  11.617  17.046 -0.0341  0.1652 -0.1523
 7191W        W24715   2.695   9.143   1.374  0.1850  0.0912  0.2548
 7192W        W24716  10.656  16.936   5.171 -0.0936  0.1089 -0.3108
 7193W        W24717  14.000   3.694   2.329 -0.2100 -0.0691  0.0196
 7194W        W24718   5.005  12.371   1.246 -0.1817  0.2143  0.0213
 7195W        W24719  14.953   9.039   4.238 -0.0096 -0.2444 -0.0383
 7196W        W24720  10.575   4.726  15.053  0.1904  0.3895  0.0748
 7197W        W24721  13.033   5.352  12.468  0.4297  0.0746  0.0961
 7198W        W24722  13.939   9.399   3.704 -0.3414 -0.0357  0.1065
 7199W        W24723   9.468   3.470  16.702 -0.1262  0.0811  0.0806
 7200W        W24724  14.432  16.887   4.567 -0.2878  0.0803 -0.1958
 7201W        W24725   3.960   0.568   5.160 -0.2225 -0.0356 -0.1260
 7202W        W24726  13.332   9.205   1.364 -0.1559 -0.1522  0.0293
 7203W        W24727   7.674   9.649  17.643 -0.2266  0.1892 -0.1524
 7204W        W24728  10.461  13.858  14.078  0.3116 -0.0464 -0.3066
 7205W        W24729   6.453   9.499   4.329  0.0085 -0.1648  0.0199
 7206W        W24730   9.161   6.674   3.653  0.0301  0.0930 -0.0357
 7207W        W24731   8.225  13.572  15.178  0.0775 -0.0863  0.0371
 7208W        W24732   4.164   6.373  15.454  0.2366  0.0142 -0.2142
 7209W        W24733  10.229  12.341  17.419  0.3181 -0.2221  0.0288
 7210W        W24734  10.127  13.526  16.181  0.1413 -0.0461  0.3160
 7211W        W24735  14.969  12.371  12.088 -0.1529  0.0048 -0.1188
 7212W        W24736  13.693   5.696   4.738 -0.3364 -0.2436  0.0854
 7213W        W24737   3.705  15.578   4.257 -0.0625 -0.0123  0.1233
 7214W        W24738   7.338   9.949   3.927  0.0074  0.0114  0.0506
 7215W        W24739   3.148  10.580   4.046  0.0475 -0.0203 -0.2025
 7216W        W24740   6.597  17.002   1.560  0.2708  0.1181 -0.1094
 7217W        W24741   6.490   9.204   0.272  0.1744  0.1629 -0.2451
 7218W        W24742  13.963  10.686  15.249 -0.1099  0.0502  0.1873
 7219W        W24743  15.234   3.153   4.957 -0.0795 -0.0394 -0.0208
 7220W        W24744  13.000   2.819  15.684 -0.1621 -0.1294 -0.2079
 7221W        W24745   6.540   9.346  12.782 -0.2312 -0.2246  0.0286
 7222W        W24746   0.041   0.107   2.812  0.2772  0.0307  0.3245
 7223W        W24747   0.902   2.627  15.814  0.1347 -0.1303  0.1151
 7224W        W24748   7.827   8.028   2.118  0.1294 -0.0258  0.0785
 7225W        W24749  12.450  16.279  15.092  0.1533 -0.2505  0.4487
 7226W        W24750   6.968   9.081   5.954  0.3544  0.0282  0.1731
 7227W        W24751  12.749   3.690   1.025 -0.0695  0.1051 -0.2226
 7228W        W24752   3.925   1.101   4.375  0.0647  0.0284  0.0411
 7229W        W24753   3.658   3.935  11.350 -0.1461 -0.0043  0.0300
 7230W        W24754   3.698   1.052  16.924  0.2808  0.2480 -0.1389
 7231W        W24755  15.310   3.964   4.669  0.0863 -0.0720  0.2557
 7232W        W24756  11.375   7.719  12.597 -0.0690 -0.2865 -0.1427
 7233W        W24757   1.106  15.550  13.081 -0.2025 -0.0541 -0.0201
 7234W        W24758   3.601   2.767   1.738  0.0060 -0.0855 -0.2045
 7235W        W24759   2.852   6.668   0.761  0.0980  0.0049 -0.0042
 7236W        W24760   1.064   3.450   2.153  0.1954  0.2547  0.0433
 7237W        W24761  10.291   8.691  15.084 -0.0344  0.2062 -0.0445
 7238W        W24762   2.644   0.172  16.402  0.0027  0.0399 -0.1896
 7239W        W24763   9.762  11.751   3.889  0.1096 -0.2155  0.2346
 7240W        W24764   5.719   7.968   1.694  0.1424  0.2012 -0.2775
 7241W        W24765   8.721  10.262   2.110 -0.0682  0.2942 -0.0620
 7242W        W24766   8.363   6.944   5.483 -0.0388 -0.2706 -0.1412
 7243W        W24767  14.683  12.453   3.786  0.1503 -0.1053  0.0851
 7244W        W24768  15.770   3.016  12.327  0.0523  0.0534  0.2463
 7245W        W24769  13.961  14.632   1.866 -0.0980 -0.1199  0.0479
 7246W        W24770  15.473  14.111   3.878  0.0247  0.1553  0.2280
 7247W        W24771   4.833   7.107   2.772 -0.2237  0.2595  0.1642
 7248W        W24772  12.996   6.042  12.379 -0.2144 -0.3239  0.1906
 7249W        W24773  11.198   9.327  15.839 -0.1175  0.0647  0.0419
 7250W        W24774  16.952   1.077   4.012  0.0143  0.0590 -0.0551
 7251W        W24775  14.048   5.184  16.265 -0.3507  0.0509 -0.0042
 7252W        W24776   5.493   5.512  14.624  0.3218 -0.0918  0.3619
 7253W        W24777  13.004  11.557  16.540 -0.1589 -0.0684 -0.3909
 7254W        W24778   4.528  15.681   4.595  0.1673  0.0175 -0.0661
 7255W        W24779  15.746   5.470   0.597  0.3044 -0.3127  0.1214
 7256W        W24780  10.092   2.100   1.460  0.0215  0.0270 -0.3416
 7257W        W24781  14.236  16.666  17.305  0.3495 -0.1731  0.1953
 7258W        W24782   9.440   6.533  14.307  0.2808  0.0807 -0.1150
 7259W        W24783  15.066   3.709  16.503 -0.2059 -0.2488  0.1673
 7260W        W24784   5.343  12.095  16.687 -0.0403 -0.1032 -0.0886
 7261W        W24785   1.489  15.110  12.118  0.4567 -0.3338 -0.0370
 7262W        W24786   7.557   7.427   0.893 -0.1070 -0.2356  0.2543
 7263W        W24787   5.057   1.445   4.544  0.0121  0.1487 -0.1872
 7264W        W24788   5.321   3.856   0.947  0.0727 -0.0059 -0.1853
 7265W        W24789   4.244   3.003  13.834 -0.2732 -0.2838 -0.4820
 7266W        W24790  15.119  11.978  13.302  0.0724  0.4461  0.1295
 7267W        W24791   5.550   6.588   0.150  0.1346 -0.0113 -0.0789
 7268W        W24792  11.977   3.999  13.931 -0.4255 -0.2568  0.2649
 7269W        W24793   5.095   1.006  13.696 -0.0771 -0.1508  0.1424
 7270W        W24794  16.442  12.371   5.164  0.0572 -0.2003 -0.4603
 7271W        W24795   8.184   1.222  13.517  0.1368 -0.0786 -0.1726
 7272W        W24796   4.297  16.111   0.517 -0.0086  0.1379  0.3197
 7273W        W24797   8.212  13.230   3.359  0.1851 -0.0150 -0.0089
 7274W        W24798   9.695  14.342   1.968 -0.0010  0.1463  0.0353
 7275W        W24799   6.105  13.175  13.799  0.4297  0.0090  0.2822
 7276W        W24800  10.620  10.575  13.246 -0.1400 -0.1335 -0.1850
 7277W        W24801   1.208  12.667  14.110 -0.0438  0.3342 -0.1730
 7278W        W24802  16.454  11.065   1.093  0.0847  0.1236 -0.1475
 7279W        W24803  10.368  14.085  16.052 -0.1927 -0.3213 -0.2820
 7280W        W24804   6.964   2.827   3.669  0.0944 -0.0794 -0.1868
 7281W        W24805  10.920  16.558   2.034  0.0690 -0.0711  0.1531
 7282W        W24806  14.210   2.258  12.400 -0.3293  0.2309 -0.1695
 7283W        W24807   1.382   7.433   2.473  0.2778  0.0647 -0.1292
 7284W        W24808   7.322   7.296  15.686  0.0721  0.0752  0.1029
 7285W        W24809   1.509  10.411  13.477  0.0576  0.1165  0.0114
 7286W        W24810  16.907   7.633   3.774 -0.1890 -0.1313 -0.3438
 7287W        W24811   9.007  10.272  14.293 -0.0143 -0.0350  0.2357
 7288W        W24812   5.839  10.845   0.859 -0.4292 -0.0958  0.0927
 7289W        W24813   3.566  11.769   0.350  0.0900 -0.0009 -0.1897
 7290W        W24814   3.616  14.851   3.691  0.1501  0.0649  0.2736
 7291W        W24815  12.058   6.584  13.181  0.1305  0.0650 -0.4151
 7292W        W24816  16.944   9.931   2.484  0.3833 -0.3516  0.0025
 7293W        W24817   0.176   1.892  15.825 -0.0050 -0.0818  0.0591
 7294W        W24818  11.355   2.979   3.736  0.3710 -0.5453  0.1581
 7295W        W24819   4.485  12.146   3.568 -0.2226 -0.1208  0.2977
 7296W        W24820  10.709   3.663  12.680  0.2269 -0.1086 -0.0262
 7297W        W24821  14.325   4.923  15.791  0.1454 -0.1773  0.0548
 7298W        W24822   4.288   6.598   5.306 -0.0667  0.3149  0.1936
 7299W        W24823  12.805  16.213  11.681  0.0624 -0.3215  0.1540
 7300W        W24824  14.761  12.589  15.569 -0.0998  0.1645  0.2750
 7301W        W24825   4.851   0.157  16.474  0.3139 -0.1401 -0.2783
 7302W        W24826  10.810   7.323  14.901 -0.0614  0.4597  0.2309
 7303W        W24827   7.609   4.707   2.844 -0.0647  0.0979  0.3970
 7304W        W24828   2.540  11.054  14.474  0.1068 -0.0498  0.2784
 7305W        W24829   2.439  14.805   1.750 -0.0095  0.1491 -0.3001
 7306W        W24830   8.683   3.066  13.326  0.1953  0.2143  0.0724
 7307W        W24831   9.579  11.987   4.729  0.0749  0.0693 -0.1838
 7308W        W24832  16.829   7.789   0.522 -0.1014  0.1716  0.0424
 7309W        W24833   1.833  13.937   0.325  0.3042 -0.2790 -0.1054
 7310W        W24834   5.627   1.702  17.027 -0.0762  0.2013 -0.1800
 7311W        W24835   1.104   6.229   4.703 -0.0115 -0.1600 -0.0534
 7312W        W24836  14.753   3.815  14.793 -0.1782  0.1698 -0.0902
 7313W        W24837  13.469   1.709  15.716 -0.0587 -0.1766 -0.1290
 7314W        W24838  13.117   6.529  17.400 -0.0987  0.0820  0.2610
 7315W        W24839   7.711   9.712   3.763 -0.0897  0.2676  0.3232
 7316W        W24840   4.863   5.009   0.243 -0.0524  0.1625  0.2927
 7317W        W24841   0.720   0.450   0.236  0.2341  0.1490  0.0320
 7318W        W24842  16.478   8.496   4.169  0.1086 -0.2464 -0.2756
 7319W        W24843  11.237   8.808   1.638  0.2345  0.1760  0.3855
 7320W        W24844   3.494  10.942   3.541  0.0420  0.3995  0.2841
 7321W        W24845   0.410  15.289  16.625  0.0334  0.1544  0.0248
 7322W        W24846   8.966  10.460   3.331 -0.2001 -0.1413  0.0568
 7323W        W24847   1.426   2.169  17.654  0.2772 -0.0863 -0.1641
 7324W        W24848  16.090   3.413   0.473 -0.0612 -0.2033  0.2708
 7325W        W24849   7.917   4.343  15.840 -0.2370  0.0425 -0.1859
 7326W        W24850   2.845   7.614   4.780 -0.3117 -0.0728 -0.0532
 7327W        W24851  15.121  14.381  15.873 -0.1319 -0.1510  0.0239
 7328W        W24852  14.827   4.346  17.379  0.0529  0.1329  0.1987
 7329W        W24853   1.946   7.989   5.383  0.0852  0.0351  0.2498
 7330W        W24854   7.583   3.656   0.763  0.5774 -0.1041 -0.1058
 7331W        W24855   1.586  15.659  15.968  0.0275 -0.0680 -0.1339
 7332W        W24856  12.286   8.438   3.217 -0.0465  0.5060 -0.0154
 7333W        W24857  13.037  13.991   2.644 -0.2269  0.0136  0.3495
 7334W        W24858  16.353   8.052   4.931 -0.0865  0.1784 -0.0127
 7335W        W24859  10.293  13.921  15.196  0.1027  0.0979  0.0089
 7336W        W24860   7.697  10.064   2.296  0.1673  0.2068  0.0283
 7337W        W24861  13.654  15.475   3.881  0.1094 -0.1806  0.0331
 7338W        W24862   8.854  14.912  16.199 -0.1043 -0.0206 -0.0346
 7339W        W24863   4.720   9.663  13.604 -0.1651 -0.0074  0.2739
 7340W        W24864  16.959  15.991   2.427  0.3885  0.0007 -0.0156
 7341W        W24865  16.881  14.465  13.801  0.0711 -0.0225 -0.0350
 7342W        W24866   0.615   5.836   5.430  0.0606  0.1552 -0.0854
 7343W        W24867  14.490   9.161  12.965 -0.1474  0.3439 -0.3225
 7344W        W24868   0.569   1.383  16.548  0.1355  0.1388 -0.1903
 7345W        W24869   6.961  14.129  12.939 -0.4114 -0.0796  0.0790
 7346W        W24870   3.494  12.363  12.360 -0.2841  0.2293 -0.0776
 7347W        W24871   5.935  17.007  16.168  0.1483 -0.1831 -0.0818
 7348W        W24872   7.539   7.622  13.324  0.2034  0.0165 -0.1867
 7349W        W24873   2.706   0.774  15.639 -0.0958  0.3625 -0.0734
 7350W        W24874  12.093  11.499   0.091  0.1250  0.3587  0.1598
 7351W        W24875   3.067   4.690  12.220 -0.1237 -0.2875 -0.1126
 7352W        W24876  10.867  16.924  12.673 -0.3320 -0.0370 -0.0498
 7353W        W24877   0.109  13.564   4.274 -0.5316 -0.0583 -0.3554
 7354W        W24878   3.273   4.333  13.065  0.2820  0.1994  0.0661
 7355W        W24879   4.919   8.456   0.466 -0.1149  0.1004  0.0352
 7356W        W24880  15.181   2.040   0.156  0.0947  0.0049 -0.2080
 7357W        W24881  13.283  15.756  13.474 -0.0972  0.0898  0.0848
 7358W        W24882  13.850  10.087  15.432  0.0638  0.0384  0.2571
 7359W        W24883   7.950   7.866   1.671  0.1684 -0.0994 -0.1655
 7360W        W24884   5.648   8.648  16.058 -0.1552  0.0738  0.3824
 7361W        W24885   2.223   0.847  12.311  0.2374  0.0098 -0.0869
 7362W        W24886  11.122   7.901  16.263  0.2336  0.0064 -0.1570
 7363W        W24887   3.501   9.959   3.463  0.1781  0.1288 -0.1838
 7364W        W24888  12.572   1.238  15.612 -0.0387 -0.3136 -0.2742
 7365W        W24889   8.381  15.338  12.808  0.1142 -0.1038  0.0823
 7366W        W24890   6.795   2.220  12.864  0.0772  0.2127  0.0389
 7367W        W24891   4.019  16.361  14.654  0.1250 -0.0820  0.1296
 7368W        W24892   8.999   1.861  14.428  0.1497  0.1568 -0.0324
 7369W        W24893   6.572   1.237   5.626 -0.0152 -0.1075 -0.1633
 7370W        W24894   4.108  11.164  14.052 -0.0389  0.3899 -0.2171
 7371W        W24895  15.407   5.191  15.937 -0.1060  0.4562 -0.1310
 7372W        W24896  10.650  13.493  14.341  0.2716 -0.0531 -0.3536
 7373W        W24897  10.890   8.897   3.321 -0.0256  0.2850 -0.2349
 7374W        W24898  11.261  15.027  17.531 -0.0210 -0.0547 -0.3991
 7375W        W24899  14.550  12.075   2.249 -0.1301 -0.1283  0.1869
 7376W        W24900   8.393   6.249  15.697 -0.0904  0.2170  0.3282
 7377W        W24901  11.287   4.107  15.036 -0.0793  0.1088 -0.0132
 7378W        W24902  10.085  15.561   2.149 -0.1542  0.1389  0.1630
 7379W        W24903  16.385   1.483  16.567  0.0833  0.0624  0.0299
 7380W        W24904   1.625  16.291   0.417 -0.2570 -0.0428  0.0377
 7381W        W24905   0.319   3.423  16.019  0.2566 -0.1176 -0.1731
 7382W        W24906   9.983   6.867  13.580 -0.2365 -0.1322  0.0046
 7383W        W24907  10.035  17.172  13.080  0.1227 -0.3218  0.1111
 7384W        W24908   3.845  11.114   2.225 -0.0050 -0.4634  0.0706
 7385W        W24909  15.249  15.378  13.765  0.0113 -0.0385 -0.0353
 7386W        W24910  15.830   1.935   1.290  0.0239 -0.0522 -0.3387
 7387W        W24911  13.237   8.445   0.820 -0.0538  0.1870  0.1002
 7388W        W24912  16.576  12.400   4.653  0.0035  0.0551  0.1446
 7389W        W24913  12.205   6.584   2.635  0.0900 -0.1346  0.1793
 7390W        W24914   5.364   9.808   0.648 -0.0613 -0.1299 -0.0566
 7391W        W24915   9.985   1.654   1.941  0.1231  0.0390  0.1386
 7392W        W24916   3.498  12.865  15.103 -0.0728  0.0055  0.0082
 7393W        W24917   1.863  10.425  13.850 -0.1619  0.2054 -0.3339
 7394W        W24918  15.780   1.349   3.334  0.2647 -0.1796  0.1804
 7395W        W24919   4.158   0.622  12.241 -0.0040  0.2128  0.1710
 7396W        W24920  12.406   6.358   3.040  0.1359 -0.1494  0.1027
 7397W        W24921   4.563  14.989   4.384 -0.0121  0.2045 -0.0141
 7398W        W24922  10.939  12.556   1.992 -0.0794  0.1489 -0.0435
 7399W        W24923   7.922   6.829   0.225 -0.2160  0.3103  0.1379
 7400W        W24924  15.477   5.119   1.363  0.1357  0.0331  0.2242
 7401W        W24925  12.162   8.090   0.241 -0.0863  0.1188 -0.0981
 7402W        W24926   1.401  10.841   3.815  0.3539 -0.1274  0.0321
 7403W        W24927   3.904   5.189   2.340 -0.2129 -0.1209  0.4939
 7404W        W24928   9.934  15.048  14.854 -0.0004  0.2620 -0.0597
 7405W        W24929  15.620   7.749  11.804 -0.0928 -0.2772 -0.0485
 7406W        W24930   8.218   0.997   5.049  0.0221 -0.1197  0.0969
 7407W        W24931  14.323   4.667   3.625  0.1728 -0.1582 -0.1909
 7408W        W24932   0.570   0.844  14.603  0.0663 -0.0891 -0.0236
 7409W        W24933   2.440   0.767   3.809 -0.1129 -0.1234  0.1772
 7410W        W24934   7.357  10.386   2.691 -0.1614  0.1554 -0.0929
 7411W        W24935   7.349   9.500   1.270 -0.1941  0.0377 -0.1240
 7412W        W24936   6.016  15.689  13.600  0.2026 -0.0587 -0.0565
 7413W        W24937   5.483   7.934  13.174  0.0857 -0.0575  0.2647
 7414W        W24938   0.834   4.278   0.169  0.1571 -0.1142  0.1265
 7415W        W24939   9.237  11.039  13.791  0.1245 -0.2636  0.2248
 7416W        W24940  12.369  17.027   4.669  0.3142 -0.2275 -0.1383
 7417W        W24941  11.464  10.116  12.358 -0.2064 -0.2897 -0.1700
 7418W        W24942  11.616   2.026  12.947 -0.0667  0.0050 -0.1385
 7419W        W24943   4.790  15.234  16.620  0.0866  0.1876  0.2227
 7420W        W24944   7.057  12.047   0.932  0.0237  0.4060 -0.0571
 7421W        W24945  10.807   1.334   5.763  0.3211 -0.0029 -0.1470
 7422W        W24946   6.188   2.184   5.931 -0.2024 -0.1379  0.0152
 7423W        W24947   7.660  12.676   4.391 -0.0718 -0.0152 -0.3968
 7424W        W24948   2.113   9.818   3.162  0.0918  0.3246  0.2749
 7425W        W24949  15.341   0.828  15.941 -0.2824  0.0465  0.0580
 7426W        W24950   3.001  15.877  15.789  0.0102 -0.0430  0.2943
 7427W        W24951   8.960   6.743   5.599 -0.0282 -0.1087 -0.1466
 7428W        W24952   8.565   9.673   3.201  0.2923  0.1276  0.0416
 7429W        W24953  16.054  15.167  16.269  0.1929 -0.0220  0.1225
 7430W        W24954   0.018   2.083  17.201 -0.0660 -0.1430 -0.2679
 7431W        W24955   9.147   7.813   4.224  0.1077 -0.0676 -0.1515
 7432W        W24956   5.611  13.336  17.366  0.0228 -0.0411  0.1450
 7433W        W24957   1.716  11.514   1.854  0.1634  0.2257  0.3279
 7434W        W24958   9.204  16.183   6.804  0.0062  0.0037  0.2794
 7435W        W24959   6.402   7.830   4.905 -0.0158  0.2051  0.2598
 7436W        W24960  13.908  14.235  14.177  0.0992 -0.1905  0.0571
 7437W        W24961  14.721   7.810   1.568 -0.0670 -0.3634  0.1653
 7438W        W24962  12.021  11.091   0.318 -0.0288 -0.1990 -0.2278
 7439W        W24963  16.676   0.582  14.963 -0.0039 -0.0699  0.2675
 7440W        W24964   1.835  16.264   5.441  0.0642  0.0548 -0.1171
 7441W        W24965   5.215   9.131  16.749  0.1198 -0.0406  0.4035
 7442W        W24966  13.423  10.263  15.210 -0.2456  0.0853 -0.1102
 7443W        W24967   1.978  10.233   3.393  0.0542 -0.0374  0.0044
 7444W        W24968  15.850   7.210  12.957  0.2541 -0.1066  0.2023
 7445W        W24969  14.705   0.461   5.415  0.0359  0.2910 -0.2212
 7446W        W24970   6.509  10.273   0.185  0.1000  0.1345  0.1375
 7447W        W24971   2.462   9.438   3.855  0.3293 -0.0561 -0.1255
 7448W        W24972   0.106  11.873   1.717  0.2366 -0.2358  0.0299
 7449W        W24973   6.321  16.343   3.662 -0.0337  0.3448  0.2625
 7450W        W24974   2.662  13.578  12.178 -0.1492 -0.3693  0.0674
 7451W        W24975  11.454   9.733  15.452  0.1946  0.3329 -0.3369
 7452W        W24976  10.129   3.204   5.268  0.0610  0.1152 -0.0442
 7453W        W24977  10.962   0.026   0.165  0.0464  0.0720  0.1075
 7454W        W24978  11.566  14.741  15.909 -0.2394 -0.0966  0.0836
 7455W        W24979   1.041  15.314  16.610 -0.0140 -0.2539 -0.2513
 7456W        W24980  10.359   4.851   0.062 -0.1999 -0.2714 -0.1037
 7457W        W24981   8.249   9.641  13.688 -0.3365 -0.0179  0.1133
 7458W        W24982   1.693   3.894  14.055 -0.0267  0.0876 -0.0157
 7459W        W24983   6.375   3.386   1.690  0.3000  0.2335 -0.1628
 7460W        W24984   2.544   3.490   1.861  0.0483  0.2526  0.4126
 7461W        W24985   7.425   0.742  14.476  0.0208  0.2175 -0.0680
 7462W        W24986   6.942  13.781   5.183  0.0368  0.1836 -0.1892
 7463W        W24987   5.063   6.499   1.513  0.1149 -0.3065  0.0080
 7464W        W24988   0.643   0.555  11.941  0.0785 -0.3584  0.1447
 7465W        W24989   0.827   1.028  14.116  0.1010  0.1455 -0.0790
 7466W        W24990   9.721  11.927   0.181  0.0399  0.0103  0.0721
 7467W        W24991   7.419  11.684  14.838 -0.2043 -0.1321 -0.0765
 7468W        W24992   0.620   5.132  16.231  0.3384 -0.0457  0.0310
 7469W        W24993  17.133   5.042   0.749 -0.1489  0.1128 -0.1137
 7470W        W24994   7.640   3.009  14.641  0.3519  0.0601 -0.2352
 7471W        W24995   2.415  16.982   0.788 -0.1610 -0.1970  0.0939
 7472W        W24996   3.376   6.628  13.571 -0.1372  0.1833  0.0047
 7473W        W24997   7.780  11.300   5.762 -0.2231 -0.4382 -0.1660
 7474W        W24998   8.554   7.191   3.164 -0.2954 -0.2081 -0.1111
 7475W        W24999  14.856   0.771   4.079 -0.0583 -0.0220  0.0725
 7476W        W25000   0.820   3.886   3.611  0.1892  0.2190  0.4194
 7477W        W25001  12.621   1.005   4.999 -0.1276 -0.1743 -0.0090
 7478W        W25002   3.743  16.546  12.549 -0.4002  0.2640  0.1642
 7479W        W25003  15.859   2.994   4.778 -0.5381  0.2893  0.1619
 7480W        W25004   9.975   4.349   4.023 -0.0890 -0.0652  0.0063
 7481W        W25005  16.205   4.834   2.636  0.0272 -0.0153 -0.1721
 7482W        W25006  17.030   6.343   0.545 -0.0614 -0.0535 -0.0545
 7483W        W25007  10.896  13.755  13.210 -0.1969  0.0258 -0.2007
 7484W        W25008   6.174   5.728  16.498 -0.3504  0.0321  0.2279
 7485W        W25009   9.204  14.434  13.058 -0.2467 -0.2230  0.0400
 7486W        W25010  16.202   6.304  16.854 -0.0510 -0.1011 -0.0944
 7487W        W25011  14.986  15.064   3.188 -0.3664 -0.1257 -0.4472
 7488W        W25012   6.741  15.483   1.968 -0.0618  0.2827  0.0884
 7489W        W25013  14.286   3.984  14.610 -0.2862  0.1993 -0.0042
 7490W        W25014  14.162  15.475  13.600  0.0160  0.0008  0.0521
 7491W        W25015   4.638  14.353   3.299  0.2814  0.2864 -0.2012
 7492W        W25016  16.334   4.465  13.211 -0.2507 -0.0205  0.1094
 7493W        W25017  10.402  13.654   0.044 -0.1835  0.0179  0.1146
 7494W        W25018   2.295   0.169   5.137  0.1889 -0.2349  0.1319
 7495W        W25019  15.537   5.929   3.116 -0.1731 -0.1125 -0.0253
 7496W        W25020  14.209   6.280  17.591  0.1401 -0.1283  0.0451
 7497W        W25021   8.092   2.133  13.819  0.1581 -0.0197 -0.0133
 7498W        W25022   1.300   5.196  17.273 -0.0526  0.2183 -0.1103
 7499W        W25023   9.745  12.705  13.971 -0.0898 -0.0494  0.0742
 7500W        W25024  12.797  13.115   1.899 -0.0717  0.0222 -0.2823
 7501W        W25025   5.895  15.685   5.056 -0.0458 -0.2132  0.0436
 7502W        W25026   7.662   3.876   2.813  0.1688 -0.0257  0.0688
 7503W        W25027   2.883   5.858  13.973  0.3478 -0.0899  0.2902
 7504W        W25028   5.583  13.046   0.848  0.1008 -0.1800  0.1899
 7505W        W25029  14.752   2.791   1.550  0.0095  0.0213 -0.0334
 7506W        W25030  11.597   1.309  13.417  0.0683  0.1045  0.1643
 7507W        W25031  16.331  12.428  17.580  0.4890 -0.1502  0.3050
 7508W        W25032   0.092   5.100   3.336  0.0319 -0.1924 -0.0745
 7509W        W25033  16.618  15.058  15.055 -0.0928  0.0842  0.1872
 7510W        W25034   3.069   3.499  14.269  0.1918 -0.2188 -0.0820
 7511W        W25035  12.311  10.498  16.855  0.1061 -0.0537 -0.1097
 7512W        W25036   3.162   8.606  12.564 -0.1509  0.0778  0.0676
 7513W        W25037  15.822  16.175  12.111  0.1510  0.1649 -0.4039
 7514W        W25038   9.930   5.281  14.990  0.5740 -0.0882 -0.1420
 7515W        W25039  14.825  12.100   3.459  0.0926  0.1953 -0.0385
 7516W        W25040   6.079   0.175   6.542 -0.1530  0.0347  0.3703
 7517W        W25041  14.673   5.712   4.542  0.2679 -0.2287  0.0014
 7518W        W25042   4.194  10.676  16.804  0.0726  0.1305  0.0908
 7519W        W25043   0.950  12.755  15.031 -0.0144  0.2642 -0.3632
 7520W        W25044   4.998  15.899   1.770 -0.1934  0.0367  0.0949
 7521W        W25045   3.923  15.987  16.162  0.3291  0.0222 -0.2716
 7522W        W25046   5.864   3.185   1.452 -0.1323 -0.1077  0.0032
 7523W        W25047   8.477   4.783   4.703 -0.5011  0.0708  0.0404
 7524W        W25048  15.323   5.404   4.621  0.0567 -0.2355 -0.1082
 7525W        W25049  16.569  11.620  12.850  0.0790 -0.2060  0.2243
 7526W        W25050   9.460  14.058   2.860  0.3797  0.0237 -0.1952
 7527W        W25051  14.311   0.858  13.183  0.2165  0.0493  0.0533
 7528W        W25052   3.672   4.976  15.588  0.2246 -0.4107  0.0902
 7529W        W25053   7.319  14.549   3.607 -0.1213 -0.0066  0.0186
 7530W        W25054   4.013  12.086  17.350  0.0259 -0.1862 -0.1442
 7531W        W25055   6.965  13.332   4.794  0.1471  0.0230  0.1974
 7532W        W25056   5.252   8.984  16.144 -0.2658  0.1860  0.2832
 7533W        W25057   5.138  12.356  15.138 -0.0153  0.1156 -0.4579
 7534W        W25058   2.278   3.434  14.731 -0.0589 -0.3167  0.3658
 7535W        W25059   6.600  11.675   1.575  0.1152  0.1341 -0.3816
 7536W        W25060   5.321   2.935  14.218  0.3282  0.4161  0.0543
 7537W        W25061   0.959  16.715   1.811 -0.1518  0.3316  0.1024
 7538W        W25062  11.627   2.815  14.607  0.0297  0.1216 -0.0193
 7539W        W25063  12.125   9.859   1.682 -0.0666 -0.3667 -0.0734
 7540W        W25064  15.181  16.129  16.660 -0.2385  0.3383  0.2844
 7541W        W25065  14.844  17.126   2.389  0.1557  0.1202 -0.2953
 7542W        W25066  12.175  15.344   3.954  0.0314  0.4351  0.3035
 7543W        W25067  13.843   2.989   2.642 -0.2760  0.1231 -0.0748
 7544W        W25068   6.302  11.157   1.585 -0.0088  0.1798  0.0818
 7545W        W25069   8.879  14.209  12.665 -0.0970  0.0969 -0.1191
 7546W        W25070   0.198   3.260   3.552  0.1532 -0.0027 -0.2319
 7547W        W25071  12.705   8.328   5.069 -0.0060 -0.1097 -0.0800
 7548W        W25072  16.363  10.058   4.360  0.2136 -0.0288 -0.0684
 7549W        W25073  10.293   0.698   2.772 -0.0089 -0.0451 -0.2009
 7550W        W25074   2.078   5.540  17.171  0.1887  0.0884 -0.1822
 7551W        W25075  11.861   1.122   2.066  0.0914  0.0193  0.2614
 7552W        W25076   5.171   3.276  13.836  0.1554  0.1417  0.1740
 7553W        W25077   2.380   9.917  15.988 -0.1188 -0.1280 -0.0638
 7554W        W25078  10.425   4.393  15.918  0.0780  0.0641 -0.2617
 7555W        W25079  11.239   4.916  17.560 -0.3222  0.5565 -0.1695
 7556W        W25080  10.806   5.764  13.644  0.3968 -0.0647  0.0620
 7557W        W25081  14.683   9.859   3.638  0.0194 -0.3888 -0.4230
 7558W        W25082  11.877   5.203   1.985 -0.0349 -0.0619 -0.2666
 7559W        W25083   7.279  11.145   1.614  0.0869 -0.0554  0.0971
 7560W        W25084  15.867  10.212   1.098  0.2036  0.1068  0.1221
 7561W        W25085   4.964   7.549  15.451 -0.1234 -0.3552 -0.0646
 7562W        W25086   7.299  13.876  14.992 -0.0301  0.2063 -0.0348
 7563W        W25087  16.630  17.001  12.381  0.2353 -0.0507  0.4952
 7564W        W25088   1.728   9.930  14.778 -0.2316 -0.0511 -0.1046
 7565W        W25089   4.385  10.377  16.364  0.3999 -0.0824 -0.1283
 7566W        W25090  17.099   8.537  13.862  0.0794  0.2002 -0.2844
 7567W        W25091  16.182   7.061   2.156  0.0263 -0.0425 -0.1138
 7568W        W25092  10.304   1.526   2.879 -0.3962 -0.1531  0.1589
 7569W        W25093  11.389  11.709  16.468 -0.0790  0.0566  0.0920
 7570W        W25094   3.545  16.394  15.478 -0.0530 -0.0309 -0.2498
 7571W        W25095  11.045   5.292  13.091 -0.0453  0.0782  0.0739
 7572W        W25096   0.993   1.908  11.044 -0.1380 -0.0901  0.2241
 7573W        W25097  13.013  10.157  15.061 -0.1005  0.1299  0.0813
 7574W        W25098  17.044  13.222  15.190 -0.0391  0.1034  0.1338
 7575W        W25099  15.642   6.970  14.755 -0.0913  0.2559  0.0970
 7576W        W25100  15.604  15.069  13.483 -0.0982  0.0540  0.1729
 7577W        W25101   9.645   3.062  17.020  0.0467 -0.1397  0.0225
 7578W        W25102  11.658   6.676   4.431 -0.0154 -0.0110  0.3438
 7579W        W25103  10.575  11.597   0.522 -0.1160 -0.0648  0.1593
 7580W        W25104   9.500  11.554  17.145 -0.0555 -0.3245  0.1093
 7581W        W25105   7.118   7.887   1.419  0.0266 -0.0860  0.0208
 7582W        W25106   8.788  11.814   0.415 -0.2228 -0.1427 -0.1153
 7583W        W25107   2.781   2.900   2.814 -0.2499 -0.0823 -0.0651
 7584W        W25108  13.988   3.212  12.402 -0.0582 -0.0286 -0.0468
 7585W        W25109   1.456  14.192   4.320 -0.0803  0.0347  0.1042
 7586W        W25110  11.025   7.948   5.412  0.1076  0.1367  0.2246
 7587W        W25111   8.726  13.563  14.023  0.1246 -0.2589  0.3009
 7588W        W25112   7.352   2.737   5.521  0.1666 -0.0436 -0.0239
 7589W        W25113  13.933   4.570  15.693  0.1616  0.1017  0.1681
 7590W        W25114   4.414   7.059  12.830 -0.1375  0.2567  0.1344
 7591W        W25115  15.293   9.391  16.934  0.0385  0.1786 -0.3218
 7592W        W25116   9.942  10.150  14.085  0.0063  0.0540 -0.2531
 7593W        W25117   8.086   6.615   1.160  0.1507  0.0629  0.0115
 7594W        W25118  13.679  13.496  17.258 -0.0716  0.2257 -0.2145
 7595W        W25119   7.667   8.854   1.913  0.0975  0.2265  0.1429
 7596W        W25120   5.401  11.362  16.323  0.0249 -0.3558  0.0113
 7597W        W25121  11.857  13.585   4.225  0.2270 -0.3435  0.1640
 7598W        W25122   8.833   0.154   4.292 -0.0938  0.0191 -0.1167
 7599W        W25123   1.471  15.865   3.479 -0.3844  0.1619  0.2210
 7600W        W25124   8.118  16.106  13.172 -0.0388 -0.2611  0.0986
 7601W        W25125   4.723  13.771  15.338  0.0961  0.0416  0.0281
 7602W        W25126   5.383  15.404   2.521 -0.0906 -0.2813  0.0678
 7603W        W25127  10.424   3.315   1.415 -0.1071 -0.2307 -0.1730
 7604W        W25128   2.869   3.005   4.169  0.0103  0.3668 -0.1124
 7605W        W25129   0.958   2.794   0.310  0.0083 -0.1420 -0.1804
 7606W        W25130  12.388  10.528  16.020 -0.1618  0.0619  0.1736
 7607W        W25131   2.153   4.257  17.385 -0.0224 -0.2441 -0.1194
 7608W        W25132   3.574  16.653  11.676 -0.1272  0.2206 -0.1540
 7609W        W25133   7.783  14.224  15.090  0.1407 -0.3375 -0.0916
 7610W        W25134   2.605   3.058  16.319  0.1521  0.0355  0.0771
 7611W        W25135   6.569  17.187   2.982  0.1864  0.3587  0.1398
 7612W        W25136   7.543  16.987   0.997 -0.1842  0.0249  0.0084
 7613W        W25137   8.004   2.079   0.950 -0.2516  0.2145  0.3018
 7614W        W25138   0.087   7.577   4.844  0.3386  0.1188 -0.0360
 7615W        W25139  10.418  10.830  11.073 -0.4158 -0.1048  0.0298
 7616W        W25140  11.606   0.043  14.483  0.4069  0.1724  0.0494
 7617W        W25141  12.422   6.924  17.390  0.0047  0.5911  0.3651
 7618W        W25142  17.039  11.069  13.528  0.2777 -0.0352 -0.1588
 7619W        W25143   5.839   0.321  13.603 -0.1651 -0.1197  0.4337
 7620W        W25144   6.845  13.073   0.208 -0.2156 -0.1738  0.3354
 7621W        W25145  15.720   3.195  16.984 -0.2532  0.0250  0.0882
 7622W        W25146   8.438   0.059  15.104  0.1593 -0.1110  0.1750
 7623W        W25147   1.643   5.211  15.349  0.1388  0.2600 -0.0101
 7624W        W25148   4.767  14.849   0.199  0.2580 -0.0113  0.0766
 7625W        W25149   9.910   5.116   0.281  0.0840 -0.1684 -0.0404
 7626W        W25150  11.074   0.850   0.652  0.0459  0.3637 -0.0322
 7627W        W25151  12.575   1.966  16.193  0.1301  0.2064 -0.0088
 7628W        W25152  13.439   8.732   1.161 -0.2036 -0.1674  0.0810
 7629W        W25153  16.887   4.611  17.625  0.2632 -0.0159 -0.5228
 7630W        W25154  17.218   4.579  13.590 -0.1219 -0.0302 -0.0192
 7631W        W25155  17.038   0.671   5.120 -0.0798  0.1368  0.2187
 7632W        W25156  14.119  10.270  13.397 -0.1543  0.1073 -0.0755
 7633W        W25157  11.095   0.509  17.026  0.0278  0.0724 -0.0587
 7634W        W25158  12.328  11.915  14.796 -0.0900  0.1634 -0.4203
 7635W        W25159   2.990  11.204  15.632 -0.4954  0.2807 -0.0338
 7636W        W25160  12.102  15.983  13.734  0.0081 -0.3974 -0.0385
 7637W        W25161  10.086  14.841   4.740  0.2673 -0.1242  0.4314
 7638W        W25162  16.490   1.375   3.846 -0.1949  0.1146 -0.1409
 7639W        W25163  16.766   5.213  15.552 -0.0271 -0.0459 -0.1629
 7640W        W25164  15.572   3.004  14.234 -0.0556 -0.2670 -0.3263
 7641W        W25165   4.649  10.932  16.755  0.0591  0.0203  0.2512
 7642W        W25166  13.609   4.914  17.006  0.0614  0.1311 -0.1699
 7643W        W25167   6.694   4.899   4.816 -0.0427 -0.1052 -0.3515
 7644W        W25168  15.081  14.088  14.989 -0.3524  0.2885 -0.1270
 7645W        W25169   9.098   7.685  12.345  0.2883 -0.5580  0.0637
 7646W        W25170  13.805  14.294   4.453  0.1911 -0.3022 -0.3143
 7647W        W25171   9.226  12.932   1.818  0.0645 -0.0161  0.0203
 7648W        W25172   2.262   1.488   2.752 -0.1553 -0.0302 -0.3990
 7649W        W25173  10.957   1.865  16.429  0.0824 -0.1052  0.2257
 7650W        W25174  14.034  11.835   4.061 -0.1423 -0.4657  0.1596
 7651W        W25175  13.980   1.844   3.895  0.1667  0.1299  0.0437
 7652W        W25176  16.432   1.389   1.908  0.2539  0.0116  0.1734
 7653W        W25177   5.504   0.206   1.364 -0.3583 -0.3283  0.1068
 7654W        W25178  12.981  14.944  13.955 -0.0904 -0.3013  0.1207
 7655W        W25179  16.510   8.061  15.542  0.0797  0.0382 -0.1758
 7656W        W25180  10.683   3.176   5.221 -0.3468  0.2932 -0.4032
 7657W        W25181   6.164   0.622   3.940  0.3644  0.0088  0.2747
 7658W        W25182  14.375   6.350  12.992 -0.2640 -0.0741 -0.1068
 7659W        W25183  12.104  15.514  13.888  0.2796 -0.1403 -0.0202
 7660W        W25184   2.374  10.621  12.516  0.0651 -0.2273  0.0549
 7661W        W25185   4.866  10.486   3.626 -0.4990 -0.0028 -0.0725
 7662W        W25186   4.384  13.956   3.912 -0.0439 -0.1226  0.0362
 7663W        W25187  10.222   3.896  12.562  0.2121  0.0906  0.0051
 7664W        W25188   0.334   5.572   5.050 -0.2509  0.1435  0.2058
 7665W        W25189   0.630  16.646  14.682 -0.0643 -0.0232 -0.3376
 7666W        W25190   8.135  14.101   2.897 -0.3339 -0.0050  0.1621
 7667W        W25191  12.027  11.043   2.114 -0.3048  0.1030  0.1498
 7668W        W25192   6.115   0.949   5.768 -0.0940  0.0651 -0.4563
 7669W        W25193   7.093   0.579   0.846  0.0469 -0.3340 -0.1946
 7670W        W25194  13.671  12.171  16.949 -0.0628 -0.1111 -0.0597
 7671W        W25195   1.768   7.077   5.182  0.3762  0.0231 -0.0822
 7672W        W25196   3.670   7.983  12.324  0.0446  0.2014 -0.1828
 7673W        W25197  14.832   2.993  11.657 -0.1344 -0.1817  0.0488
 7674W        W25198   6.667  15.331  12.389 -0.2382 -0.1233  0.0248
 7675W        W25199   2.247   4.376   4.654  0.0722  0.3173  0.0774
 7676W        W25200   1.577   5.369   3.735  0.3280  0.3363  0.3043
 7677W        W25201  12.406   0.138  14.995 -0.1918 -0.1047  0.0738
 7678W        W25202   3.633   8.925  13.205 -0.1743 -0.2398  0.2682
 7679W        W25203  16.370   3.393   4.434 -0.0074 -0.1238  0.2180
 7680W        W25204   6.574   2.916  12.786  0.0435  0.1201 -0.0739
 7681W        W25205  12.978  10.786  14.539  0.0610 -0.0886 -0.0901
 7682W        W25206  12.731  16.511  13.159  0.3926 -0.0469  0.1926
 7683W        W25207  14.082  15.628  15.661 -0.2227  0.2266 -0.1481
 7684W        W25208  16.894   1.793  17.224  0.3241  0.1741 -0.0286
 7685W        W25209   6.875   9.572   0.071  0.0031  0.1209  0.0469
 7686W        W25210  12.018   7.928   2.226 -0.1884  0.0794 -0.3616
 7687W        W25211   0.684  11.266  13.089 -0.0241  0.1041 -0.0861
 7688W        W25212  16.621   4.137  13.518 -0.1111 -0.3850 -0.2180
 7689W        W25213  17.219  15.562   0.995  0.4627 -0.1749 -0.1114
 7690W        W25214   0.947   1.532   5.970  0.1941 -0.2333  0.1829
 7691W        W25215  10.477   6.474  12.133  0.5416 -0.3270 -0.1524
 7692W        W25216  16.095  15.588   1.769  0.0451 -0.1480 -0.2590
 7693W        W25217   2.902   9.518  15.292 -0.0974  0.1300 -0.3346
 7694W        W25218  10.794  10.890   2.275 -0.1895  0.0789  0.1518
 7695W        W25219  17.073  12.021   4.014  0.2103 -0.1433 -0.0096
 7696W        W25220  11.910   4.746   4.763 -0.3275 -0.0302 -0.2024
 7697W        W25221   6.799  13.573  12.893  0.2600  0.0581 -0.2040
 7698W        W25222   0.459  14.022   4.270  0.3298 -0.1090  0.2056
 7699W        W25223   1.375   8.095  14.370  0.2645 -0.2914  0.1164
 7700W        W25224  14.504   5.346  17.146 -0.2081  0.0565 -0.2608
 7701W        W25225  14.001  13.024  13.517 -0.1396  0.0406  0.2161
 7702W        W25226  16.549   5.828  14.491 -0.0392  0.1395 -0.2269
 7703W        W25227   3.438  15.150   4.293  0.0333  0.0033 -0.2958
 7704W        W25228   4.588  11.429   1.001 -0.0970 -0.2099 -0.0226
 7705W        W25229   7.346  16.575   1.184  0.0263 -0.3935 -0.1853
 7706W        W25230   4.148   5.999   2.286  0.2816  0.0415  0.0199
 7707W        W25231  13.516  10.190   3.343  0.0446  0.0031  0.1648
 7708W        W25232  11.359   2.097   1.862 -0.0492 -0.1122 -0.1765
 7709W        W25233  12.922   0.116   5.759  0.0602 -0.1336 -0.1373
 7710W        W25234   6.159  14.301  13.568  0.0142  0.0574 -0.3717
 7711W        W25235  12.174  13.486   2.772 -0.2682  0.0822 -0.1975
 7712W        W25236   3.558   6.171   4.064  0.1245 -0.0520 -0.1438
 7713W        W25237   3.563  14.736   4.602 -0.0276 -0.1878  0.4013
 7714W        W25238  15.106   8.581  15.278  0.1461  0.1354  0.3137
 7715W        W25239   6.737   6.697  14.604 -0.1492 -0.1331  0.0940
 7716W        W25240  12.724  14.116  15.011  0.0199 -0.1332 -0.0787
 7717W        W25241   3.755   5.995  14.376  0.2372  0.1787 -0.0947
 7718W        W25242  10.814  13.082  15.154  0.1022  0.0699  0.2734
 7719W        W25243   4.716   0.535   2.300  0.0511 -0.2261 -0.0882
 7720W        W25244   5.340   4.501  16.770 -0.2234  0.0431  0.3250
 7721W        W25245   0.926  12.457  17.273  0.0678  0.1935  0.2906
 7722W        W25246   8.759   3.870  15.197  0.0298  0.0079 -0.0556
 7723W        W25247  16.603   6.931   0.946 -0.1190  0.3790 -0.2531
 7724W        W25248   3.915   4.882   1.849  0.0757 -0.0023  0.3187
 7725W        W25249   2.181  14.979  12.917 -0.0696  0.2079 -0.2894
 7726W        W25250  17.241  12.694  15.348 -0.0704 -0.3175 -0.0260
 7727W        W25251   1.754   2.586  15.347  0.2580  0.0734 -0.0190
 7728W        W25252  10.992   5.172   4.568 -0.0313 -0.3059 -0.1029
 7729W        W25253   1.376  15.624   1.069 -0.0474  0.0590 -0.2713
 7730W        W25254   6.907   0.485   5.982 -0.0795  0.1246  0.1091
 7731W        W25255   1.950  14.282   2.876  0.1938  0.0013  0.0981
 7732W        W25256   7.463  15.249   2.464  0.2333  0.0855  0.0658
 7733W        W25257  10.671   6.824   0.929 -0.0403 -0.2701 -0.0426
 7734W        W25258   9.526   6.499   3.962 -0.2302 -0.0184  0.1867
 7735W        W25259   8.738   1.617   0.428  0.2308  0.0365  0.1096
 7736W        W25260  11.009   3.287  16.580 -0.1496  0.0657  0.0171
 7737W        W25261   9.445   2.119   5.171 -0.3939  0.0243  0.2162
 7738W        W25262  13.656   6.618  13.610  0.0284  0.2272 -0.2492
 7739W        W25263   5.511   6.588   4.613  0.1100  0.0945 -0.2003
 7740W        W25264  14.054  16.706   4.167  0.0302 -0.1932  0.0954
 7741W        W25265  13.634  15.629  13.821  0.0994  0.1396 -0.0854
 7742W        W25266   4.513  14.985  14.479  0.0190 -0.0214  0.2442
 7743W        W25267   0.418   8.280  15.964  0.2323 -0.0007  0.2638
 7744W        W25268   3.163  11.166   3.914 -0.0291  0.3192  0.1114
 7745W        W25269  15.420  16.591  17.033 -0.0470 -0.2303  0.1452
 7746W        W25270   4.041  15.174   5.390  0.0260 -0.1387 -0.1368
 7747W        W25271   4.088  15.955   1.790  0.2817  0.0837 -0.0619
 7748W        W25272   3.600  12.584  13.230  0.2565 -0.4077 -0.2038
 7749W        W25273   2.983   6.930  12.108  0.0994  0.0064  0.4752
 7750W        W25274   3.553   4.684  14.935 -0.0687 -0.1987  0.4505
 7751W        W25275   0.494   7.910   5.153 -0.0400 -0.0179 -0.0195
 7752W        W25276  12.269   6.333   5.638 -0.0640 -0.0417 -0.5082
 7753W        W25277   1.065  16.102  14.051 -0.3042  0.2877 -0.0519
 7754W        W25278   4.437   9.327  15.441  0.1409  0.4100 -0.3128
 7755W        W25279  13.508   3.891  16.892  0.1264  0.1048  0.2390
 7756W        W25280  16.716  12.798   5.008  0.0267  0.4631  0.3257
 7757W        W25281   0.138   3.806  13.979  0.0693  0.1635  0.0122
 7758W        W25282   2.318  12.731   2.821  0.0555 -0.0852  0.0041
 7759W        W25283   9.476   9.996  14.304 -0.3695  0.0873 -0.0515
 7760W        W25284  16.105  10.023   3.112  0.5464 -0.4937  0.2472
 7761W        W25285   5.490  15.731   5.416 -0.1722  0.0973  0.1019
 7762W        W25286  11.020   5.418   1.884 -0.0399 -0.2144 -0.2051
 7763W        W25287  16.577   4.586   3.707  0.1250  0.3222  0.1798
 7764W        W25288   2.034  15.595  15.746 -0.1280 -0.0543  0.1739
 7765W        W25289   0.758  14.997   5.446 -0.2078  0.3035  0.3322
 7766W        W25290   4.696  14.191  15.678 -0.2403 -0.0767 -0.1310
 7767W        W25291   6.758   7.247  15.429  0.1395  0.0904 -0.2801
 7768W        W25292   1.291   4.401   2.477  0.0808 -0.2029  0.1760
 7769W        W25293   5.246   0.150  11.898 -0.1072 -0.1776  0.0138
 7770W        W25294   1.898  12.067   4.884 -0.2072 -0.0049  0.3747
 7771W        W25295  11.040   9.441  16.961 -0.0551  0.6351 -0.0534
 7772W        W25296   8.118   6.937   3.291  0.0005 -0.1948 -0.0393
 7773W        W25297  10.705  11.611  13.032  0.0481 -0.3120  0.0779
 7774W        W25298   3.282   9.491   6.581 -0.3438 -0.0076  0.2964
 7775W        W25299   9.857  16.455   5.502 -0.1974 -0.1478 -0.1991
 7776W        W25300  14.559  15.275  15.826 -0.1161 -0.2362  0.0224
 7777W        W25301   8.436  14.921  12.486 -0.3170  0.2114 -0.1419
 7778W        W25302   6.253  10.961   0.535 -0.2755  0.1409 -0.0559
 7779W        W25303  15.917   8.019  13.521 -0.3982 -0.0508  0.0522
 7780W        W25304  12.454   8.797  13.046 -0.3231 -0.1530 -0.1305
 7781W        W25305   9.975   4.891  13.492 -0.2387 -0.1031  0.1490
 7782W        W25306   8.755  16.172   4.166 -0.0472 -0.1133  0.2473
 7783W        W25307  12.650   1.159  14.063 -0.0209 -0.3131 -0.2847
 7784W        W25308   2.697  16.558   3.470 -0.4032  0.2191  0.2471
 7785W        W25309  10.241   4.442   4.885  0.1027 -0.0847 -0.3179
 7786W        W25310  14.525   5.691  11.232  0.0998  0.1120 -0.0545
 7787W        W25311  11.654  13.425   3.361 -0.0407  0.0915 -0.0543
 7788W        W25312   3.765   7.076   1.842 -0.4690 -0.1937  0.3386
 7789W        W25313  16.214  12.039   1.281  0.1165  0.4586 -0.0443
 7790W        W25314   8.711   9.457  16.227  0.0208 -0.0562  0.1533
 7791W        W25315   1.925   4.048   3.337  0.1347  0.1506 -0.2688
 7792W        W25316  10.125  16.525  16.470  0.1299 -0.0704  0.0439
 7793W        W25317  15.418  11.530   1.401  0.0098  0.1589 -0.0084
 7794W        W25318   4.782   1.911   4.764  0.1626  0.0342 -0.0902
 7795W        W25319   6.338   2.044  12.803  0.1284 -0.1559 -0.2039
 7796W        W25320   0.159   1.840   3.735 -0.2592  0.3435  0.2102
 7797W        W25321  11.253  16.220  14.618  0.0747 -0.1488  0.2095
 7798W        W25322  10.056  11.913   4.933 -0.0653 -0.1258  0.0036
 7799W        W25323   4.642  12.087  15.383  0.1132 -0.0262  0.0632
 7800W        W25324  16.731  12.900  12.455  0.0407  0.1785  0.0792
 7801W        W25325   5.505   7.474   3.467 -0.0164  0.1787 -0.0256
 7802W        W25326   8.298  12.882   0.705  0.2961 -0.4535 -0.0667
 7803W        W25327   5.862   9.762   3.393  0.4773  0.1378  0.1423
 7804W        W25328   4.152   9.815  14.810 -0.2719  0.1583  0.1092
 7805W        W25329  13.679  11.592   3.752  0.1022  0.1122  0.2450
 7806W        W25330   2.414   7.079   5.949 -0.2861 -0.3478  0.1102
 7807W        W25331  13.980   0.796   2.905 -0.0395  0.1012  0.1177
 7808W        W25332   2.613  17.022   2.431  0.2292 -0.2918 -0.1987
 7809W        W25333   9.884   4.332   5.759 -0.3880 -0.3455  0.1568
 7810W        W25334  11.769  11.553  17.313  0.0274  0.1373 -0.2412
 7811W        W25335  15.115   8.621   3.970  0.2252 -0.0588  0.1406
 7812W        W25336   1.759   6.595   0.883  0.0586  0.2724 -0.2474
 7813W        W25337  16.809   7.761   4.931  0.2125 -0.1783  0.1705
 7814W        W25338  10.566   8.534   0.209  0.1535  0.0279 -0.0884
 7815W        W25339  16.275   3.247   1.177  0.1408  0.1466  0.2477
 7816W        W25340   2.413   3.807  11.999 -0.0219 -0.2876 -0.2570
 7817W        W25341  10.877  11.117  14.437 -0.1006  0.2068  0.2423
 7818W        W25342  11.640   5.887   4.898 -0.2385 -0.0222  0.0224
 7819W        W25343  13.269   6.039  13.489  0.1568 -0.2785 -0.1061
 7820W        W25344   5.794  12.287  13.409 -0.2621  0.0489 -0.0186
 7821W        W25345  10.983   3.596   0.350 -0.0757  0.1318  0.1485
 7822W        W25346  10.573   2.244   3.558 -0.0903  0.0508 -0.0743
 7823W        W25347   6.811  11.222   1.759 -0.3050  0.3265  0.2442
 7824W        W25348   0.235  12.325   4.220 -0.0006 -0.0508  0.2427
 7825W        W25349  11.052   2.574  15.831 -0.3521 -0.3971 -0.2208
 7826W        W25350  10.531  16.981  15.342 -0.0262 -0.1420 -0.1305
 7827W        W25351  13.259   2.706  16.195 -0.1778  0.1352  0.0358
 7828W        W25352  11.251   6.996   3.189  0.0966  0.0126 -0.4045
 7829W        W25353  13.627   3.569   1.990  0.0909  0.0509 -0.2979
 7830W        W25354   7.930   6.134  16.883 -0.0603  0.0846 -0.0564
 7831W        W25355  17.127   6.537   3.231 -0.1094 -0.3010  0.1707
 7832W        W25356   2.693  11.539  12.806  0.1571 -0.0070  0.3322
 7833W        W25357  12.764   5.387   4.870  0.1329  0.1450 -0.0944
 7834W        W25358  14.293  14.665  13.418 -0.3030 -0.0677  0.0588
 7835W        W25359   9.835  11.259  15.863  0.0761  0.2982  0.1469
 7836W        W25360   1.297  17.002  14.781  0.1269 -0.2020  0.0373
 7837W        W25361   8.293   2.668  17.026  0.2503 -0.2249  0.2562
 7838W        W25362   9.493   0.183   2.808 -0.1685  0.3004 -0.0463
 7839W        W25363   5.801  10.602  13.575  0.1063 -0.2643 -0.3727
 7840W        W25364   2.782   3.406   3.002 -0.0470  0.3211 -0.0961
 7841W        W25365  15.627   5.812   4.799 -0.0443  0.0929  0.1994
 7842W        W25366  16.818  14.150  14.823  0.1404 -0.1177 -0.1291
 7843W        W25367  10.055  12.170  15.607  0.1725  0.0617 -0.1512
 7844W        W25368  16.230  12.768   4.608 -0.4430  0.0913  0.1420
 7845W        W25369  16.128  16.478   1.946 -0.0438 -0.1130 -0.1730
 7846W        W25370  14.492  15.761   0.586 -0.1030 -0.2949  0.0046
 7847W        W25371  12.305   7.388   3.073  0.3398  0.0036 -0.0577
 7848W        W25372   2.799  12.001   4.401  0.0854 -0.1492 -0.0639
 7849W        W25373   0.667   7.007  11.044  0.3099 -0.0152 -0.0987
 7850W        W25374  16.839  13.703   0.409 -0.0179 -0.0627 -0.2602
 7851W        W25375   4.839   9.422   4.405 -0.0627  0.0791  0.1059
 7852W        W25376   8.703  14.914  17.637  0.0545  0.3640  0.0170
 7853W        W25377  13.898  14.447  14.735  0.1988  0.3194  0.2559
 7854W        W25378  14.796   7.703   4.186  0.0873  0.2789  0.1986
 7855W        W25379   0.501   6.717   5.333 -0.0941  0.4878 -0.1940
 7856W        W25380  14.739   4.936  15.447 -0.2310  0.0594  0.0240
 7857W        W25381  16.904   8.545   3.165 -0.0177  0.1802 -0.1002
 7858W        W25382  11.392  11.276   1.098 -0.0623  0.4405  0.2972
 7859W        W25383   9.459   1.950  16.957 -0.1624  0.0886  0.0870
 7860W        W25384  14.058   4.613  12.821 -0.0024  0.1342  0.1714
 7861W        W25385   6.886   9.609   3.188  0.3115 -0.0035  0.0341
 7862W        W25386   5.244   2.213   1.035  0.3669 -0.1350  0.2070
 7863W        W25387   8.538   1.105   1.401  0.0441  0.2397  0.0898
 7864W        W25388  17.186  12.833   5.248  0.0631 -0.0302  0.2641
 7865W        W25389  14.284   4.137   3.519  0.0538  0.1579  0.3319
 7866W        W25390  12.140   1.279  13.422 -0.0276  0.0583 -0.0057
 7867W        W25391   1.704  15.650  16.471 -0.0936 -0.2726 -0.0272
 7868W        W25392  16.886   8.603   1.263  0.0203 -0.1570 -0.0891
 7869W        W25393  11.768   3.783  13.545  0.0406  0.0912  0.3728
 7870W        W25394  13.842   0.362   1.197 -0.0620  0.0080  0.4283
 7871W        W25395   8.495  15.453  13.489 -0.1743 -0.0149 -0.2806
 7872W        W25396   2.839   1.706   1.751 -0.1554  0.1786  0.1064
 7873W        W25397  10.316  16.972   0.865 -0.0515  0.3218 -0.1408
 7874W        W25398   4.871  13.746   4.912 -0.0774  0.0183  0.0725
 7875W        W25399  15.198   0.900  13.105  0.0819  0.0502 -0.0001
 7876W        W25400  11.869  15.626  12.687  0.1439 -0.2191  0.3029
 7877W        W25401   0.882   1.696   2.984  0.1890 -0.0018 -0.4602
 7878W        W25402  12.939   7.869   1.977 -0.0145 -0.1159  0.2081
 7879W        W25403   2.116  14.639   2.201  0.0424  0.2153  0.1338
 7880W        W25404   1.293  13.315   2.385 -0.0606 -0.1361  0.1791
 7881W        W25405   4.688   9.256  12.301 -0.1064 -0.2731  0.4910
 7882W        W25406   8.509   5.531  15.507  0.0252  0.0893 -0.2372
 7883W        W25407   3.823   2.031  12.649 -0.0836 -0.1973 -0.2064
 7884W        W25408  13.307   5.995   4.975 -0.3823 -0.0929 -0.3020
 7885W        W25409   7.485   8.455   4.155  0.0636 -0.1998  0.0009
 7886W        W25410   3.745   7.842   4.748 -0.0468 -0.1756 -0.2234
 7887W        W25411   2.497  16.244  16.867  0.1237 -0.1590  0.1697
 7888W        W25412  13.232  16.819  14.965 -0.0514 -0.0508  0.0989
 7889W        W25413   2.000   0.074  17.119 -0.0957 -0.2288  0.3497
 7890W        W25414   5.367   2.728   0.322  0.0642 -0.0719 -0.2047
 7891W        W25415  14.374   8.161  11.752  0.0133  0.0476  0.2334
 7892W        W25416   4.285   1.507  12.061 -0.0320 -0.1873  0.0936
 7893W        W25417   5.551   1.742  13.487  0.3416  0.1250  0.0588
 7894W        W25418   2.076   7.347  11.844 -0.4207  0.2622 -0.2957
 7895W        W25419   0.580  15.075   5.971  0.0108 -0.1348  0.4313
 7896W        W25420   7.074   0.224   5.478 -0.1181 -0.2093  0.0219
 7897W        W25421   3.781   5.105  14.681 -0.0727  0.0483 -0.2278
 7898W        W25422   0.124   1.689  16.325  0.2375 -0.2435 -0.0746
 7899W        W25423  17.051   9.461  11.925  0.2107 -0.1284  0.0273
 7900W        W25424  11.206  12.441  15.740 -0.0110  0.0804 -0.2218
 7901W        W25425  10.466  12.545   3.966  0.0688 -0.1406  0.0354
 7902W        W25426  16.879   8.651  14.418  0.0229  0.1483 -0.1066
 7903W        W25427   3.362   1.965  17.593 -0.1040  0.2147 -0.2047
 7904W        W25428  11.800   4.878   1.484  0.2386 -0.0023  0.0691
 7905W        W25429   1.399  16.152  11.336  0.0843  0.1385  0.2410
 7906W        W25430   1.323   9.794   1.678 -0.0774  0.0853 -0.0383
 7907W        W25431   5.357   1.906   3.207  0.1962 -0.1031 -0.0510
 7908W        W25432   4.530  14.780   3.471 -0.0521  0.3090  0.0788
 7909W        W25433   2.412  13.156  14.393  0.0810 -0.1519 -0.3335
 7910W        W25434  10.164   8.155   5.022  0.1220  0.1024  0.3468
 7911W        W25435  10.221   0.741   6.151  0.0068 -0.0726 -0.0844
 7912W        W25436   7.051  14.738  15.405 -0.0695  0.1118  0.1062
 7913W        W25437   1.658  13.495   4.688  0.0245  0.2491 -0.0562
 7914W        W25438   3.585  13.555   2.096 -0.1602  0.1597  0.1248
 7915W        W25439   2.863   3.389  16.015  0.0308 -0.3068 -0.1087
 7916W        W25440  14.735  10.045   5.250 -0.0100  0.1402 -0.0128
 7917W        W25441   3.938   3.827  15.324 -0.1220 -0.1594  0.0210
 7918W        W25442  14.077  16.706  13.890 -0.0924 -0.3122 -0.0793
 7919W        W25443   9.157   1.158   4.149  0.0264  0.0035 -0.1122
 7920W        W25444   3.398  10.521  16.104  0.2535  0.0161  0.1207
 7921W        W25445   4.829  11.876  15.923 -0.2519 -0.1104  0.0322
 7922W        W25446  13.729  11.221   4.059  0.1604  0.4330 -0.0273
 7923W        W25447   9.888   2.615   1.761  0.0234  0.0242  0.2813
 7924W        W25448  10.446   8.679   0.683 -0.0397 -0.2100  0.1718
 7925W        W25449   5.658  14.733  14.273 -0.1084 -0.0013  0.2793
 7926W        W25450  17.044  15.332  15.130 -0.1141 -0.0979 -0.0544
 7927W        W25451  10.178   3.523  13.473  0.2920 -0.1336 -0.1140
 7928W        W25452   5.498   7.152   2.171  0.1802  0.0360  0.0493
 7929W        W25453  15.792  11.074  15.982  0.0342  0.1392  0.0096
 7930W        W25454  15.184  13.575   0.269 -0.1166 -0.0443 -0.0844
 7931W        W25455   8.087   3.738   4.667 -0.4375 -0.2161 -0.1251
 7932W        W25456  13.643   5.046   5.365  0.1956 -0.1135  0.1891
 7933W        W25457   0.013   0.093   6.392 -0.0953 -0.0191  0.2476
 7934W        W25458   1.874   0.128   2.446  0.0232 -0.1901  0.1653
 7935W        W25459  10.070  10.871   5.271  0.2820  0.1058  0.1091
 7936W        W25460   5.727   0.853   1.706 -0.2149 -0.1640  0.3429
 7937W        W25461  15.338   1.494   0.012  0.0646 -0.3455  0.2399
 7938W        W25462  11.756   4.571  17.495 -0.0280  0.1405 -0.3772
 7939W        W25463   2.735  10.157   1.654 -0.2799  0.1622 -0.0967
 7940W        W25464   1.132   1.152  17.335  0.2978 -0.1081  0.1531
 7941W        W25465  17.148  15.607  17.384 -0.1133  0.0153 -0.1838
 7942W        W25466   4.320   0.502  17.081 -0.0205 -0.0510 -0.1214
 7943W        W25467   9.814  10.249  14.669  0.0746 -0.1161  0.1240
 7944W        W25468   1.509  11.415  13.339 -0.0046  0.2785  0.2851
 7945W        W25469   1.667   1.694  12.551 -0.0510 -0.1423  0.2503
 7946W        W25470  13.921  12.129  13.478  0.0003  0.2100  0.0244
 7947W        W25471   0.581   2.194   2.915 -0.2236  0.0746  0.0023
 7948W        W25472   2.719   0.479  13.366 -0.0321 -0.0124 -0.3703
 7949W        W25473  13.205   9.484   5.945 -0.1641 -0.3868  0.2491
 7950W        W25474   2.586  11.143  17.278  0.1383  0.2003 -0.0159
 7951W        W25475   0.038   6.327  17.218 -0.0817 -0.2749  0.5137
 7952W        W25476   3.381   0.762  16.143 -0.3655 -0.1363 -0.1335
 7953W        W25477   0.868   8.195   2.161 -0.2690  0.1176 -0.0585
 7954W        W25478   9.171   7.176  16.450  0.1801  0.0921 -0.3892
 7955W        W25479   0.478   1.036   1.872 -0.0581  0.0244 -0.0556
 7956W        W25480  15.001  16.370  13.350  0.2744  0.0998  0.5123
 7957W        W25481   0.539  12.611  16.962  0.2237 -0.3253  0.1587
 7958W        W25482  10.942   6.545   4.563  0.0483  0.0534  0.1265
 7959W        W25483   5.409  14.009  12.640 -0.2447 -0.1816  0.1047
 7960W        W25484   6.044  11.583  12.065  0.2672 -0.1870  0.2124
 7961W        W25485   5.401  12.034   1.133 -0.2161 -0.2013 -0.0353
 7962W        W25486   1.669  10.355  12.126 -0.0106  0.0886  0.0834
 7963W        W25487   5.266   1.488   2.799 -0.0981  0.4228 -0.0259
 7964W        W25488  13.293  15.426  16.045  0.2782  0.0375 -0.3082
 7965W        W25489  11.486  15.707  16.961  0.1725  0.0575 -0.0845
 7966W        W25490   5.050   5.377   2.241  0.1739  0.0168 -0.1908
 7967W        W25491  10.272   0.481   1.188 -0.0479  0.2224  0.2692
 7968W        W25492  17.056  16.486   2.514 -0.0459  0.1188 -0.2234
 7969W        W25493  10.487  14.161  15.608  0.0529  0.2009 -0.0120
 7970W        W25494   4.255  11.990  15.876  0.0911  0.0358 -0.2344
 7971W        W25495   8.171   1.741   2.116  0.1036  0.1143  0.1142
 7972W        W25496   2.331   6.341  16.468  0.2197  0.0796  0.1437
 7973W        W25497   1.278   5.056   2.978 -0.3975  0.0335  0.0641
 7974W        W25498  14.741  13.981   3.192  0.1430 -0.1547 -0.2937
 7975W        W25499  16.553  16.402  16.627 -0.0263  0.0460 -0.0433
 7976W        W25500   5.863   9.026  13.262  0.2304 -0.0805  0.0390
 7977W        W25501   8.854   8.985  16.050 -0.0154 -0.0741 -0.3016
 7978W        W25502   1.781   8.106   4.959  0.3353 -0.1883  0.3076
 7979W        W25503   3.425   0.654  17.136 -0.0950  0.2218 -0.0743
 7980W        W25504   9.423   9.496  16.047 -0.1767  0.0576 -0.0468
 7981W        W25505  14.759   8.609  14.355 -0.0238  0.0097 -0.2655
 7982W        W25506   4.458  10.853  13.223  0.2188  0.1124 -0.0632
 7983W        W25507  13.183  14.414   3.633  0.3367 -0.1438  0.0125
 7984W        W25508  14.450   0.375   4.033 -0.2384  0.0076  0.0403
 7985W        W25509  14.808  11.560  13.503  0.1974  0.0868  0.0821
 7986W        W25510   6.324  10.087   5.348 -0.1955  0.0275 -0.0820
 7987W        W25511   7.824   3.942  14.955  0.5010 -0.2185  0.0924
 7988W        W25512  16.590   2.746  12.337  0.0757  0.0128 -0.0773
 7989W        W25513   3.723  11.099   4.875  0.2505 -0.1344  0.1053
 7990W        W25514  12.008   7.548  13.374  0.0154 -0.1466  0.2529
 7991W        W25515  11.132   4.484   5.100  0.0845  0.1033 -0.0699
 7992W        W25516   8.261  16.062  14.524 -0.1712  0.1211 -0.1998
 7993W        W25517   2.146   1.554  14.570 -0.1502  0.0226 -0.0168
 7994W        W25518   4.365   8.294  14.081 -0.1855 -0.0322  0.0458
 7995W        W25519   7.022  12.905  14.288  0.0133 -0.3490  0.0537
 7996W        W25520  10.457   1.882   5.179 -0.1327 -0.1674 -0.2268
 7997W        W25521   3.576   1.576  14.921  0.2651  0.1032 -0.1563
 7998W        W25522   1.206   8.995   0.528  0.0721 -0.3236  0.3859
 7999W        W25523   2.206   6.919  13.114  0.1171  0.2772  0.0210
 8000W        W25524  13.283   0.274  17.118  0.0469  0.0977  0.3731
 8001W        W25525   8.001  11.005  16.420  0.0110  0.1138 -0.0749
 8002W        W25526  14.391   4.112  17.223  0.1822  0.2250 -0.0388
 8003W        W25527  11.387   5.821   4.349 -0.0098 -0.4531 -0.1994
 8004W        W25528   9.942   2.166   5.154 -0.3038  0.2198  0.1977
 8005W        W25529   4.905   7.601  13.929 -0.1422 -0.4543 -0.2321
 8006W        W25530   9.628   2.244  13.388 -0.1186 -0.1839  0.0252
 8007W        W25531   4.797   9.442   3.897  0.1573  0.0073  0.2743
 8008W        W25532  15.609  17.077  14.559  0.0398 -0.0651  0.0372
 8009W        W25533   7.206  11.725  13.227 -0.0350  0.1756  0.0331
 8010W        W25534   4.966   2.291  17.618 -0.0246  0.0173  0.2206
 8011W        W25535  11.658   9.238  16.674 -0.3500 -0.1666 -0.1622
 8012W        W25536   7.092  11.413  14.515  0.2260  0.2368  0.1967
 8013W        W25537  14.962  13.288  15.563  0.0152  0.1282  0.0083
 8014W        W25538   6.520   4.683  16.520 -0.0801 -0.3491 -0.3741
 8015W        W25539  17.072   7.727  16.375 -0.1762 -0.0743  0.1530
 8016W        W25540   8.176  12.949  13.362 -0.1995  0.0432 -0.0648
 8017W        W25541  11.567  16.248   5.054  0.0406 -0.1410 -0.1303
 8018W        W25542   9.201   5.429   5.722  0.1523  0.0325 -0.0300
 8019W        W25543   4.526   9.725   2.676  0.0396  0.2053  0.0766
 8020W        W25544   0.092   9.771   2.183 -0.0949 -0.2111 -0.0961
 8021W        W25545   7.482   7.896  14.062  0.4330  0.1740  0.2434
 8022W        W25546   3.679  14.626   0.453 -0.1979 -0.2096 -0.1263
 8023W        W25547   0.180   1.967   2.772 -0.3945 -0.4146 -0.0927
 8024W        W25548   1.226  17.146  13.448  0.0070  0.3809 -0.0553
 8025W        W25549   6.183  13.955   1.443  0.0879 -0.3589  0.0463
 8026W        W25550   8.935  13.629  14.572  0.0178 -0.1620  0.0093
 8027W        W25551   6.923  15.225   4.840  0.0259  0.1077  0.1342
 8028W        W25552  10.158   5.420  17.609 -0.0979  0.1996 -0.0157
 8029W        W25553   4.096   6.839   4.405  0.1558 -0.0762  0.1927
 8030W        W25554  14.720   6.244   5.601 -0.2186 -0.0844  0.0233
 8031W        W25555   4.076   1.852  14.636  0.1501 -0.1194  0.3825
 8032W        W25556  10.021   8.057  15.007 -0.2826  0.0612 -0.1299
 8033W        W25557  14.457   4.889   5.349  0.0465 -0.1963  0.1359
 8034W        W25558   6.270   5.917   0.227  0.0843  0.2275  0.3547
 8035W        W25559   8.928  14.068  13.240 -0.2581  0.2445  0.1423
 8036W        W25560   5.509   5.285   5.401  0.0867 -0.0678 -0.0953
 8037W        W25561  13.411  13.920   0.616 -0.1332 -0.0435  0.1088
 8038W        W25562   8.309  14.560  13.352  0.4370  0.1041  0.2076
 8039W        W25563  15.704  14.356  13.218 -0.1191 -0.0801 -0.0978
 8040W        W25564  14.312  16.534   5.064  0.0196  0.0708 -0.3277
 8041W        W25565  16.974  13.785   3.338  0.1494 -0.2676  0.0375
 8042W        W25566   1.037   2.845  17.050 -0.0304 -0.0342 -0.1024
 8043W        W25567   5.759  17.207  14.337 -0.2133 -0.1209  0.0129
 8044W        W25568   4.991  11.191   1.824 -0.2931 -0.1830 -0.2526
 8045W        W25569  10.597  11.112  13.136 -0.0309 -0.2344 -0.3087
 8046W        W25570   7.577  14.696  14.846 -0.1098 -0.0175 -0.3914
 8047W        W25571   4.727  13.087  16.582 -0.1880 -0.0577 -0.0548
 8048W        W25572  16.068   6.603  14.864 -0.1830  0.0282  0.1909
 8049W        W25573  12.117  13.473  14.051 -0.5284 -0.1907  0.0985
 8050W        W25574  10.072  16.981  17.252 -0.0466 -0.0149 -0.0641
 8051W        W25575  10.424   7.561   1.365  0.0311 -0.4240 -0.0992
 8052W        W25576  16.320  10.311  15.592  0.3509  0.0338  0.0446
 8053W        W25577  12.007   5.064   0.387  0.0166 -0.0441  0.1994
 8054W        W25578   3.787  14.467  14.461  0.1821  0.1859  0.0559
 8055W        W25579  15.944   1.257   1.818  0.2052  0.1543  0.1567
 8056W        W25580  16.551  13.564  13.657  0.1188 -0.0370 -0.0038
 8057W        W25581  11.565  10.810   4.546  0.3192 -0.0885 -0.1349
 8058W        W25582  16.829   0.575  12.998 -0.0202  0.0162  0.0430
 8059W        W25583   5.658   5.011  17.422 -0.1140 -0.0699  0.1316
 8060W        W25584   2.487   7.234   1.424 -0.1071  0.1232 -0.0341
 8061W        W25585   9.307  11.281  17.483  0.3359  0.1209 -0.0380
 8062W        W25586  13.520   8.309   4.420  0.1945  0.1928 -0.1143
 8063W        W25587   5.467   4.202   4.569  0.0272 -0.1586 -0.2075
 8064W        W25588   3.961  11.002   0.578 -0.2445 -0.2137 -0.1476
 8065W        W25589  12.241  12.386  17.365 -0.1940  0.2010 -0.2424
 8066W        W25590  14.247   7.126  16.412  0.1693  0.0913 -0.0292
 8067W        W25591  11.250  15.396   3.981  0.0642 -0.0790 -0.1149
 8068W        W25592   9.730  16.668   0.538  0.0394  0.0475 -0.0313
 8069W        W25593   5.215  16.847  12.508  0.2151  0.2014 -0.3202
 8070W        W25594   6.624   5.458  16.515 -0.0463 -0.0927  0.2876
 8071W        W25595  12.435   2.359   4.819 -0.0399 -0.0481 -0.1404
 8072W        W25596   9.454  13.243  12.960  0.0493  0.1098 -0.1160
 8073W        W25597   5.871   2.960  17.538  0.1711  0.0261 -0.1337
 8074W        W25598   1.654   5.252  14.400  0.0866  0.1128  0.0237
 8075W        W25599   7.102   7.560  17.142 -0.1091 -0.0590 -0.0226
 8076W        W25600   9.525   9.670   1.698  0.1148  0.1745  0.0552
 8077W        W25601   5.662   9.691  13.264  0.0468 -0.1435  0.1434
 8078W        W25602   2.902  14.526  13.085  0.0234 -0.0292  0.1909
 8079W        W25603   0.299  13.084   5.687 -0.3500 -0.1027 -0.0434
 8080W        W25604   8.217   5.128  15.814  0.0314  0.0275 -0.0562
 8081W        W25605   6.655  15.356   1.492  0.1484 -0.0498 -0.0482
 8082W        W25606  17.094   8.264  15.286  0.0247 -0.1208  0.3256
 8083W        W25607   0.649   8.747   0.722 -0.1268 -0.1129 -0.2826
 8084W        W25608   2.923  13.236   5.552  0.0295 -0.0785 -0.0870
 8085W        W25609   2.353   6.512   3.418 -0.0594 -0.0413 -0.0117
 8086W        W25610  15.808   9.156   4.110 -0.3775 -0.0847 -0.3680
 8087W        W25611  11.877  14.851   3.880 -0.0163  0.1353 -0.1053
 8088W        W25612   7.564   4.390  17.258  0.1588 -0.4503  0.1274
 8089W        W25613  12.610   8.424  16.921  0.2591 -0.0827 -0.0059
 8090W        W25614  11.623   5.939  14.361  0.0257 -0.1202  0.1029
 8091W        W25615  13.966   3.722  15.484  0.3289 -0.1289 -0.0827
 8092W        W25616   6.362   4.920  15.257  0.0905 -0.1444  0.0231
 8093W        W25617   4.400   5.676   0.174 -0.4204  0.3531 -0.1705
 8094W        W25618   0.922   6.303  12.077  0.2083  0.0689 -0.2116
 8095W        W25619   6.160   3.603  15.043  0.2744 -0.2540 -0.0985
 8096W        W25620   6.030  12.666  15.685  0.0882  0.2418  0.2164
 8097W        W25621   2.383   0.838   4.310 -0.1596 -0.2331  0.0294
 8098W        W25622   5.017   6.575  15.270 -0.0596 -0.0203  0.2831
 8099W        W25623  16.599   4.232   5.466 -0.1560  0.0591  0.2710
 8100W        W25624  12.814   4.307   3.973  0.0323  0.0599  0.0853
 8101W        W25625  11.952  15.017  15.023  0.0441 -0.4117 -0.0581
 8102W        W25626   2.023   1.060   1.279  0.1802  0.2401 -0.1268
 8103W        W25627   3.453   1.700   3.782 -0.0741  0.3467 -0.0251
 8104W        W25628   3.972  13.116  14.209  0.1728 -0.3417 -0.3416
 8105W        W25629  16.484  15.253   1.228 -0.1031  0.0396 -0.2496
 8106W        W25630   6.683  12.016  17.573 -0.0845 -0.0616 -0.2426
 8107W        W25631   1.703  10.202   5.354 -0.1001 -0.1597 -0.1557
 8108W        W25632   9.381  13.721   5.215 -0.5225  0.0724  0.1275
 8109W        W25633  14.095  11.469   4.340  0.2471 -0.1304  0.1915
 8110W        W25634   4.971   6.935   2.304  0.0403 -0.0200  0.2819
 8111W        W25635   3.191   8.074   5.653  0.2163  0.1080 -0.2227
 8112W        W25636  13.125   2.565  11.341  0.0724 -0.1820  0.2778
 8113W        W25637  12.824  12.629  17.124  0.0218 -0.0130  0.0845
 8114W        W25638  16.866  10.116  13.518  0.0591 -0.1597  0.0198
 8115W        W25639  14.843  13.116   4.781  0.2039 -0.3497 -0.1338
 8116W        W25640  14.580   9.619   3.115  0.1510  0.1221  0.1699
 8117W        W25641  14.929  10.886   1.102 -0.0873 -0.2422 -0.0935
 8118W        W25642   7.604   2.714  14.247 -0.0136 -0.0179  0.1153
 8119W        W25643  14.277  17.060   3.906  0.0337  0.0557 -0.3757
 8120W        W25644  14.495   9.542  16.544 -0.0704 -0.1240 -0.0468
 8121W        W25645   5.416   3.619  15.280 -0.0066  0.0104  0.1250
 8122W        W25646   3.271   6.992   2.545 -0.0415 -0.1469  0.0574
 8123W        W25647  17.119  15.814  13.463 -0.2781 -0.0061  0.4218
 8124W        W25648   1.288  13.884   3.909 -0.1758 -0.2104 -0.0996
 8125W        W25649   5.124   5.831   3.736  0.0761  0.0266  0.0641
 8126W        W25650   6.624   9.222  16.269  0.0394 -0.1973 -0.1628
 8127W        W25651   0.114   2.662  13.018 -0.0105  0.0047 -0.0158
 8128W        W25652   4.366   5.228   0.455  0.2977 -0.1418  0.1633
 8129W        W25653   7.933   6.227   3.948  0.1890  0.0649 -0.2851
 8130W        W25654  13.552   1.310  15.353 -0.3977 -0.0033  0.1136
 8131W        W25655  10.064   2.634  16.751 -0.0695  0.1271 -0.0216
 8132W        W25656  14.087  15.482   0.216  0.0042  0.0887  0.1748
 8133W        W25657   2.600  13.501   4.293  0.0137  0.0347 -0.0144
 8134W        W25658   8.075  11.798   4.787  0.2359 -0.2612  0.1610
 8135W        W25659   3.161   7.222  16.761  0.2013 -0.3154 -0.1904
 8136W        W25660   5.709   1.997  14.328  0.0042  0.1062  0.0222
 8137W        W25661  15.366   1.744   0.989 -0.3075  0.1785  0.2540
 8138W        W25662   4.129  16.581   4.913 -0.1164 -0.4225 -0.1826
 8139W        W25663   5.070   5.735  14.855  0.2402 -0.0062  0.2824
 8140W        W25664   9.845   9.648   2.092  0.1440 -0.0474 -0.0240
 8141W        W25665   8.684  11.677  16.504 -0.0090 -0.2329  0.1607
 8142W        W25666   0.944   0.870   1.894  0.2414 -0.0436  0.2172
 8143W        W25667   6.417   9.232   3.876 -0.0188 -0.1508  0.3420
 8144W        W25668   8.499   0.415  11.841  0.2025  0.0274 -0.3092
 8145W        W25669  12.159   8.182  16.774  0.1781  0.2542 -0.0667
 8146W        W25670   6.802   0.658  15.405 -0.1983  0.0685  0.0120
 8147W        W25671  16.333   0.252  15.088  0.1200  0.0677 -0.3076
 8148W        W25672   0.857  15.208   3.229  0.1482 -0.0085  0.0464
 8149W        W25673  16.597   6.724   4.781 -0.3181 -0.0298 -0.2112
 8150W        W25674  16.026   4.056  15.758  0.2414 -0.2387  0.1760
 8151W        W25675  11.132   2.313  12.616  0.2347  0.1410  0.0129
 8152W        W25676  16.784   3.185   0.079 -0.0122  0.0683 -0.1358
 8153W        W25677   0.577   2.723  17.274 -0.0728 -0.2287 -0.2034
 8154W        W25678  15.035  12.711  17.490  0.3492  0.1687  0.2631
 8155W        W25679   8.533   5.522  17.412 -0.0311  0.0728  0.3351
 8156W        W25680   3.831  14.860   5.061 -0.0030  0.0322 -0.0536
 8157W        W25681  15.395   5.828  17.462  0.3297 -0.1760 -0.0920
 8158W        W25682  10.124   2.922   2.190  0.0526 -0.1422  0.0889
 8159W        W25683  12.445   7.409  13.140 -0.0060 -0.1402  0.1535
 8160W        W25684  13.690   6.278   1.033 -0.1344 -0.0280 -0.3736
 8161W        W25685   1.354   1.858  17.171 -0.0317  0.2941 -0.0946
 8162W        W25686  12.369   2.533  16.302  0.0665 -0.1272 -0.3365
 8163W        W25687  12.397   2.541   0.517 -0.0698 -0.1378 -0.0264
 8164W        W25688   0.878   4.981   0.668  0.3073  0.1834 -0.4054
 8165W        W25689   2.514  11.511  13.744  0.0828 -0.0400 -0.2351
 8166W        W25690  15.143   1.349  16.948 -0.0617  0.4399 -0.1054
 8167W        W25691  12.696  15.843   4.843 -0.1831 -0.0491 -0.4069
 8168W        W25692  11.886  10.288  16.963 -0.0864  0.2796  0.2353
 8169W        W25693   2.312  16.530  16.544  0.1921  0.0172  0.1125
 8170W        W25694   2.590   7.086   0.979  0.0250 -0.2276  0.0178
 8171W        W25695   0.666   1.702   0.626  0.0486 -0.1742  0.0238
 8172W        W25696  16.907   1.351  11.459 -0.2165  0.0254  0.0738
 8173W        W25697  12.460   5.755   0.962 -0.2963  0.1799 -0.0728
 8174W        W25698   7.458  14.217  14.660  0.0326 -0.2290  0.0510
 8175W        W25699   9.691   2.113   2.525 -0.3300  0.0743  0.1399
 8176W        W25700   9.289  16.152  16.335 -0.0021  0.0500 -0.2965
 8177W        W25701  10.568   7.063  14.044  0.1365 -0.0049 -0.3060
 8178W        W25702   4.825  11.843   5.711  0.0407 -0.0309 -0.0080
 8179W        W25703   5.263  10.040  14.111  0.0181 -0.1034 -0.2079
 8180W        W25704  11.764  15.639  16.122  0.1296 -0.0611 -0.1391
 8181W        W25705   4.895   5.337   5.869  0.0540  0.3444  0.4338
 8182W        W25706  16.017   6.560   1.439 -0.1229  0.4737  0.2126
 8183W        W25707   6.789   1.590   3.276 -0.4252  0.2294 -0.1353
 8184W        W25708   7.272  14.529  13.353 -0.0258 -0.1609  0.0420
 8185W        W25709   8.976  15.253   6.020  0.3751  0.0977  0.0959
 8186W        W25710   9.161  16.139   3.699  0.2587 -0.0699 -0.0344
 8187W        W25711   5.486   3.375  12.393 -0.3026  0.0015 -0.2905
 8188W        W25712  13.376   5.548   1.986  0.2695 -0.3383  0.0144
 8189W        W25713  14.927  17.126   3.286 -0.4565 -0.1908 -0.0612
 8190W        W25714   3.799   2.489  12.635  0.2087  0.1611 -0.0412
 8191W        W25715  11.708   5.877  17.415  0.1960  0.0691 -0.0308
 8192W        W25716   1.757  10.656   2.964 -0.2129  0.1696  0.1299
 8193W        W25717  10.173   1.523   3.327 -0.0238 -0.0707  0.0534
 8194W        W25718  15.328  11.838  16.600 -0.1370  0.2067  0.0235
 8195W        W25719   2.440   0.180  13.796 -0.0667  0.0811 -0.2250
 8196W        W25720   9.489   3.068  16.382 -0.3211 -0.2246  0.1101
 8197W        W25721   6.611   7.748  16.249  0.1207 -0.1159  0.0274
 8198W        W25722   2.943   2.363   5.190 -0.1170 -0.1030  0.2836
 8199W        W25723  15.821  12.850   1.499 -0.2349 -0.2073 -0.0983
 8200W        W25724   3.602   8.300   4.462 -0.0485  0.1270  0.3458
 8201W        W25725  16.039   6.172   1.829  0.0536 -0.3282  0.2789
 8202W        W25726   5.214   0.640   4.891 -0.0882 -0.0684  0.0592
 8203W        W25727   7.555  15.705   1.620  0.3609  0.1795  0.2587
 8204W        W25728  10.381   2.694  13.637 -0.0303 -0.1686 -0.1703
 8205W        W25729  13.764  11.059   1.025  0.1933 -0.3957 -0.0467
 8206W        W25730   5.274  15.242   3.855 -0.0560 -0.1843  0.0987
 8207W        W25731   9.803   6.657  14.742 -0.2423  0.0532 -0.4865
 8208W        W25732   4.838   7.987   5.381 -0.1155 -0.1702  0.2021
 8209W        W25733   0.697   8.383  16.367  0.1256 -0.1164  0.2087
 8210W        W25734   7.408   7.957  17.106 -0.0260  0.1059 -0.0023
 8211W        W25735   9.678  12.098   5.777  0.0439  0.2612  0.0360
 8212W        W25736  13.720   2.669   3.610 -0.1405  0.0870  0.1585
 8213W        W25737   2.637   7.916  16.320 -0.1139  0.1731 -0.0038
 8214W        W25738  15.477  10.668  16.067  0.2183  0.0366  0.1691
 8215W        W25739   7.737   0.176   2.289  0.0011  0.0534  0.0212
 8216W        W25740  16.800  16.772  16.860  0.0657  0.1667  0.2213
 8217W        W25741   1.119   5.748   0.085 -0.1393  0.0408 -0.1337
 8218W        W25742  16.336   8.805  13.484  0.2462 -0.1358  0.1294
 8219W        W25743   1.563  16.001   4.025  0.0642 -0.1227 -0.1553
 8220W        W25744   6.586   9.184   5.485  0.0308 -0.0489  0.2716
 8221W        W25745   6.533   0.494  14.665  0.1336 -0.0051 -0.2899
 8222W        W25746   7.164  15.381   3.423 -0.1020  0.4313 -0.1210
 8223W        W25747  14.044  13.239  15.901  0.0711 -0.2019 -0.1031
 8224W        W25748   3.257   7.957  16.102 -0.0175  0.0513  0.0493
 8225W        W25749  11.543   8.875  15.774  0.1920  0.3236 -0.1373
 8226W        W25750   1.592   5.156   2.558  0.0925 -0.3669 -0.0306
 8227W        W25751  16.353   5.334   4.760 -0.0178 -0.0939 -0.0072
 8228W        W25752  10.726   6.475  14.694  0.2464  0.0271 -0.3119
 8229W        W25753  13.089   1.915   5.575  0.0621 -0.2914  0.0528
 8230W        W25754  12.652  17.020   6.455 -0.0906  0.1761  0.1614
 8231W        W25755  16.961  16.838  12.008 -0.0579 -0.1961  0.2328
 8232W        W25756   2.838   5.789   0.662 -0.1058  0.2032  0.1479
 8233W        W25757  11.418   9.388   3.138  0.2910  0.1914  0.1367
 8234W        W25758   5.073  10.957  13.200 -0.0948  0.0948  0.1158
 8235W        W25759  11.342  15.477   5.289  0.3908 -0.0004 -0.1744
 8236W        W25760   7.021   2.564   3.055  0.1292  0.0965 -0.1378
 8237W        W25761  13.418   6.885  17.597  0.0162  0.0059 -0.4631
 8238W        W25762  15.639  14.960  16.612 -0.0238  0.0006 -0.3025
 8239W        W25763   0.971   7.152  14.155 -0.0942 -0.1771 -0.0652
 8240W        W25764   9.102   7.468  15.600 -0.0489  0.1150 -0.2334
 8241W        W25765   2.285   8.341  12.767 -0.3310  0.1536  0.2762
 8242W        W25766   9.542  14.747  14.579  0.2501  0.1071 -0.2557
 8243W        W25767   4.293  13.338  16.717  0.0501  0.1013  0.0623
 8244W        W25768   3.705  12.300  11.956  0.0616  0.1089  0.2546
 8245W        W25769  14.755   5.608   1.297 -0.0538 -0.0149 -0.1910
 8246W        W25770   5.940  16.320   4.435  0.0004 -0.2340  0.2682
 8247W        W25771   6.117   8.095  16.438  0.2222  0.0461  0.1389
 8248W        W25772  16.984  13.245   0.211 -0.0084 -0.1414 -0.0394
 8249W        W25773  12.731  10.595   1.616  0.1179 -0.0545 -0.0465
 8250W        W25774  11.289   9.325   2.617 -0.0512  0.2046  0.1635
 8251W        W25775   7.490  12.379  12.851  0.1331  0.0763 -0.3016
 8252W        W25776   5.696   6.703  15.856  0.1648  0.1246  0.0248
 8253W        W25777   9.038   2.635   4.695  0.0594 -0.2840 -0.0216
 8254W        W25778  16.789   5.071   4.947 -0.0225  0.1171  0.0386
 8255W        W25779   5.695   7.934   3.488  0.0544  0.1192  0.3944
 8256W        W25780  16.475   1.637  16.042  0.1745 -0.0571 -0.1119
 8257W        W25781  10.482  14.796  14.432 -0.1841 -0.2439  0.0414
 8258W        W25782   7.686   2.060  16.638 -0.1287 -0.0891  0.1263
 8259W        W25783   5.875   4.234   5.928  0.1961 -0.0901 -0.4043
 8260W        W25784   9.205   2.987   1.605  0.2148  0.2361  0.3493
 8261W        W25785   1.654  12.808   3.845  0.0685  0.2152  0.3234
 8262W        W25786   6.105  10.202  13.720  0.0641 -0.0129 -0.2320
 8263W        W25787   9.159   5.072   2.926 -0.1205  0.2146 -0.0619
 8264W        W25788   2.690   3.562  17.064 -0.2397 -0.3303 -0.2791
 8265W        W25789  10.103  15.117   3.397 -0.1869 -0.1980  0.0108
 8266W        W25790   0.523  12.195   0.159 -0.4156 -0.3244 -0.0715
 8267W        W25791  10.981   3.024   5.613 -0.0251  0.3038 -0.0388
 8268W        W25792   5.396   4.451  14.256  0.0178  0.3431  0.4004
 8269W        W25793  14.010  10.585   4.882 -0.0972 -0.2083  0.2117
 8270W        W25794   7.409  14.611  15.785  0.2048  0.1192  0.3529
 8271W        W25795  11.274   5.378   4.194  0.1636  0.0035 -0.1650
 8272W        W25796   3.208   5.662   5.497 -0.2310 -0.1357  0.2239
 8273W        W25797  14.021   9.451   1.042 -0.1197  0.2252 -0.1663
 8274W        W25798   5.629   5.300  11.596 -0.1455 -0.0482 -0.0337
 8275W        W25799  14.862   8.549   2.170 -0.1476 -0.2171  0.0874
 8276W        W25800   8.934  16.459   5.761 -0.0566  0.0996 -0.1599
 8277W        W25801   4.194   2.701  12.881 -0.5039  0.0083  0.0604
 8278W        W25802   6.075   0.701   4.481 -0.1902  0.0678  0.3998
 8279W        W25803   6.695  11.000  13.367  0.0570 -0.1031 -0.1133
 8280W        W25804  12.247   0.662   1.326  0.1990 -0.0924 -0.3403
 8281W        W25805   9.153   8.413  13.270 -0.0479 -0.1406 -0.1085
 8282W        W25806   5.832  11.223   1.926  0.1073  0.0353  0.1807
 8283W        W25807   2.565  13.483   2.933 -0.3082  0.0874  0.2372
 8284W        W25808  13.924  10.720  16.981  0.1312 -0.0602 -0.2322
 8285W        W25809   9.195  17.119   0.009 -0.1447 -0.1057 -0.0449
 8286W        W25810   6.800  16.247   0.178  0.0561 -0.0421 -0.2020
 8287W        W25811   0.230   1.041  15.456  0.1256  0.0419 -0.1489
 8288W        W25812   3.700   1.874   1.493 -0.1882 -0.1158  0.2020
 8289W        W25813  17.126   6.605  12.478 -0.5936 -0.0644  0.1251
 8290W        W25814  12.267   9.261   2.322 -0.2044 -0.0492 -0.1875
 8291W        W25815  11.343   5.690  12.773  0.1739 -0.0205  0.0035
 8292W        W25816   7.185  10.712   1.304 -0.0835 -0.1434 -0.2139
 8293W        W25817   3.338  10.923  16.986 -0.2785  0.2528  0.1591
 8294W        W25818  15.437   6.926   5.077  0.0253  0.1130  0.1361
 8295W        W25819   2.513   4.247   3.417 -0.1144 -0.1829 -0.0722
 8296W        W25820  10.692   3.451   1.015 -0.2147  0.1080 -0.0992
 8297W        W25821   5.408  16.905  15.450  0.0215 -0.1174  0.0492
 8298W        W25822   2.960   1.893   2.363  0.1601 -0.0203 -0.1245
 8299W        W25823   2.123  17.124  12.363  0.1565 -0.0222 -0.2412
 8300W        W25824  16.186  16.399   3.539 -0.0155  0.1351  0.0120
 8301W        W25825   5.717   2.232   2.093 -0.0049 -0.1599 -0.0181
 8302W        W25826   9.832   6.665   1.187 -0.0440  0.1390 -0.3335
 8303W        W25827  17.053   4.182   1.709 -0.2602  0.0500  0.1997
 8304W        W25828  10.760   5.786   1.641 -0.3994  0.0820 -0.1233
 8305W        W25829   2.555  10.538  16.782 -0.0068  0.0394 -0.4756
 8306W        W25830   1.972   4.204   6.101 -0.0178 -0.0127 -0.0652
 8307W        W25831   9.133   6.909  12.710  0.0236  0.0126 -0.2167
 8308W        W25832  14.198  13.911  12.021 -0.0258 -0.4075 -0.1915
 8309W        W25833   6.421  16.421   1.540  0.0726 -0.0455 -0.0114
 8310W        W25834   6.695   3.721   4.161  0.0576 -0.1013 -0.0990
 8311W        W25835   5.702   4.038   5.037 -0.1092  0.0192 -0.0613
 8312W        W25836   0.077  14.756  11.920 -0.1197 -0.1535  0.0156
 8313W        W25837  14.030  15.271   0.666 -0.1213  0.0288 -0.1478
 8314W        W25838  12.635   3.952   2.746 -0.1733  0.1582  0.1526
 8315W        W25839  13.599   4.468  12.505 -0.0857  0.1193  0.0777
 8316W        W25840  16.414   2.245  13.567 -0.0161 -0.0888  0.0860
 8317W        W25841   3.927   3.164  14.733  0.1844  0.0165  0.4337
 8318W        W25842  10.440  16.107  14.843 -0.0124 -0.2053  0.1616
 8319W        W25843  16.289   6.129   0.098  0.3131 -0.1731 -0.0799
 8320W        W25844  16.302   0.825   4.009  0.1664  0.1679 -0.0700
 8321W        W25845  16.304   3.258   4.965  0.0548 -0.2689 -0.2561
 8322W        W25846  12.061  10.958  13.993 -0.1063 -0.2019 -0.1252
 8323W        W25847  11.374   4.434  16.556  0.2465 -0.1696  0.0034
 8324W        W25848  10.345  15.681  16.765  0.0102  0.0744  0.2478
 8325W        W25849   1.339  16.933   3.713  0.2176  0.0611  0.1519
 8326W        W25850   0.308  10.353  17.168 -0.1212  0.1770 -0.2425
 8327W        W25851  16.516  16.332   2.326  0.0565  0.1906  0.0069
 8328W        W25852  14.566   5.578  15.921 -0.0673  0.1473 -0.2734
 8329W        W25853  10.751  15.225  17.484  0.0306  0.1437 -0.2394
 8330W        W25854  10.785  10.306   0.443 -0.1604  0.1580  0.1474
 8331W        W25855   3.051   8.332  15.656  0.4077 -0.0862  0.4638
 8332W        W25856   6.270  14.075  14.552 -0.1781 -0.0707 -0.1500
 8333W        W25857  15.167   3.207  16.609 -0.0355  0.0039 -0.2985
 8334W        W25858   9.757  10.914  12.714  0.3020  0.0549 -0.2445
 8335W        W25859   0.773  13.257  14.400 -0.0275  0.2091  0.1061
 8336W        W25860   0.349   9.553   5.013 -0.0434  0.0698  0.0169
 8337W        W25861   0.460  15.063  13.907  0.0064  0.1345  0.3795
 8338W        W25862  17.086   3.603  15.809  0.0333 -0.1203 -0.0805
 8339W        W25863   0.263   4.764   1.231  0.2144 -0.0296 -0.0034
 8340W        W25864   3.347   4.831  12.680 -0.0217  0.0456  0.0609
 8341W        W25865   6.974   5.498  15.918  0.1387 -0.1099 -0.1616
 8342W        W25866   2.749   1.264  16.607  0.1500  0.0401 -0.0655
 8343W        W25867  11.492   7.681   2.027  0.0350 -0.3661  0.0623
 8344W        W25868  15.885  16.648  14.738  0.2272 -0.1101 -0.2675
 8345W        W25869  14.289  13.100  12.569  0.0481 -0.2005  0.1083
 8346W        W25870   0.810  10.950  15.787 -0.2565 -0.1261  0.3470
 8347W        W25871  16.223   1.468   0.587  0.1047  0.0576 -0.0380
 8348W        W25872   6.674  11.984   2.536  0.0468 -0.1375  0.1315
 8349W        W25873  15.641  14.905  12.490 -0.0585  0.0036  0.0540
 8350W        W25874  14.402  15.360   0.980 -0.0256  0.1434 -0.1083
 8351W        W25875   7.232   7.560  14.568  0.0148  0.3800  0.1011
 8352W        W25876   7.308   1.534   3.063 -0.1009 -0.0526  0.3815
 8353W        W25877   6.943   6.017   4.124 -0.3610 -0.2481 -0.3168
 8354W        W25878   2.956  16.639   3.931  0.0078 -0.0462  0.0663
 8355W        W25879   6.954  13.190   1.407 -0.0138  0.0781  0.0678
 8356W        W25880   2.709   3.026   4.651  0.2284  0.2635  0.1928
 8357W        W25881  15.633   8.171  12.107 -0.0244 -0.4008 -0.0328
 8358W        W25882   9.654   6.615   3.465  0.0369  0.0649  0.0486
 8359W        W25883  14.418  14.725  16.904 -0.0859  0.2173  0.3734
 8360W        W25884  12.463  15.718   4.057 -0.0276  0.1773 -0.1897
 8361W        W25885  15.429   0.394  12.940  0.0512 -0.2487  0.2312
 8362W        W25886  12.922  16.413  15.095  0.2632  0.2644 -0.0364
 8363W        W25887  15.370   6.643   0.106 -0.0847  0.1292  0.0462
 8364W        W25888  10.813  11.847   3.648 -0.0099  0.3590  0.1432
 8365W        W25889   6.632  14.878  14.059  0.1603  0.0826 -0.0611
 8366W        W25890   8.137  16.228   5.800  0.0352 -0.0743  0.3036
 8367W        W25891   0.997  10.351  12.757 -0.0280 -0.2028  0.1080
 8368W        W25892  12.218  12.356  13.322  0.3603  0.1647 -0.4520
 8369W        W25893   1.776   5.205  13.781 -0.3059 -0.0270  0.2598
 8370W        W25894  13.732   6.139   0.497  0.0714  0.0976 -0.0169
 8371W        W25895   8.031   9.255   2.662 -0.0562  0.0661 -0.2007
 8372W        W25896   8.648  14.459  13.919 -0.2878 -0.1102  0.0894
 8373W        W25897  16.939  10.951   0.910 -0.0056  0.1107 -0.1063
 8374W        W25898  16.524  10.283  12.259 -0.1432 -0.0392 -0.0172
 8375W        W25899   0.976  15.263   5.086 -0.2412 -0.0942 -0.0141
 8376W        W25900   6.342   2.974  16.519  0.1313  0.2241 -0.2889
 8377W        W25901   1.833   5.066   3.376 -0.0745  0.1776 -0.2416
 8378W        W25902   7.251  16.846  17.441  0.0852 -0.1414 -0.1309
 8379W        W25903   8.813  16.772   1.885  0.1734  0.2351  0.0687
 8380W        W25904   0.797  12.556   3.988  0.2501  0.0393  0.3952
 8381W        W25905   8.604  16.490   2.673 -0.2178 -0.2202  0.1236
 8382W        W25906  13.653  16.811   0.445 -0.0480  0.0061  0.1213
 8383W        W25907  11.815   3.273  17.195 -0.5477 -0.1021  0.1964
 8384W        W25908   0.832  14.845   4.153 -0.0421 -0.0666 -0.0040
 8385W        W25909   0.880   3.077  12.314 -0.2297 -0.0603 -0.1092
 8386W        W25910   6.879   6.021   1.858  0.2853  0.0881  0.1673
 8387W        W25911  13.965   7.292   2.673 -0.1903  0.0813  0.2031
 8388W        W25912   0.128  16.536   2.056  0.0571 -0.1508 -0.0857
 8389W        W25913   8.154  12.034  14.912  0.0706 -0.3865  0.1744
 8390W        W25914  14.520   5.064  16.781  0.1092 -0.0902 -0.0850
 8391W        W25915  15.069  12.229  16.648 -0.1300 -0.0415  0.1571
 8392W        W25916  11.199  15.480  15.244 -0.1373 -0.0201  0.1483
 8393W        W25917  12.942   6.061  16.551  0.0376 -0.0696 -0.0635
 8394W        W25918  14.485   3.789   4.323 -0.1008 -0.2086  0.0283
 8395W        W25919   6.971  16.733   3.693 -0.1587  0.1553 -0.0393
 8396W        W25920   7.596   3.023  16.508 -0.1339 -0.0262 -0.0102
 8397W        W25921  10.143  10.560  17.382  0.0560  0.1730 -0.0209
 8398W        W25922  14.506   5.130   3.506  0.0144  0.0808  0.1166
 8399W        W25923  10.974  15.186   0.634  0.3481  0.0409  0.0741
 8400W        W25924   5.145   6.286   0.064 -0.4760 -0.1078  0.1958
 8401W        W25925   0.168  17.045   0.925  0.4038 -0.0991 -0.0945
 8402W        W25926   8.555  12.884   1.086 -0.3276 -0.2851  0.0682
 8403W        W25927  10.913   5.370   2.601 -0.1208  0.0223 -0.0749
 8404W        W25928  15.995   5.002   4.486 -0.2546  0.1512 -0.0309
 8405W        W25929   0.456   5.937  13.355  0.1866 -0.0071 -0.0196
 8406W        W25930   2.777   2.708  14.302 -0.0322  0.0176  0.1139
 8407W        W25931  17.066  15.799   4.571  0.0754 -0.0696  0.0158
 8408W        W25932   1.885  16.808   0.065 -0.0506 -0.1718  0.0715
 8409W        W25933  10.924   3.828   0.742 -0.1510  0.0507 -0.0448
 8410W        W25934   6.623   7.507   2.584 -0.1680  0.0015 -0.0399
 8411W        W25935  14.517   5.925  16.278  0.2597  0.2468 -0.2463
 8412W        W25936  13.181   3.227   4.659 -0.0245  0.0971  0.0834
 8413W        W25937   0.166   5.852  17.282  0.0598  0.0956 -0.0223
 8414W        W25938  15.435   6.301   4.672 -0.0254  0.1018  0.0950
 8415W        W25939  12.841   7.864  14.182 -0.0511  0.2636  0.1308
 8416W        W25940  10.378  10.683  15.238 -0.1368 -0.1312 -0.0989
 8417W        W25941   5.196   8.617  15.334  0.0653 -0.2475  0.1442
 8418W        W25942   3.724   0.989  13.439 -0.1978  0.2827 -0.0517
 8419W        W25943   5.232  14.643   5.592 -0.2446  0.1589 -0.0084
 8420W        W25944   2.548   5.333   6.157 -0.1402  0.2581  0.0315
 8421W        W25945  14.831   9.780  13.890  0.0330 -0.0571 -0.0528
 8422W        W25946   8.888   6.447  14.295 -0.3488  0.0158  0.1411
 8423W        W25947  10.404   6.796  12.605 -0.0929 -0.1009 -0.3228
 8424W        W25948   1.599  14.795   3.622 -0.1167 -0.0807  0.2313
 8425W        W25949  10.467  13.584  15.627 -0.3945 -0.0554 -0.2093
 8426W        W25950  13.093   6.149   6.032  0.0407  0.1854 -0.1010
 8427W        W25951   6.815  13.862  17.471  0.0350  0.4006  0.0271
 8428W        W25952   1.798  14.542  12.573  0.0791  0.1340  0.0775
 8429W        W25953  13.966  15.879   4.310  0.3365  0.1378 -0.1982
 8430W        W25954   1.028   8.590  12.530  0.2038  0.2687  0.0114
 8431W        W25955   6.650  15.183   5.340 -0.1262  0.3390  0.1899
 8432W        W25956   9.727   9.870   4.799 -0.0565  0.3076 -0.2887
 8433W        W25957   8.229  10.876  12.814  0.1501 -0.0631  0.1966
 8434W        W25958  11.960   8.717  14.909  0.1290 -0.2767 -0.0090
 8435W        W25959  17.093  11.811   0.462 -0.1876  0.1132 -0.0362
 8436W        W25960   7.617   6.174   2.518  0.2737 -0.0834  0.0462
 8437W        W25961   6.731   1.157  13.045  0.0064 -0.1551  0.0761
 8438W        W25962  15.168   7.304   4.271 -0.0280  0.0090  0.3127
 8439W        W25963   5.136  14.255  14.660  0.1224  0.1943  0.2422
 8440W        W25964   9.169   1.788   1.785  0.2421 -0.2274  0.2572
 8441W        W25965   2.027   3.217  12.342 -0.1945  0.0230 -0.3876
 8442W        W25966  10.474   9.636  14.790 -0.1952  0.0728 -0.1734
 8443W        W25967   7.026  11.180  14.037 -0.1537  0.2941  0.1169
 8444W        W25968  14.684   3.595  16.162 -0.3405 -0.0062 -0.4361
 8445W        W25969   8.446  16.903  14.750  0.0987  0.0420  0.2117
 8446W        W25970  14.485  13.586   4.791  0.3096  0.0630 -0.0982
 8447W        W25971   3.385  16.757  12.152  0.0262 -0.0389  0.2717
 8448W        W25972   3.622  12.346   1.815  0.0276 -0.0998 -0.1729
 8449W        W25973  12.267  15.576   4.908 -0.0085  0.0379  0.2654
 8450W        W25974   7.456   9.062  15.587  0.1786 -0.0747  0.2744
 8451W        W25975   5.662   7.514   1.402 -0.1152 -0.0744 -0.0018
 8452W        W25976   5.859   9.434   5.074  0.1649 -0.1584  0.1789
 8453W        W25977   5.776   7.110   3.698  0.0908 -0.0701  0.1554
 8454W        W25978   6.007  11.017   3.830  0.2709  0.1517  0.2747
 8455W        W25979  13.889   1.213   4.171  0.2627  0.1059 -0.5168
 8456W        W25980  12.041  16.569  16.259  0.3590 -0.0518  0.1408
 8457W        W25981  10.976   8.281  15.872  0.1146 -0.0805  0.1698
 8458W        W25982  16.122  12.643   1.924 -0.3115 -0.1435  0.1083
 8459W        W25983   0.445  16.839   0.367  0.0828  0.1038  0.0269
 8460W        W25984   9.153   4.739  16.348  0.1773 -0.1917 -0.0469
 8461W        W25985   2.138   2.135  17.050  0.0020 -0.1248  0.0424
 8462W        W25986   0.607  15.095  17.176 -0.1589  0.2509 -0.1233
 8463W        W25987   0.165  14.001  12.616  0.1766  0.0629 -0.2133
 8464W        W25988   5.482   6.716  15.374  0.1061 -0.2769  0.1464
 8465W        W25989  10.539  16.475  15.304  0.0599 -0.0286  0.3076
 8466W        W25990   7.241   7.204  16.616 -0.1752 -0.2848  0.0021
 8467W        W25991   5.556   0.877   0.104 -0.0437 -0.0666  0.1955
 8468W        W25992   0.125   2.622  17.452 -0.1122  0.4691  0.0768
 8469W        W25993  16.482   5.369  16.452 -0.2701  0.0696 -0.3271
 8470W        W25994  16.845  11.134   3.197 -0.2468 -0.4016 -0.0526
 8471W        W25995  11.345  11.506  16.000  0.0240  0.3695 -0.1509
 8472W        W25996   6.109  17.025   3.140  0.1782  0.1616 -0.1346
 8473W        W25997  14.534   8.824   1.877  0.0790 -0.0305 -0.1661
 8474W        W25998   0.785  10.596  15.264 -0.2819 -0.0760  0.0799
 8475W        W25999   2.492   5.999   3.587 -0.0987  0.1195 -0.0525
 8476W        W26000  13.229   4.084  12.438 -0.0084  0.1553 -0.1481
 8477W        W26001   3.185   3.156   1.448  0.2599 -0.1239  0.0006
 8478W        W26002  13.279  11.607   3.455  0.1163 -0.1063  0.3231
 8479W        W26003   7.431   8.121   2.471  0.1790 -0.2000 -0.2527
 8480W        W26004   8.849  10.170   5.034 -0.2967  0.0256  0.0503
 8481W        W26005  16.541  14.308  12.937 -0.0491  0.0003  0.4003
 8482W        W26006   3.352  13.845  14.890  0.0799 -0.0771  0.1208
 8483W        W26007  14.153   0.385   0.708  0.1533 -0.0789 -0.2557
 8484W        W26008   4.702   7.351   1.552 -0.1957  0.0570 -0.2035
 8485W        W26009   9.351  16.929   3.049 -0.0889  0.2251  0.1189
 8486W        W26010  13.182   4.796   2.599 -0.0262 -0.0433  0.1914
 8487W        W26011   4.324   7.258   4.665  0.1104 -0.1130 -0.1944
 8488W        W26012   7.686   9.430  15.323  0.3648 -0.3868  0.1175
 8489W        W26013  15.098   4.658   4.257 -0.2001  0.1403 -0.3836
 8490W        W26014  10.228   3.028  14.761 -0.0707 -0.1537  0.1194
 8491W        W26015   2.761   6.376  14.131 -0.1411 -0.0311  0.1373
 8492W        W26016   5.707  13.870   1.885 -0.1648  0.1931  0.1309
 8493W        W26017   5.542   7.307  16.051 -0.1460 -0.0413  0.2008
 8494W        W26018   8.998   3.857   3.849  0.0893  0.0709 -0.0274
 8495W        W26019  14.340  14.494   2.918  0.1677 -0.3717 -0.3216
 8496W        W26020   3.770   7.460   3.302 -0.1725 -0.2430 -0.0030
 8497W        W26021  16.649  12.364   1.274 -0.0742  0.1252 -0.2425
 8498W        W26022   6.727  14.699   3.878 -0.2193 -0.0286  0.1048
 8499W        W26023   0.855  12.405   5.302  0.3196  0.3121  0.1807
 8500W        W26024   8.762  10.711   1.795 -0.1324 -0.1246 -0.0425
 8501W        W26025  13.622   7.483  11.958 -0.1173 -0.3797  0.2228
 8502W        W26026  17.082   0.148   4.153 -0.1946  0.2660  0.0547
 8503W        W26027   5.567  16.707  16.565  0.3191  0.0899 -0.0427
 8504W        W26028   7.042   0.085   2.924 -0.2678 -0.4091 -0.0191
 8505W        W26029   1.157  13.169   1.898  0.0447  0.0466  0.1517
 8506W        W26030  10.780   7.140   2.321 -0.0194  0.2631  0.2145
 8507W        W26031  16.651  13.707  16.118 -0.2892 -0.0615 -0.1301
 8508W        W26032  10.326  13.835   2.280  0.1567  0.2074 -0.1917
 8509W        W26033   6.154  15.138  13.371 -0.1229  0.3052  0.2292
 8510W        W26034  15.137   0.543  15.528  0.2479 -0.2455 -0.0858
 8511W        W26035   2.921   2.184   1.778  0.2508 -0.1460 -0.1737
 8512W        W26036   1.493   1.591   1.066 -0.1332  0.0149  0.2952
 8513W        W26037   5.528  15.946   2.849 -0.0599 -0.0071 -0.2338
 8514W        W26038  14.755  13.343  13.312  0.2239  0.1944  0.1290
 8515W        W26039   2.947   2.385  16.208 -0.3411  0.1151  0.4552
 8516W        W26040  11.586   1.099  13.912  0.1293  0.1690 -0.1135
 8517W        W26041  15.015   8.583   1.372 -0.0110  0.1895 -0.0998
 8518W        W26042   8.195  11.365   1.639  0.0472  0.0282 -0.0595
 8519W        W26043  10.520  16.029  17.082 -0.1048 -0.0139 -0.1811
 8520W        W26044  10.062   6.095   0.521  0.1753 -0.0507 -0.1398
 8521W        W26045  10.553   4.896  15.842  0.1117 -0.1779  0.3858
 8522W        W26046  16.585   1.829   3.101 -0.1530  0.0652  0.0227
 8523W        W26047   8.751   8.016  13.451 -0.0687  0.0657  0.0187
 8524W        W26048   4.118   2.359   4.350 -0.2753 -0.1755  0.1695
 8525W        W26049  13.197  12.159   1.422 -0.1839  0.1978  0.0341
 8526W        W26050  13.996  13.555   2.854 -0.1799 -0.0382  0.0737
 8527W        W26051   4.881   3.281   1.511 -0.1111 -0.0410 -0.2376
 8528W        W26052  13.383   4.343  16.623 -0.1362 -0.0518  0.0485
 8529W        W26053  13.377   6.916   1.851  0.0435  0.0150 -0.0433
 8530W        W26054  16.774  15.122   2.477 -0.1224 -0.1806  0.2447
 8531W        W26055   3.973   2.636  16.313  0.1526 -0.0739  0.0924
 8532W        W26056   9.151   1.419   0.285  0.1745 -0.1931 -0.0395
 8533W        W26057  13.444  15.222  15.598 -0.0686  0.2173 -0.2332
 8534W        W26058   0.057  15.173  12.170  0.2146  0.0424 -0.0302
 8535W        W26059  15.273   9.887   3.490 -0.2047 -0.2131 -0.1698
 8536W        W26060   7.913   9.271   3.940  0.0962 -0.2468  0.4331
 8537W        W26061   4.023   3.540   1.826  0.1369  0.0006  0.0631
 8538W        W26062   6.550   0.614   4.823 -0.1394 -0.1566 -0.0258
 8539W        W26063   2.574  15.034   6.218 -0.2080 -0.1824  0.0501
 8540W        W26064   5.075   9.914   1.486 -0.2106 -0.2010 -0.3003
 8541W        W26065   4.633  16.715   3.273  0.0017 -0.0323  0.1761
 8542W        W26066  10.980   7.085   5.452  0.3338  0.1470  0.1465
 8543W        W26067   4.826   0.142  17.003 -0.1001 -0.0963  0.2204
 8544W        W26068  11.305   3.538   2.609  0.1903 -0.0422  0.1181
 8545W        W26069  10.179   5.673   2.460 -0.2261  0.0861  0.0796
 8546W        W26070  14.988   8.446   4.981 -0.1094  0.1155  0.3428
 8547W        W26071   8.170   8.368   1.323  0.0453  0.0353 -0.5141
 8548W        W26072  12.238   5.899  13.650 -0.0795  0.1969  0.0553
 8549W        W26073  16.736   8.743   4.525  0.0989 -0.0380  0.0510
 8550W        W26074  13.743  15.060   2.665  0.1240  0.1099  0.0777
 8551W        W26075  13.060   3.415  15.573  0.3362  0.0368 -0.1914
 8552W        W26076   4.726   9.796   0.097  0.0484  0.4345  0.1961
 8553W        W26077  13.022   3.829   5.465  0.0597  0.0374  0.1153
 8554W        W26078   5.233  11.999  17.172  0.3638 -0.1631 -0.2532
 8555W        W26079  11.568   7.303  13.196  0.2623 -0.1657 -0.3017
 8556W        W26080   6.541  16.403  13.429  0.3774 -0.0676  0.0048
 8557W        W26081   6.351  12.742  16.072  0.3138  0.0843 -0.3386
 8558W        W26082  16.313  16.978  15.980  0.1937 -0.1934 -0.1132
 8559W        W26083   2.486  13.771   1.064 -0.0468 -0.1558 -0.0332
 8560W        W26084   6.657   3.502   1.294 -0.3997 -0.1712 -0.0800
 8561W        W26085   1.830   6.729   3.076 -0.1245 -0.2426  0.0743
 8562W        W26086   6.783   6.100   0.484  0.0782  0.3816 -0.1416
 8563W        W26087   5.903   9.523   2.944  0.2168 -0.1370  0.2811
 8564W        W26088  13.150   6.605   0.880 -0.2661  0.1352 -0.0396
 8565W        W26089   7.240   1.586  15.052 -0.2840  0.0004 -0.3514
 8566W        W26090   5.424  13.490   4.331 -0.2232  0.0239 -0.2453
 8567W        W26091  11.253  14.743   0.599 -0.0741 -0.0421 -0.0172
 8568W        W26092  15.553  14.534  14.037 -0.0446  0.1217  0.1627
 8569W        W26093   9.465   1.301   2.476 -0.0703  0.0895  0.4437
 8570W        W26094   2.053   0.875   4.715  0.1304 -0.1512  0.1552
 8571W        W26095   6.777   4.942  15.051 -0.1761 -0.2146  0.1306
 8572W        W26096  15.444   5.605  15.659  0.2796  0.1626 -0.2856
 8573W        W26097  13.189  14.362  13.317  0.3940  0.2889 -0.0613
 8574W        W26098  13.159   9.834   3.435  0.0062 -0.0366 -0.1729
 8575W        W26099   2.507  15.551   1.268  0.1366 -0.1798  0.0602
 8576W        W26100   1.458   9.522  12.622 -0.3761  0.0313 -0.0576
 8577W        W26101   0.026  15.437   5.317  0.2923 -0.0459 -0.1659
 8578W        W26102   6.106  16.073   1.781 -0.1329 -0.1028  0.3366
 8579W        W26103  14.568  15.714  12.730 -0.1015  0.1205 -0.1233
 8580W        W26104  13.618  16.126  13.784  0.2112 -0.0447  0.0378
 8581W        W26105   9.591   0.502   4.963 -0.2113 -0.0887  0.0069
 8582W        W26106  13.215  12.494  16.712  0.0246  0.0302  0.0898
 8583W        W26107  14.621  16.602   1.544  0.0153  0.2022 -0.0079
 8584W        W26108   5.614   7.483   0.143  0.0793 -0.3271  0.0122
 8585W        W26109   1.113  13.520  12.567 -0.4010  0.1471  0.1057
 8586W        W26110   2.132  12.738  15.841 -0.3564  0.0793  0.0570
 8587W        W26111  13.824   0.733   0.690  0.2768 -0.1721  0.1763
 8588W        W26112  13.648   1.311   2.177 -0.1603 -0.0181  0.1585
 8589W        W26113   2.061  12.787   1.650 -0.0609 -0.0344 -0.2597
 8590W        W26114   8.774  16.342   1.388 -0.2607  0.1305 -0.1099
 8591W        W26115   7.366   5.708   5.760  0.0836  0.0282  0.0618
 8592W        W26116  14.967   9.407   4.590 -0.2636  0.0418 -0.0083
 8593W        W26117   6.576   8.031   1.773 -0.0384 -0.1683  0.0455
 8594W        W26118   0.289  14.669  15.405 -0.0572 -0.0590 -0.0588
 8595W        W26119   3.583   1.082  15.466  0.3091 -0.4779 -0.1369
 8596W        W26120   8.939  13.516   1.468 -0.0756  0.1364 -0.1073
 8597W        W26121  12.213  16.845  16.622 -0.0507  0.0993  0.2785
 8598W        W26122  16.553   7.890  17.655 -0.0886  0.1201 -0.2183
 8599W        W26123   2.700   1.024   0.729  0.0212  0.0368 -0.0548
 8600W        W26124  15.525  16.865  15.565 -0.0026 -0.1351 -0.1158
 8601W        W26125   8.859  15.093   3.708 -0.2415 -0.0247 -0.1331
 8602W        W26126   5.088  10.783  16.597 -0.2967  0.1280 -0.1723
 8603W        W26127   7.696   9.482  12.659 -0.0594  0.1384 -0.0134
 8604W        W26128   4.292   5.234   5.267 -0.1890  0.0558 -0.0254
 8605W        W26129   8.026   9.735  16.049  0.1098 -0.1365 -0.3060
 8606W        W26130   3.367  16.570  13.616 -0.1722  0.1599  0.1787
 8607W        W26131   3.472  16.098  13.754 -0.3639  0.1813 -0.3406
 8608W        W26132  12.608   9.045   1.177 -0.2166 -0.0603  0.1965
 8609W        W26133   8.775   5.181   4.755  0.3895 -0.0912 -0.2305
 8610W        W26134  16.306  13.727   4.338  0.0827  0.3702  0.1347
 8611W        W26135  11.008   1.931   2.215  0.1668  0.2319 -0.1056
 8612W        W26136   0.435   0.241   4.562 -0.0191  0.0880 -0.2267
 8613W        W26137   6.345  16.439  12.181 -0.0918 -0.0006 -0.0261
 8614W        W26138   7.837   2.816   2.082 -0.0748 -0.1241  0.2450
 8615W        W26139  16.170   2.975  13.096 -0.4608 -0.1263 -0.2399
 8616W        W26140   7.102   7.057  14.414 -0.2446  0.3133  0.0507
 8617W        W26141  13.656   5.720   3.978 -0.2292  0.0584 -0.1287
 8618W        W26142  13.129  15.976  13.905  0.1271  0.1243 -0.0524
 8619W        W26143   6.169   9.480   4.726  0.2265  0.0268  0.1264
 8620W        W26144   8.758  12.291  13.254  0.4016 -0.0292  0.4274
 8621W        W26145   1.252   0.919  12.652 -0.1472 -0.0938  0.1540
 8622W        W26146   5.812  16.064   0.982  0.2332  0.0877  0.1776
 8623W        W26147  10.216  16.536   0.519  0.2796 -0.1468 -0.2088
 8624W        W26148   6.614   2.911  13.315 -0.1759  0.2622  0.3341
 8625W        W26149   2.324  17.126  15.220  0.0225  0.0900  0.2862
 8626W        W26150   8.065   4.200   0.388  0.0913  0.0043 -0.0463
 8627W        W26151   4.512  14.925  15.048  0.0032  0.0636 -0.2208
 8628W        W26152   7.514  11.680  16.462 -0.0962 -0.0365 -0.0139
 8629W        W26153   7.928  16.063   1.592 -0.0063  0.4521  0.0344
 8630W        W26154  16.785  11.524  17.010  0.0757  0.3101 -0.0946
 8631W        W26155   3.241   3.840  13.159  0.3104 -0.1493  0.0160
 8632W        W26156  13.805   9.907   2.579 -0.1381  0.0961 -0.1192
 8633W        W26157  17.052   6.263  16.284  0.2160 -0.3766 -0.0563
 8634W        W26158   0.956  12.580  13.110 -0.3364 -0.0410  0.0919
 8635W        W26159  10.901  16.850  14.910  0.3303  0.1849  0.3921
 8636W        W26160  16.231   3.261  16.022 -0.0522 -0.4303 -0.1666
 8637W        W26161  14.489  10.949  17.055  0.2960 -0.0148 -0.0831
 8638W        W26162   8.096   2.558   5.226  0.1489 -0.2326 -0.0898
 8639W        W26163  10.197   7.652   5.159 -0.0957 -0.3594  0.3600
 8640W        W26164  11.098   8.537  14.290 -0.1460 -0.1098 -0.1255
 8641W        W26165   6.076   7.350  16.907  0.1555 -0.1164 -0.0996
 8642W        W26166   8.592  11.642   1.790 -0.2746 -0.0607 -0.2347
 8643W        W26167   3.468  13.407   3.043  0.2722 -0.1335 -0.1871
 8644W        W26168  12.134  14.674  16.069  0.1624 -0.3025 -0.1432
 8645W        W26169   9.870   7.485   3.920  0.1268 -0.1131  0.1424
 8646W        W26170  11.745   0.227   0.424 -0.2415  0.1124 -0.1490
 8647W        W26171  16.334  12.957  17.226 -0.0863 -0.1717 -0.2327
 8648W        W26172  11.301  11.826  13.377  0.1592 -0.0188  0.2530
 8649W        W26173  16.147  15.984  15.052  0.1456 -0.1577 -0.2351
 8650W        W26174  16.939  13.647   2.531 -0.0618 -0.1785  0.1422
 8651W        W26175   5.492   6.693  12.271 -0.3130  0.0073  0.4603
 8652W        W26176  15.166  14.635   2.463 -0.0543 -0.0311 -0.0766
 8653W        W26177   3.564   1.033   1.947  0.1248 -0.2082  0.0924
 8654W        W26178  11.083   6.566  12.962  0.0343 -0.0256  0.3396
 8655W        W26179   5.696  10.316   4.826 -0.3386 -0.1054  0.1000
 8656W        W26180  10.745   4.813   6.780  0.3191 -0.1965  0.2603
 8657W        W26181   1.821   7.079  12.865  0.3660 -0.0033 -0.0555
 8658W        W26182   0.838   4.504   5.415  0.2957  0.2701 -0.2684
 8659W        W26183   8.949  11.796   6.004 -0.2908 -0.0941  0.0879
 8660W        W26184  13.158   6.304  12.843  0.0292  0.1299 -0.0137
 8661W        W26185   2.082   2.659   5.762 -0.4634  0.0106  0.1422
 8662W        W26186   1.898   9.375  16.536 -0.0364  0.1281 -0.1377
 8663W        W26187  16.131  13.018   1.003  0.2921 -0.0279  0.0787
 8664W        W26188   6.179   9.220  16.453 -0.0300  0.0196  0.1007
 8665W        W26189   9.595  14.762   1.731  0.0982 -0.0576  0.4388
 8666W        W26190  10.895  15.039  15.251  0.0846 -0.2414 -0.0207
 8667W        W26191  15.002   8.458   3.536 -0.0669  0.0444  0.3480
 8668W        W26192  13.454  14.304  14.396 -0.1512  0.3218  0.1497
 8669W        W26193   9.953  16.405  13.355  0.0737 -0.0779 -0.0731
 8670W        W26194   0.596  16.738   0.895  0.0576  0.2234  0.0701
 8671W        W26195   9.595  15.217   0.601 -0.0380 -0.1899 -0.3008
 8672W        W26196  15.676   1.077   2.448  0.2977  0.0825  0.3263
 8673W        W26197   2.812   0.141  15.406  0.0541  0.0684  0.0070
 8674W        W26198   1.171   5.149   3.461 -0.0577 -0.1075  0.0503
 8675W        W26199   3.940   4.917   4.846 -0.1265  0.1900  0.1222
 8676W        W26200   8.180   6.391   0.194  0.1507 -0.4907 -0.2107
 8677W        W26201  16.955  13.384  12.528  0.2018 -0.0580 -0.3770
 8678W        W26202   0.725  16.437  16.324  0.1159 -0.1270  0.5857
 8679W        W26203   0.728   5.425   3.568 -0.2474 -0.1493 -0.1612
 8680W        W26204   1.724   0.128   0.473  0.1348  0.2215  0.2650
 8681W        W26205   9.755  11.645  13.324  0.2559 -0.0226 -0.6000
 8682W        W26206   6.159  13.826   2.205  0.0003 -0.1868 -0.0260
 8683W        W26207   4.391   2.432   2.507 -0.0081  0.2973 -0.1315
 8684W        W26208   5.128  12.241   3.024 -0.1736  0.0895 -0.0279
 8685W        W26209   9.688   4.687   5.422  0.1522  0.0920  0.2869
 8686W        W26210   5.943   1.107   6.681  0.1369  0.1605  0.0571
 8687W        W26211  16.534   5.624   4.320 -0.4180  0.1494  0.1071
 8688W        W26212  14.797  12.706   0.764  0.3158  0.2957 -0.0757
 8689W        W26213  11.151  16.660   2.479 -0.0709  0.0243 -0.1647
 8690W        W26214   8.639   3.839   1.634  0.2666 -0.1459  0.2264
 8691W        W26215   0.297  11.520  15.341  0.2201 -0.1442  0.3105
 8692W        W26216   9.311  14.039  13.625  0.0383  0.2129  0.0012
 8693W        W26217   9.103   5.639  15.056  0.2202  0.2580 -0.0856
 8694W        W26218  13.585  11.247  14.693 -0.0373 -0.2123 -0.3167
 8695W        W26219  16.799  10.397   3.625  0.1137  0.0321 -0.0153
 8696W        W26220   9.738  12.514   4.319 -0.0336  0.2867 -0.1401
 8697W        W26221   4.140   8.655  12.542 -0.3001 -0.0158 -0.0858
 8698W        W26222   5.783   1.780   3.504  0.1875 -0.0003 -0.3058
 8699W        W26223   7.810   7.901  13.652 -0.0153 -0.0196 -0.2600
 8700W        W26224   6.997  10.041   1.993 -0.0725  0.0523 -0.1675
 8701W        W26225  17.226  12.259  13.160  0.0017 -0.0291  0.0323
 8702W        W26226   1.737   4.783   3.757  0.0142 -0.2442 -0.1403
 8703W        W26227  13.147   3.108  11.352 -0.0174  0.0639 -0.0456
 8704W        W26228  10.356   5.783   0.273  0.1541 -0.2291  0.0377
 8705W        W26229   4.450  15.281   3.414  0.0254 -0.5265 -0.0132
 8706W        W26230   9.396   5.261  12.495 -0.2166  0.0143 -0.2742
 8707W        W26231   6.263  12.457   4.274 -0.0777  0.0933  0.1349
 8708W        W26232   9.170   1.866   0.686  0.1004 -0.1051  0.1502
 8709W        W26233   9.612  13.420  16.376 -0.0533  0.1156 -0.0395
 8710W        W26234   2.315  12.220  14.951  0.0692  0.1763 -0.1232
 8711W        W26235   3.986  16.722  17.215 -0.0665  0.3902 -0.0809
 8712W        W26236   8.407  16.817  16.754 -0.2594  0.0563 -0.2275
 8713W        W26237  13.516   4.832  11.854  0.2296  0.1149  0.2016
 8714W        W26238   7.511  16.951   4.300  0.1295  0.3665  0.2789
 8715W        W26239   2.682  15.334   1.957 -0.0702 -0.0474  0.0554
 8716W        W26240  15.512  12.843   0.031  0.2641 -0.0184  0.0610
 8717W        W26241   3.772   3.587   5.712 -0.0763 -0.2066 -0.0530
 8718W        W26242  16.338  16.430   4.850  0.1867 -0.0390 -0.1672
 8719W        W26243   2.719  13.159  14.777 -0.1080 -0.1760  0.0201
 8720W        W26244   4.487  15.181   1.798  0.0880  0.2768 -0.0015
 8721W        W26245  11.128   2.699  14.202 -0.0036  0.0063 -0.2139
 8722W        W26246   4.244   4.022   3.292 -0.0328 -0.3413 -0.3811
 8723W        W26247  12.858   4.738   0.704  0.1474  0.0267 -0.1809
 8724W        W26248   5.865   0.608   2.635  0.1358  0.3092  0.1406
 8725W        W26249  14.276  10.643  17.399  0.0742 -0.2291 -0.0214
 8726W        W26250  16.749   8.095  13.743  0.0674 -0.3546 -0.1584
 8727W        W26251   2.333   0.270  13.236 -0.0001 -0.0550  0.0656
 8728W        W26252  10.989  12.815  13.750 -0.0050  0.0066  0.0611
 8729W        W26253   2.736   1.750  11.357  0.1261 -0.0765 -0.0522
 8730W        W26254  15.919   1.704  12.346  0.2300  0.2273 -0.4425
 8731W        W26255   3.397   2.620   0.774 -0.0460 -0.2382  0.2184
 8732W        W26256   5.848  10.431  12.482  0.1024  0.0113 -0.0605
 8733W        W26257   7.639   5.161  14.653 -0.2713 -0.0156 -0.0331
 8734W        W26258  14.424   4.919  13.271 -0.3096  0.0952  0.0679
 8735W        W26259  11.312   7.177  15.665  0.1519  0.4787 -0.1226
 8736W        W26260   9.309   4.379   4.670  0.0153 -0.2531 -0.1558
 8737W        W26261   8.985   4.078   4.439  0.3163  0.2418 -0.2674
 8738W        W26262   4.376  16.187  16.421  0.0208  0.0695 -0.2516
 8739W        W26263   1.651  14.853   2.065 -0.2137 -0.0410  0.0175
 8740W        W26264  10.150  12.813   4.365 -0.1076 -0.2169 -0.1507
 8741W        W26265   7.429   7.094   4.777 -0.1185 -0.0819  0.1148
 8742W        W26266   3.909   3.418  13.072  0.0261 -0.0688 -0.1596
 8743W        W26267   4.681   6.902   4.399 -0.0167  0.1475  0.0161
 8744W        W26268   5.680   8.535   1.430  0.0494  0.0049  0.0771
 8745W        W26269  14.671   9.855  17.401 -0.4456 -0.0104 -0.0560
 8746W        W26270  14.794  12.590  14.338  0.0523  0.1275 -0.0964
 8747W        W26271   9.182   1.743  15.396  0.0780 -0.0784 -0.2476
 8748W        W26272  15.070   7.501   0.467 -0.0880  0.2149  0.0060
 8749W        W26273   4.783  11.613  14.280  0.0323  0.0569  0.1881
 8750W        W26274   4.720  11.328   3.218  0.1380  0.2572  0.0686
 8751W        W26275  10.789   1.095   3.598  0.0033  0.1199 -0.0094
 8752W        W26276   6.417  14.009   0.169 -0.1705  0.0010 -0.2997
 8753W        W26277   6.229  11.222   4.707  0.2941 -0.3354 -0.0383
 8754W        W26278  12.921   2.757   5.355  0.0173  0.0565  0.2858
 8755W        W26279  14.305   2.933   1.407 -0.0209 -0.0763  0.1211
 8756W        W26280   5.050  15.194  14.084 -0.0530 -0.0933  0.1375
 8757W        W26281   4.397   0.092  16.747  0.3831  0.0197 -0.2020
 8758W        W26282  13.551   0.207  14.314 -0.0358  0.2324  0.1571
 8759W        W26283  14.522  10.139  14.101 -0.1133  0.0377 -0.0673
 8760W        W26284   4.466   0.521   0.071 -0.1224 -0.1044 -0.0413
 8761W        W26285   8.679   7.722   4.323  0.2397  0.3930 -0.2245
 8762W        W26286   4.996   2.886  17.610  0.0687 -0.1232  0.0643
 8763W        W26287  15.186  10.748   3.462  0.2371 -0.2547  0.2599
 8764W        W26288  13.169   6.753  14.973 -0.0210  0.1021  0.1475
 8765W        W26289   5.380   3.198  16.146 -0.2329  0.1418 -0.2503
 8766W        W26290   8.164   5.427   1.694 -0.2425 -0.0819  0.5550
 8767W        W26291  15.257   6.647  11.881  0.2031 -0.1870  0.1446
 8768W        W26292  16.878   8.346  14.800  0.0822  0.1036  0.1927
 8769W        W26293  14.569  12.704  13.457  0.1056  0.2306 -0.0915
 8770W        W26294   9.563  14.621  14.033  0.3170 -0.2253 -0.1022
 8771W        W26295  16.593   7.833  12.155  0.0125 -0.0490 -0.0040
 8772W        W26296   4.005  10.549   4.185 -0.0677  0.0716  0.0172
 8773W        W26297   0.848   9.374   1.677 -0.1224 -0.1866 -0.0547
 8774W        W26298   4.798   0.609   0.643 -0.0929 -0.0769 -0.2295
 8775W        W26299   7.866  12.469   0.570 -0.1994 -0.1102  0.0535
 8776W        W26300   5.476  11.486   5.042  0.0904 -0.1778 -0.0314
 8777W        W26301   5.537   9.786   1.688 -0.1032 -0.2315  0.2469
 8778W        W26302   2.912  10.732  16.467  0.1954  0.0133 -0.0925
 8779W        W26303   2.047  12.312   2.612  0.2676 -0.1577 -0.0709
 8780W        W26304  10.901  12.541  15.227 -0.0683  0.1238 -0.0668
 8781W        W26305   7.541  14.318  12.988  0.1264 -0.0072  0.2325
 8782W        W26306  17.239   5.705  12.882 -0.1589 -0.0608  0.1485
 8783W        W26307   7.190  10.698  16.826 -0.2198  0.0516  0.2510
 8784W        W26308   3.451   1.943   0.835  0.1510  0.2767 -0.0795
 8785W        W26309  11.127  10.872  11.833  0.0202  0.0566 -0.1600
 8786W        W26310   1.217   8.542  13.677 -0.0632  0.1432  0.0792
 8787W        W26311   0.269  15.065   5.533 -0.2568 -0.0040 -0.0857
 8788W        W26312   3.553   3.437  14.448  0.0030  0.0040 -0.0324
 8789W        W26313  15.694   6.763  16.480 -0.1748  0.3112  0.0180
 8790W        W26314   9.092  12.393  16.403 -0.2571 -0.0668 -0.1434
 8791W        W26315  10.962   4.341  14.750 -0.0061 -0.3225 -0.1243
 8792W        W26316   8.422  10.035  12.950  0.2217 -0.0659  0.1437
 8793W        W26317   5.510   4.337  12.962 -0.0347 -0.0143  0.1456
 8794W        W26318  14.065   7.483  13.536  0.4835  0.1271 -0.0813
 8795W        W26319   7.831   6.729   1.702  0.1350 -0.1003 -0.1453
 8796W        W26320   5.234  12.983  16.867  0.2894 -0.0137  0.0810
 8797W        W26321  12.726  12.163  12.458 -0.1215 -0.1061  0.0222
 8798W        W26322   0.198  11.069  12.004 -0.1335 -0.2835  0.2765
 8799W        W26323  13.005   2.128  13.909  0.0759  0.1753 -0.1765
 8800W        W26324  11.809  17.002   3.889  0.1362  0.1211 -0.1397
 8801W        W26325   0.365   4.394   2.657  0.0621 -0.1206 -0.0428
 8802W        W26326   7.740  11.980  13.128 -0.0006 -0.0524 -0.1144
 8803W        W26327   3.184  14.330   0.248 -0.0900  0.0622  0.0263
 8804W        W26328  15.634  12.182   1.147 -0.1573 -0.2205  0.2176
 8805W        W26329  12.600  10.515   4.777  0.0261 -0.1887  0.1987
 8806W        W26330   2.843   8.308   2.282  0.0348  0.2043 -0.3956
 8807W        W26331   3.139   9.956   0.478 -0.2368  0.0053 -0.1103
 8808W        W26332   9.332   1.514   2.910 -0.0384 -0.1932  0.1409
 8809W        W26333  11.983  12.218   1.685 -0.1547 -0.1896 -0.1420
 8810W        W26334  13.704   9.496  17.492 -0.2322  0.0748  0.0919
 8811W        W26335  10.447   0.964   5.325  0.0297  0.0159 -0.1426
 8812W        W26336  11.515  17.153  13.569  0.0353 -0.2102 -0.2757
 8813W        W26337  10.702   6.321  15.870  0.0435 -0.3168  0.2350
 8814W        W26338  10.017   4.669  15.899  0.0029  0.0724  0.0721
 8815W        W26339   7.856   4.784  12.506  0.0446 -0.0309 -0.0978
 8816W        W26340   9.037   1.448  13.342 -0.0453  0.0927  0.3225
 8817W        W26341   4.876  14.834   1.619 -0.1973  0.0843 -0.2120
 8818W        W26342   7.103  11.739   3.571  0.0024  0.0487 -0.4345
 8819W        W26343  11.666  15.304   3.705  0.3197 -0.0856 -0.1684
 8820W        W26344   2.617   9.921  14.846 -0.0360  0.1092 -0.2558
 8821W        W26345  12.155   7.401  15.437 -0.2208 -0.0143 -0.1968
 8822W        W26346   2.237  15.543  16.344 -0.1580  0.0906 -0.2109
 8823W        W26347   7.415   6.735   0.398 -0.0900 -0.0393  0.1675
 8824W        W26348   9.923   1.555   6.032 -0.0626  0.0942 -0.1166
 8825W        W26349  10.498   9.643   0.513  0.0077 -0.2840 -0.2270
 8826W        W26350   1.129  10.858   4.860 -0.1673  0.0290 -0.1161
 8827W        W26351  10.683   4.019  16.946  0.0907  0.1818  0.0107
 8828W        W26352   1.606  13.406  17.194  0.0486  0.2019  0.0295
 8829W        W26353   1.202  14.419   1.621  0.0684  0.3349  0.2777
 8830W        W26354   2.512   1.318  11.498  0.5959 -0.0280 -0.3195
 8831W        W26355   6.937   2.013   5.235 -0.2552  0.1219 -0.3659
 8832W        W26356   4.345   2.812   3.467  0.0199 -0.1407 -0.1087
 8833W        W26357  10.412   0.192   3.401  0.1239  0.0757 -0.1030
 8834W        W26358   5.780   0.884   5.344  0.2646 -0.3521 -0.0472
 8835W        W26359   2.465  13.354   5.226  0.2380 -0.0519  0.2792
 8836W        W26360  15.963  15.901   2.619 -0.4573 -0.2630 -0.0127
 8837W        W26361   5.340  12.695   4.146  0.2077  0.2353  0.0362
 8838W        W26362   7.541  14.117  15.609 -0.0140  0.0688 -0.4561
 8839W        W26363   5.924   7.357  12.666 -0.1492 -0.1837 -0.0055
 8840W        W26364  12.404  16.420  11.999 -0.2441  0.0149 -0.0562
 8841W        W26365  14.300   2.784  13.937 -0.2350  0.1500  0.2282
 8842W        W26366   3.497   7.534   1.863  0.2615  0.4234 -0.2410
 8843W        W26367   5.851  10.402   2.739 -0.2226 -0.3106  0.3989
 8844W        W26368   7.815  10.383  13.176  0.0311 -0.2521 -0.0947
 8845W        W26369  10.863  16.403   4.087  0.3237  0.3744 -0.2185
 8846W        W26370  10.302  10.343  11.296  0.1976 -0.0951  0.2000
 8847W        W26371   5.234   9.549   4.715  0.0248  0.3478 -0.1033
 8848W        W26372  16.236  17.135   1.897 -0.0924 -0.0501  0.1572
 8849W        W26373  13.661   0.841   5.060  0.3242 -0.0890 -0.0061
 8850W        W26374  13.047  13.216   5.152 -0.1138  0.0111 -0.1226
 8851W        W26375  14.676   7.625   2.033  0.0068 -0.1296 -0.0928
 8852W        W26376   8.788   3.007   2.348  0.2802  0.2277  0.0166
 8853W        W26377   7.207  14.693  12.228 -0.0029  0.1317  0.1367
 8854W        W26378  10.129   6.997   1.570  0.0378 -0.1075  0.0288
 8855W        W26379  16.643   4.840  12.433  0.3267 -0.0546 -0.0828
 8856W        W26380   9.249  12.301   5.364 -0.2581 -0.1199  0.1960
 8857W        W26381   2.565  13.629  14.682 -0.0807  0.0622 -0.1024
 8858W        W26382   7.947   6.689   5.254 -0.0526  0.0861 -0.2528
 8859W        W26383  12.387   0.054  14.270  0.1444  0.0540  0.0422
 8860W        W26384  12.425   3.586  15.422 -0.0716  0.0277  0.3133
 8861W        W26385   3.266   9.559  14.934  0.0921 -0.1606  0.1073
 8862W        W26386  15.678   2.979  13.348  0.2150 -0.3237  0.0713
 8863W        W26387  12.721   2.329   2.598  0.2247  0.1201 -0.1294
 8864W        W26388  11.678  14.124  14.836 -0.0546 -0.2580 -0.2053
 8865W        W26389  14.837  10.671   0.248  0.0305  0.0657  0.2452
 8866W        W26390   1.171  11.880  14.220 -0.2969  0.1164  0.1487
 8867W        W26391   4.544  17.145  14.582 -0.0592 -0.0078  0.0430
 8868W        W26392  10.820   4.342  16.589 -0.1017 -0.0885 -0.0576
 8869W        W26393  16.548  12.583  14.161 -0.0165  0.1899 -0.1128
 8870W        W26394   6.030  12.803   3.961 -0.2279 -0.4363 -0.0206
 8871W        W26395   6.164   0.382   2.938 -0.1072 -0.3566  0.1876
 8872W        W26396  13.118   8.057  14.548  0.1474  0.2165 -0.1181
 8873W        W26397  14.483   0.288   1.639 -0.2788 -0.0963  0.0969
 8874W        W26398  14.468  16.274   5.453  0.0188 -0.1192 -0.3112
 8875W        W26399  10.608   7.845   1.813  0.0855  0.1943 -0.1120
 8876W        W26400   4.050   6.438   3.963  0.1548  0.0708 -0.3225
 8877W        W26401   5.673  13.022   3.164 -0.2766 -0.2075  0.0102
 8878W        W26402  10.056  10.620  16.783 -0.0778 -0.3538  0.1547
 8879W        W26403   9.806   7.674   2.157 -0.0081 -0.3508 -0.0652
 8880W        W26404  10.085  14.918  15.297  0.1662  0.1546 -0.0978
 8881W        W26405   0.623   0.439  17.423  0.0762  0.2032 -0.1384
 8882W        W26406  12.225   3.307   1.253  0.2932  0.2865  0.1617
 8883W        W26407  14.440   6.493   2.754 -0.1925 -0.0316  0.0683
 8884W        W26408   9.284  13.224  14.772 -0.3191  0.1581  0.2277
 8885W        W26409   6.116   3.906  16.591 -0.3217  0.0472  0.2695
 8886W        W26410  10.609  10.496   4.223  0.0107 -0.0275 -0.3277
 8887W        W26411   2.714   5.444   3.015  0.1131  0.2773 -0.1508
 8888W        W26412   2.653  13.671  16.688 -0.0162  0.0129  0.0296
 8889W        W26413  11.269   0.617  12.987  0.2174 -0.3182  0.1058
 8890W        W26414  16.539   6.995  11.687  0.0122  0.0107 -0.0078
 8891W        W26415   6.164  15.304   4.023  0.0313  0.2162  0.1142
 8892W        W26416   0.981  13.017  12.680  0.2535  0.1678  0.1343
 8893W        W26417   3.627  15.741   4.732  0.0513  0.2934  0.0148
 8894W        W26418   9.637  14.132  13.012 -0.3190 -0.1263  0.0169
 8895W        W26419   9.105  15.494  14.011  0.1356 -0.1539  0.0537
 8896W        W26420   5.672   1.010  13.009 -0.1624 -0.1295  0.1466
 8897W        W26421   4.490  13.296  15.566 -0.1820  0.2859 -0.1265
 8898W        W26422   8.326  16.637  17.254  0.0152 -0.2011  0.2885
 8899W        W26423  12.601   5.217   1.307  0.2709 -0.0380  0.3137
 8900W        W26424   7.481  12.360   2.151 -0.1822 -0.1973 -0.0621
 8901W        W26425   4.443   1.809   0.625 -0.0371  0.2186  0.0833
 8902W        W26426   2.398   3.120   1.514  0.0888 -0.1712  0.2258
 8903W        W26427  11.373  11.311  14.626 -0.1439  0.2485 -0.3293
 8904W        W26428  15.621  16.455   1.721 -0.0052 -0.0283 -0.2141
 8905W        W26429  12.710   8.045  12.133 -0.0132  0.2265  0.0241
 8906W        W26430  11.291  14.319  11.974 -0.0059 -0.2465  0.0404
 8907W        W26431   9.786   3.203   0.852 -0.2695 -0.0104 -0.0959
 8908W        W26432   1.459  13.498   0.028  0.0686  0.2363 -0.0766
 8909W        W26433   5.757   9.842  13.843  0.2197 -0.0890  0.1686
 8910W        W26434   9.252  16.492   3.353  0.1111 -0.2059  0.1481
 8911W        W26435   4.334   9.660  12.337  0.0122  0.0674  0.0176
 8912W        W26436  16.038  14.459  15.018 -0.0561  0.0650 -0.2769
 8913W        W26437   3.598   3.414   2.495  0.1290 -0.2241  0.0124
 8914W        W26438  14.752   8.839  17.549 -0.0274  0.0386 -0.0331
 8915W        W26439  16.747  14.263   5.183 -0.1187 -0.2705 -0.4620
 8916W        W26440  11.093   2.147  13.070  0.2188  0.1373  0.0364
 8917W        W26441   9.738  16.282   4.023  0.1021 -0.0187 -0.0605
 8918W        W26442   9.525   8.363  16.683  0.0874 -0.1703 -0.1467
 8919W        W26443  14.195  12.706   0.039  0.0503  0.3289  0.1816
 8920W        W26444   0.489   0.160   2.935 -0.1513  0.0385  0.2241
 8921W        W26445  14.419  16.330   0.261  0.1299  0.0439 -0.2994
 8922W        W26446   1.523   5.045  13.176  0.0884 -0.0030 -0.2930
 8923W        W26447   7.461  16.620   2.034  0.1925  0.1196  0.0666
 8924W        W26448  14.560   9.972  16.757  0.1226 -0.2556 -0.0096
 8925W        W26449   0.361   8.631   1.528  0.1207  0.1118 -0.1266
 8926W        W26450   3.980   6.172   0.892 -0.0954 -0.2132  0.3130
 8927W        W26451   6.065   7.398   0.457  0.3459  0.1628 -0.3482
 8928W        W26452   4.863   4.975   4.480  0.1384 -0.2627  0.1081
 8929W        W26453  11.420  14.886   3.796  0.2081  0.1407  0.1726
 8930W        W26454   3.776   9.505   1.107 -0.0770  0.0325  0.2168
 8931W        W26455   9.730   4.153  15.169  0.0505 -0.1864  0.2229
 8932W        W26456  13.435   6.458   5.220  0.0929 -0.1301 -0.0208
 8933W        W26457  12.371  10.761  13.668  0.0978 -0.1363 -0.0434
 8934W        W26458  11.740  13.639   2.898  0.0495 -0.2297  0.5192
 8935W        W26459  17.153  12.501   3.839  0.1814  0.0623 -0.1996
 8936W        W26460   1.172   0.513   0.459  0.2218 -0.0941 -0.0106
 8937W        W26461   4.433  10.910   4.746  0.1525 -0.1630  0.3213
 8938W        W26462   6.669  12.650  13.364 -0.1036  0.0120 -0.2097
 8939W        W26463   5.025   2.883   1.214 -0.0896  0.1402  0.0179
 8940W        W26464  12.810  17.156   2.445  0.1440 -0.1414 -0.0507
 8941W        W26465  15.874   1.458  13.265  0.0185 -0.1284  0.0660
 8942W        W26466   0.986  12.783   0.412 -0.1311 -0.0139 -0.0539
 8943W        W26467   8.418   8.120   1.684  0.2490  0.0443  0.3047
 8944W        W26468   7.865   8.550  14.045  0.1702  0.0192 -0.0225
 8945W        W26469  14.678   7.508  14.724  0.2766 -0.3857 -0.0394
 8946W        W26470   3.468   9.323  12.890  0.0169  0.1201  0.0915
 8947W        W26471   6.918   5.881  14.272 -0.1721 -0.0565  0.2832
 8948W        W26472  16.168  12.954   2.746  0.0604  0.0166 -0.0389
 8949W        W26473   7.801  10.821  14.991 -0.1181 -0.1121 -0.0813
 8950W        W26474   2.972  15.415   1.554  0.0216 -0.3139  0.0127
 8951W        W26475  15.129  13.300   0.692 -0.1392  0.1467 -0.0514
 8952W        W26476  10.574  13.130   4.216  0.0378  0.1410  0.1548
 8953W        W26477   0.366   6.857  12.375  0.1300 -0.2354  0.0276
 8954W        W26478  12.418   0.077  16.337  0.2039  0.2644 -0.0489
 8955W        W26479   5.228   0.663   0.417  0.0629 -0.3374  0.1187
 8956W        W26480   7.653   2.424   2.501  0.0384 -0.2433  0.1097
 8957W        W26481  12.261   9.420   4.983  0.0235 -0.0938 -0.0927
 8958W        W26482  13.072   5.962   1.709 -0.1660 -0.0488 -0.2990
 8959W        W26483  11.226   4.816  14.763  0.2664 -0.0555 -0.0085
 8960W        W26484   1.932  11.451   2.703 -0.2215  0.0280 -0.0026
 8961W        W26485   7.016   4.671  14.714  0.3202 -0.1941  0.1111
 8962W        W26486  10.209  17.134  15.669  0.0593  0.2266  0.0306
 8963W        W26487   2.371  15.044   4.633 -0.1468  0.1480  0.1940
 8964W        W26488  15.030   0.950  16.306 -0.1486  0.0626  0.0843
 8965W        W26489  16.651   5.102   3.185 -0.0154 -0.1653 -0.1222
 8966W        W26490  12.250  14.668   0.404 -0.0726 -0.3268  0.3610
 8967W        W26491   2.020   4.850   1.278 -0.0302  0.2784 -0.0358
 8968W        W26492  14.801   7.033  12.630 -0.0393  0.0759  0.0509
 8969W        W26493   3.065  17.088   3.710  0.0844  0.2205 -0.0282
 8970W        W26494   1.766   8.763  17.435  0.0414 -0.1150  0.0120
 8971W        W26495   9.464   0.404  14.256  0.2051 -0.1585  0.0105
 8972W        W26496  11.529  12.359   3.195  0.3536  0.0120  0.2330
 8973W        W26497   3.368   8.617  12.060 -0.1775 -0.0039  0.2516
 8974W        W26498  16.235   1.989   0.568 -0.3975  0.2783  0.2684
 8975W        W26499   6.425   1.585  13.815  0.0019 -0.2432  0.2385
 8976W        W26500   2.269  11.474  17.575  0.1183  0.1146  0.3065
 8977W        W26501   7.913   4.426   5.464  0.0797  0.0162  0.1553
 8978W        W26502  12.793   0.973   2.517 -0.1398  0.1103  0.1784
 8979W        W26503   3.271  14.384  14.548  0.0893 -0.1282 -0.1880
 8980W        W26504   1.604   4.304   4.762  0.0558  0.2004 -0.2396
 8981W        W26505   4.122  10.878   5.216 -0.1181 -0.2857 -0.0223
 8982W        W26506   7.479   1.288   1.772 -0.0580 -0.2272 -0.2840
 8983W        W26507  14.118  10.237  13.882  0.1829  0.2259 -0.2207
 8984W        W26508  12.201   4.962  17.556 -0.0453  0.1329 -0.1979
 8985W        W26509   9.660  16.094   3.528 -0.1368 -0.1943  0.3984
 8986W        W26510   8.862   7.753  16.394 -0.0116 -0.1785  0.1325
 8987W        W26511   4.633   7.931  13.064  0.0326 -0.0499 -0.2646
 8988W        W26512   8.342  14.206  15.115 -0.1584  0.1035  0.0237
 8989W        W26513   6.253  12.257  15.465  0.1404  0.2288  0.0120
 8990W        W26514   0.579   3.425  13.461  0.1530 -0.3231  0.0652
 8991W        W26515   6.046  12.422  16.822 -0.1400  0.0518 -0.2628
 8992W        W26516  13.063   4.601   4.306  0.1250 -0.0243 -0.3020
 8993W        W26517  10.011  10.420   2.114  0.2173 -0.0522 -0.0497
 8994W        W26518  12.261  14.229   2.293  0.0330 -0.0222 -0.1207
 8995W        W26519  11.688   7.697   1.047 -0.2271  0.1944 -0.0357
 8996W        W26520   1.431   0.930   4.412  0.1419 -0.0889  0.0212
 8997W        W26521  13.301   3.737   4.999  0.1016  0.0246 -0.2576
 8998W        W26522  10.055  11.228  12.428 -0.1950 -0.2602 -0.2428
 8999W        W26523   2.122  14.580   3.881  0.3336  0.1760  0.2745
 9000W        W26524  11.303   1.209   1.306 -0.0131 -0.0921  0.2804
 9001W        W26525   1.197   4.162  13.312  0.0631 -0.2997 -0.0803
 9002W        W26526   5.815  12.486  17.268 -0.0380 -0.1616  0.1082
 9003W        W26527  13.073   8.377  11.178 -0.1978 -0.0749 -0.0104
 9004W        W26528  10.549   5.895   3.092  0.1899  0.3757 -0.0779
 9005W        W26529  16.597   0.548  16.618 -0.1877 -0.3137 -0.1590
 9006W        W26530  16.815   3.420  14.230 -0.0225  0.0015 -0.0011
 9007W        W26531   8.287  14.342   2.400 -0.3799 -0.1246 -0.0198
 9008W        W26532  13.033  13.919   1.310  0.0308  0.0678 -0.1050
 9009W        W26533   4.437  16.955  17.066 -0.2799 -0.1152 -0.1182
 9010W        W26534   0.978   5.353   1.444 -0.0011 -0.1515  0.2546
 9011W        W26535  15.167  10.254   4.761  0.0260  0.1788 -0.0308
 9012W        W26536  11.839   2.651   3.678 -0.1075  0.3385 -0.1773
 9013W        W26537  13.775  12.100  12.145 -0.0367  0.0874  0.0260
 9014W        W26538  11.716  16.072   2.416 -0.0386 -0.0941 -0.1327
 9015W        W26539   7.472   9.484   4.237 -0.1995  0.2945 -0.1227
 9016W        W26540   1.029  16.305   1.560 -0.1790  0.2428 -0.1370
 9017W        W26541   2.540   5.507   5.631  0.3301  0.2874 -0.3280
 9018W        W26542   3.563  16.906   4.952 -0.0953  0.1312 -0.0925
 9019W        W26543  12.442  12.392  15.503 -0.4988 -0.2013 -0.0804
 9020W        W26544  14.678   3.221  16.539 -0.2705 -0.2065 -0.0836
 9021W        W26545  13.954   8.752  16.156 -0.3513  0.1068  0.2695
 9022W        W26546   2.260   6.860   5.548 -0.0863  0.1736  0.2031
 9023W        W26547   2.095   6.802   4.906 -0.2548  0.2005  0.1234
 9024W        W26548  13.004   6.342   4.571 -0.1606 -0.1109  0.2396
 9025W        W26549   4.154   6.258  13.907 -0.2303 -0.0444 -0.1128
 9026W        W26550  11.800   1.706   3.835 -0.0805 -0.2127  0.0826
 9027W        W26551  10.017  10.576  13.276  0.0411  0.3958  0.1767
 9028W        W26552   2.522  14.567   4.701  0.3541 -0.2277  0.2096
 9029W        W26553   5.741  16.574  16.050  0.0706  0.2202  0.1619
 9030W        W26554   7.617   5.685   3.292  0.0956  0.1601 -0.1310
 9031W        W26555   7.120  16.432  16.732 -0.3109  0.0219 -0.2062
 9032W        W26556   3.713   8.104   2.518 -0.1036  0.1816 -0.0961
 9033W        W26557  15.637  10.860  12.480 -0.0854  0.1166 -0.1503
 9034W        W26558   8.896  10.151  12.834 -0.2741  0.0198 -0.0924
 9035W        W26559   6.838   0.249   1.119  0.2613  0.4623  0.0173
 9036W        W26560   8.638   9.004   4.388  0.0417 -0.2359 -0.3020
 9037W        W26561   2.820   1.477  11.890 -0.1470 -0.0480  0.2425
 9038W        W26562  16.229  12.103  13.488  0.0952  0.1248  0.0660
 9039W        W26563   9.459   2.236   0.331  0.1758 -0.1274 -0.2227
 9040W        W26564  13.789  17.119  13.460 -0.1415 -0.2589 -0.2697
 9041W        W26565   1.138   4.951  12.149 -0.3603  0.2624 -0.0909
 9042W        W26566   5.569   7.168  12.314  0.3260  0.0648 -0.0509
 9043W        W26567   7.839   5.770   1.804 -0.1015  0.1432  0.1590
 9044W        W26568  15.847   4.132  16.199 -0.1436  0.1244  0.0128
 9045W        W26569   8.958   0.678  16.198 -0.0739  0.3071  0.1313
 9046W        W26570  14.552  10.749  15.449  0.2544 -0.0390  0.1580
 9047W        W26571   6.051   3.612   2.104  0.2040  0.2247  0.2200
 9048W        W26572   1.282   1.037   3.618  0.1305 -0.0241  0.1574
 9049W        W26573  11.351  12.842   1.722 -0.1422  0.1363  0.0135
 9050W        W26574   3.544   9.613  12.340 -0.1011  0.3595  0.4329
 9051W        W26575  14.464   4.104   2.070 -0.2373 -0.4947 -0.2075
 9052W        W26576   7.410   1.050  16.720 -0.3106  0.2364 -0.1328
 9053W        W26577   4.459  15.155  16.040 -0.0805  0.1084  0.1227
 9054W        W26578   1.090  16.219   4.964  0.1960  0.0357  0.0789
 9055W        W26579   6.493   6.979   2.852  0.0437 -0.3111 -0.0176
 9056W        W26580   4.815   2.359   5.216 -0.1942  0.1495  0.0943
 9057W        W26581  14.282  16.862  14.943  0.1934 -0.0623 -0.1489
 9058W        W26582   1.410   2.076  12.751 -0.3023 -0.0877 -0.1963
 9059W        W26583  10.410   8.526  16.483  0.0438 -0.1001 -0.0862
 9060W        W26584  11.643   6.206   1.916 -0.1311 -0.4548 -0.0737
 9061W        W26585   2.894   0.228  12.404  0.3786  0.2692  0.1810
 9062W        W26586   7.482   7.859   1.851  0.0413 -0.1082 -0.1374
 9063W        W26587  14.120   3.572   6.078 -0.0677  0.2315  0.0868
 9064W        W26588   3.572   8.828   4.602 -0.0422 -0.4033 -0.1385
 9065W        W26589  15.474  15.424   5.125 -0.2274 -0.2036  0.0282
 9066W        W26590   8.155   8.772   1.575 -0.0244  0.0378  0.5055
 9067W        W26591   9.903  14.402  17.359 -0.3369 -0.0968  0.1334
 9068W        W26592   4.576   4.967   3.041 -0.4014  0.1438  0.0941
 9069W        W26593   7.152  12.433   6.718 -0.0976 -0.0266 -0.3613
 9070W        W26594   9.408   4.627   2.098 -0.0533  0.0422 -0.1477
 9071W        W26595  13.846   4.759   4.002 -0.0398 -0.0313  0.0925
 9072W        W26596   6.914   9.415   0.523  0.3148  0.1353  0.1129
 9073W        W26597   6.369   1.299   3.756 -0.1056 -0.2860  0.1910
 9074W        W26598  16.686  10.605  13.319  0.2582 -0.1442 -0.1363
 9075W        W26599   3.882  11.396  13.662  0.0894  0.1411 -0.0862
 9076W        W26600  13.013  16.608   4.864  0.0333 -0.0892  0.0263
 9077W        W26601  15.732  11.599   0.120  0.0830  0.0007 -0.1572
 9078W        W26602  15.824  16.844  16.834 -0.0035 -0.1502 -0.2697
 9079W        W26603   8.210   8.699  17.450  0.2481 -0.0021 -0.0600
 9080W        W26604  14.760  15.385   3.610  0.0863 -0.1199  0.2827
 9081W        W26605   4.220  14.159  13.275  0.1386  0.1594  0.2927
 9082W        W26606  11.911  12.128  14.168 -0.0002 -0.3714 -0.0320
 9083W        W26607  16.246   2.509  13.116  0.1276  0.1814 -0.1877
 9084W        W26608   0.890   8.730   3.254  0.0503  0.0464 -0.0204
 9085W        W26609  15.281  15.684  12.581 -0.2852  0.0090 -0.2571
 9086W        W26610   7.909   9.472   4.877 -0.1418  0.0955  0.2608
 9087W        W26611  16.094   7.540  16.403  0.0081 -0.1405  0.2495
 9088W        W26612   5.073   9.204  12.700 -0.1000 -0.3116 -0.1475
 9089W        W26613  16.044  14.875   6.447 -0.1361 -0.1939 -0.2505
 9090W        W26614   0.708   3.322   3.677 -0.3264 -0.3468  0.1650
 9091W        W26615   1.434   6.462   0.174 -0.0695  0.0347  0.2515
 9092W        W26616   9.569  16.248  13.658  0.1115  0.0708 -0.1802
 9093W        W26617  16.467  14.649  16.453  0.0733  0.2092 -0.2674
 9094W        W26618  15.889   2.743   0.172 -0.3913  0.4449 -0.1689
 9095W        W26619  11.511  12.819  17.047  0.4046 -0.0171  0.0228
 9096W        W26620  16.435  11.520  16.683 -0.0066  0.2970 -0.3964
 9097W        W26621   1.250  11.414  14.463 -0.2958 -0.2415  0.0618
 9098W        W26622   1.971  12.023  13.208 -0.3323 -0.0961 -0.3323
 9099W        W26623  16.608  11.292  13.251 -0.1487 -0.1290  0.2462
 9100W        W26624  11.313  13.063   0.374 -0.0607 -0.0408  0.1711
 9101W        W26625  15.914   7.994  16.086  0.0913 -0.2585  0.0974
 9102W        W26626  11.030  14.195  15.542  0.0511  0.2163  0.0949
 9103W        W26627  12.197  15.561   0.305  0.2571 -0.0044  0.0435
 9104W        W26628  13.165  10.873  17.394 -0.0821 -0.1909  0.0136
 9105W        W26629  10.383   3.398   4.868 -0.0493  0.2816  0.0394
 9106W        W26630   7.796  10.789  13.593  0.0378  0.0318  0.0555
 9107W        W26631   3.095  15.065  16.571 -0.0356 -0.1817 -0.2143
 9108W        W26632   3.288   8.843  14.643 -0.0409 -0.2785  0.2519
 9109W        W26633  12.883  12.615   1.400  0.1898  0.0160  0.0114
 9110W        W26634   3.227   7.642  13.077 -0.0749 -0.3089 -0.2541
 9111W        W26635   0.966   5.943  16.029  0.0344  0.2512  0.1079
 9112W        W26636   4.302   4.177   2.100 -0.0807  0.0861 -0.0729
 9113W        W26637  12.190   9.399  16.449 -0.0803 -0.0695  0.0712
 9114W        W26638   0.530   2.190   4.249 -0.2127  0.1691  0.1097
 9115W        W26639  11.917  16.676  15.738  0.0534 -0.1131 -0.1294
 9116W        W26640   5.905  12.632   3.512 -0.1846 -0.0030  0.2582
 9117W        W26641   3.316  10.883   2.031 -0.0544  0.0935 -0.0105
 9118W        W26642  15.428   0.990   1.631 -0.3936  0.1762 -0.0484
 9119W        W26643  16.593  13.782  13.134 -0.0669 -0.1078 -0.2101
 9120W        W26644  12.854   1.582  13.866  0.1240 -0.2788  0.1805
 9121W        W26645   6.148  16.180   3.217 -0.2086  0.1236  0.2841
 9122W        W26646  16.564   1.106   5.485 -0.0592  0.0877 -0.0232
 9123W        W26647   6.640  17.072  13.310  0.1073 -0.1686 -0.0418
 9124W        W26648  15.112   9.433   3.345 -0.1999  0.1315 -0.0926
 9125W        W26649  13.329   5.711  12.255  0.1848  0.0752  0.4755
 9126W        W26650   7.879   4.395  14.741 -0.1023  0.1546 -0.1006
 9127W        W26651   4.412  14.878  15.546 -0.0373 -0.1686 -0.2842
 9128W        W26652   7.418   3.493  17.539  0.0455 -0.2373 -0.1617
 9129W        W26653   8.560   4.327  16.960  0.3044  0.3101  0.0879
 9130W        W26654  10.516   6.345   2.716  0.0578 -0.0004 -0.1177
 9131W        W26655   6.385   6.367   0.627 -0.0774  0.1117  0.0523
 9132W        W26656   6.527   6.088   4.517  0.0216 -0.1161  0.0790
 9133W        W26657  10.230  10.237   0.447 -0.0263  0.1434  0.0483
 9134W        W26658   7.452   3.999   1.095  0.0130 -0.1775  0.1795
 9135W        W26659  15.371   7.049   4.593  0.0551  0.1674  0.0208
 9136W        W26660  10.214   6.267  15.988  0.1533  0.1201 -0.0948
 9137W        W26661  15.505  15.280  12.912 -0.1362  0.0153 -0.3690
 9138W        W26662  16.523   1.846   3.622 -0.1267  0.2157  0.0489
 9139W        W26663  13.319   3.778  13.388  0.0065  0.2169 -0.1231
 9140W        W26664   3.213   9.326  17.425 -0.2409  0.1163  0.0532
 9141W        W26665   5.719   1.812  17.578  0.2884 -0.3790  0.0339
 9142W        W26666  12.178   7.757  17.085 -0.0199  0.0544 -0.3099
 9143W        W26667   4.023   6.527  14.337  0.0160 -0.0565  0.1776
 9144W        W26668   2.645   8.369   0.815  0.2293 -0.0284 -0.0124
 9145W        W26669   9.924  15.708   1.258 -0.1122  0.0427  0.2477
 9146W        W26670   1.490   8.550  12.273 -0.1321 -0.1135  0.1853
 9147W        W26671  16.526  11.331  12.411 -0.0224 -0.2062 -0.0980
 9148W        W26672   4.441  17.079  13.385  0.0765 -0.0115 -0.0398
 9149W        W26673  12.932  10.395  15.989 -0.2855  0.0435  0.1295
 9150W        W26674   1.259  11.997  17.274  0.2244  0.0886  0.2725
 9151W        W26675  12.583  13.586   1.015  0.0169  0.3166 -0.1826
 9152W        W26676  11.509   0.905   0.884  0.0533 -0.1396  0.0699
 9153W        W26677  14.683  12.604   0.252  0.0809  0.1119 -0.2490
 9154W        W26678   6.005  10.558   4.000 -0.0214 -0.1192 -0.1777
 9155W        W26679  14.890   1.485  15.223  0.2520 -0.0523 -0.2294
 9156W        W26680   4.853   2.478  14.564  0.0210  0.0522 -0.0790
 9157W        W26681  16.199  16.657   3.097  0.0001  0.2424 -0.0930
 9158W        W26682   0.194   4.302  14.512 -0.3213 -0.2334 -0.2016
 9159W        W26683   1.745  13.155   4.226  0.1063  0.4354  0.3274
 9160W        W26684   3.302  16.691   3.588 -0.1193  0.5826 -0.2575
 9161W        W26685  11.599  15.624   1.059  0.0738 -0.1509 -0.0428
 9162W        W26686  10.874  15.738   2.463 -0.1231 -0.1694  0.1428
 9163W        W26687   6.765  13.133   2.416 -0.1886  0.0453  0.1716
 9164W        W26688   3.237  12.010  14.659 -0.3528 -0.1078  0.1382
 9165W        W26689  11.316  15.012  13.633  0.1882  0.3670 -0.0853
 9166W        W26690  11.589   7.469   0.561 -0.2156  0.3066 -0.0048
 9167W        W26691   0.372   5.063   0.039 -0.0141 -0.0971  0.0188
 9168W        W26692  12.178   3.908   2.389  0.1176 -0.2562 -0.1465
 9169W        W26693  15.637   0.382   2.297  0.0501 -0.0844 -0.1138
 9170W        W26694  15.177  12.048   6.380  0.2323  0.1220  0.3095
 9171W        W26695   3.662  12.656   1.004 -0.0234  0.3875 -0.0207
 9172W        W26696  10.957  12.262   0.487 -0.1809  0.3344 -0.1092
 9173W        W26697   8.148   6.554   3.727 -0.1847 -0.0437  0.2808
 9174W        W26698  13.892  12.477   0.399 -0.2141  0.0905 -0.0808
 9175W        W26699  14.574   1.708   1.285 -0.3136  0.2421  0.0211
 9176W        W26700  13.703   2.479   2.633 -0.1060  0.1180  0.1079
 9177W        W26701  12.469   8.955  15.011 -0.1591 -0.2206 -0.3348
 9178W        W26702   3.522   7.394   0.629  0.2321 -0.1545 -0.1517
 9179W        W26703   8.586  16.261   5.511  0.0827 -0.0602  0.2664
 9180W        W26704  15.243   5.157   4.069 -0.2072  0.4673  0.3015
 9181W        W26705   5.953   4.695   0.882 -0.0131  0.0275  0.0618
 9182W        W26706   5.851   6.641   2.259 -0.0678 -0.0166  0.0717
 9183W        W26707  10.650   1.364   3.170  0.0145 -0.2101 -0.0967
 9184W        W26708   4.718  14.466   0.659 -0.0287  0.0208  0.0036
 9185W        W26709  16.902  11.703  13.944 -0.2907  0.0443  0.0408
 9186W        W26710  17.147   5.705  12.311  0.1617  0.2492  0.1309
 9187W        W26711  11.704  16.857  17.408  0.1423 -0.1759  0.0782
 9188W        W26712   6.678  12.942  12.552  0.1813  0.1555  0.2300
 9189W        W26713   9.713   6.374  12.304  0.1073 -0.2301 -0.0274
 9190W        W26714   6.366   0.225  17.171 -0.1320 -0.1770  0.0803
 9191W        W26715   8.328  10.960  13.830 -0.1870  0.1830  0.2388
 9192W        W26716   2.936   9.081  13.630  0.2642  0.0286  0.0534
 9193W        W26717   2.888  11.919  14.307  0.0671  0.2118 -0.0550
 9194W        W26718   4.279  12.018  16.773 -0.2260  0.1098 -0.1313
 9195W        W26719  15.733   8.531  17.102  0.1702 -0.2230  0.0671
 9196W        W26720  13.347   4.087  15.779  0.1263 -0.0835  0.2539
 9197W        W26721   3.807   3.974   3.008 -0.2672 -0.0311  0.1386
 9198W        W26722   6.448  11.279  17.168  0.1278  0.0765  0.1912
 9199W        W26723   5.148  12.934  16.298  0.1032  0.1692 -0.0137
 9200W        W26724   8.381   8.827   5.538  0.1929  0.0532  0.0135
 9201W        W26725   8.691  16.894   1.388  0.1284 -0.2015  0.2224
 9202W        W26726   3.924  10.093   3.894 -0.1135  0.0161 -0.0705
 9203W        W26727   5.243  10.819   0.544 -0.0531 -0.2215  0.0926
 9204W        W26728  16.796   4.137   2.212 -0.1096 -0.0320 -0.0480
 9205W        W26729  12.299  13.563   5.027  0.0713 -0.3659  0.0940
 9206W        W26730   5.529  13.666   3.820  0.2111  0.2245  0.3585
 9207W        W26731   0.135   2.321   5.108  0.3405  0.0280  0.1397
 9208W        W26732   2.202   9.262   3.448  0.0757  0.1209  0.2324
 9209W        W26733   1.516  12.452  13.102  0.1339  0.1398 -0.0290
 9210W        W26734   3.105   1.483  16.948 -0.1862 -0.0699 -0.4001
 9211W        W26735   0.641  13.704  12.669  0.0489 -0.0933 -0.1744
 9212W        W26736   3.306  15.339  14.095 -0.4226 -0.0011 -0.4752
 9213W        W26737   9.219   7.569   0.299 -0.2114  0.0232 -0.1296
 9214W        W26738  16.140  13.463  13.062  0.0179  0.0706  0.0148
 9215W        W26739  15.905   8.466  13.304  0.2414 -0.3213  0.1455
 9216W        W26740   8.702   4.714  14.534 -0.0157  0.1393 -0.0100
 9217W        W26741  16.334   5.263  12.542  0.0577 -0.3886 -0.1437
 9218W        W26742   9.552   4.546  15.975 -0.0216  0.2585 -0.0030
 9219W        W26743   9.025   7.106  15.271 -0.0050  0.4494 -0.0160
 9220W        W26744   2.329  11.151  14.057 -0.2953  0.0532 -0.2453
 9221W        W26745   3.866  14.217   1.096  0.0361  0.1843  0.0197
 9222W        W26746   7.798   9.839   0.497  0.0228  0.0485  0.2411
 9223W        W26747   8.049   6.010  14.829 -0.3379  0.0429 -0.4967
 9224W        W26748   1.167   1.371   4.374 -0.2500 -0.1313  0.2386
 9225W        W26749   6.696  16.150   1.168  0.2186  0.0813 -0.3989
 9226W        W26750   0.243   7.076   4.098 -0.0401 -0.1805  0.2902
 9227W        W26751  15.584   6.956   0.775  0.1820  0.3609  0.1987
 9228W        W26752  16.923  14.331   3.262  0.2127 -0.1743  0.1418
 9229W        W26753   3.113  11.295   5.536 -0.3376  0.0805  0.2917
 9230W        W26754   4.973  13.135  15.506 -0.0731 -0.2578 -0.1374
 9231W        W26755  14.308   2.814   2.364  0.0983 -0.0421  0.0877
 9232W        W26756   2.152  13.596   3.434  0.0571 -0.2157  0.0310
 9233W        W26757   0.040   5.635  14.674  0.0076  0.1817  0.0214
 9234W        W26758  12.367  12.093   1.241 -0.0523 -0.1118  0.2398
 9235W        W26759   8.909   1.099  14.629  0.1025  0.1660  0.3435
 9236W        W26760   6.533   1.668  17.227  0.1496  0.2313 -0.3210
 9237W        W26761   6.291   7.140  15.183 -0.1944  0.1769 -0.3202
 9238W        W26762   1.229  10.035  12.032  0.3576  0.1086  0.2975
 9239W        W26763   2.618   6.208   3.124 -0.2218 -0.0988 -0.2634
 9240W        W26764   1.816   9.772   0.912  0.2031  0.1287 -0.0961
 9241W        W26765  15.438   6.333  13.553 -0.2053  0.0931 -0.0199
 9242W        W26766  13.489   9.702  12.222  0.0374  0.1850 -0.1506
 9243W        W26767   5.528  10.514   6.396 -0.0273  0.2123 -0.0498
 9244W        W26768  11.851   4.917  17.172  0.0439  0.2351 -0.0398
 9245W        W26769   5.860  12.755  16.165 -0.2301  0.1769 -0.1490
 9246W        W26770  13.742  14.201  16.348  0.0559  0.1617 -0.1470
 9247W        W26771  13.706   7.241   0.614 -0.0435 -0.1964  0.1865
 9248W        W26772   6.002  17.002  14.716 -0.0653 -0.2336 -0.1109
 9249W        W26773   8.452  11.399  13.000  0.1072  0.0597 -0.0187
 9250W        W26774  13.788   1.182   1.546 -0.3647  0.3171  0.1879
 9251W        W26775  16.610  13.723  12.556  0.1288 -0.0073  0.1153
 9252W        W26776   1.015  15.308   0.893 -0.1393 -0.0770  0.0662
 9253W        W26777   0.669  10.523   3.574  0.0470  0.3631 -0.0757
 9254W        W26778  13.128   4.837   2.000  0.0521  0.0049  0.0199
 9255W        W26779  11.650   6.218  15.267  0.0128  0.0757 -0.1182
 9256W        W26780   8.027   5.285  14.326 -0.1441  0.0538 -0.0118
 9257W        W26781   1.144   6.575   2.108 -0.3127  0.1261  0.0378
 9258W        W26782   3.457  16.333  17.058  0.3256  0.0687 -0.2919
 9259W        W26783   5.417  13.169   2.616 -0.4311  0.0199 -0.0473
 9260W        W26784  16.332   5.101   1.227  0.1769 -0.2704 -0.2086
 9261W        W26785   0.660  10.788   5.087 -0.0671  0.0950 -0.0810
 9262W        W26786  12.778  15.230  12.812  0.0706  0.2617 -0.0442
 9263W        W26787   2.218  12.939   4.825  0.1635 -0.0458  0.0522
 9264W        W26788   9.732  13.580   4.503 -0.0937 -0.1565  0.2674
 9265W        W26789  15.529   5.896   5.277 -0.0160 -0.2975 -0.0801
 9266W        W26790  17.113   7.430  15.887 -0.1427  0.0327  0.1792
 9267W        W26791  14.244   6.235   5.307 -0.0549 -0.2565  0.2420
 9268W        W26792  17.147   0.973   0.580 -0.1038  0.0353 -0.2243
 9269W        W26793  14.466  13.632  13.678  0.2221 -0.1031  0.0247
 9270W        W26794   4.652   5.899  13.370 -0.1397  0.1995  0.0855
 9271W        W26795  12.923   8.762  14.308  0.1193 -0.3479 -0.2161
 9272W        W26796   1.659  11.212  16.377  0.2138  0.0198 -0.2360
 9273W        W26797  15.466   1.837   4.343  0.0203 -0.1012 -0.3301
 9274W        W26798   3.085  10.932   5.812 -0.1870  0.1420  0.4287
 9275W        W26799  14.382   7.317  14.246  0.0383  0.0044  0.3383
 9276W        W26800   3.673   0.839  12.505  0.3667  0.0395 -0.1701
 9277W        W26801  11.748  12.524  12.316  0.2739  0.0124  0.3734
 9278W        W26802  10.641   8.760   4.891 -0.4671 -0.0177 -0.0580
 9279W        W26803  14.369   5.668   0.968  0.1583  0.0447  0.2552
 9280W        W26804   0.806   7.027   5.104  0.0461 -0.0833  0.0963
 9281W        W26805   7.981   4.012   3.190  0.2893  0.2849 -0.1453
 9282W        W26806  13.292  16.144   2.180 -0.5026  0.1931 -0.0688
 9283W        W26807   9.788   2.976   5.695 -0.3561  0.0389  0.0796
 9284W        W26808   1.845   4.928   5.566  0.0041 -0.2248  0.0851
 9285W        W26809   6.777  16.651   1.218  0.1856 -0.0610 -0.2170
 9286W        W26810  17.191  16.306  12.103  0.2616  0.1174 -0.0955
 9287W        W26811   8.999  16.950   5.706  0.2109 -0.2371  0.0489
 9288W        W26812   2.449  16.846   2.997  0.3287  0.0084  0.1282
 9289W        W26813  15.858   3.395  13.145 -0.2793  0.0750  0.2180
 9290W        W26814   7.952   1.809  15.781  0.1532  0.1725 -0.0667
 9291W        W26815   7.202  14.893  16.587  0.1596  0.2709  0.0682
 9292W        W26816   5.962  14.884   3.019 -0.2787  0.3680  0.0095
 9293W        W26817  16.384  11.646   5.151 -0.0710 -0.0782  0.0126
 9294W        W26818   6.112  14.423   1.657  0.2228 -0.0240 -0.1362
 9295W        W26819   1.553   5.301  12.154 -0.0742 -0.0525 -0.1609
 9296W        W26820  14.155   4.721  13.749  0.1086 -0.0109  0.0715
 9297W        W26821   2.988   2.806  15.499 -0.0794 -0.1876  0.1940
 9298W        W26822  13.583   9.784   4.220  0.0100  0.0923 -0.3233
 9299W        W26823  17.182   4.096   2.588  0.2609  0.0431  0.0835
 9300W        W26824  15.580  13.515  17.515 -0.0771 -0.2408  0.1025
 9301W        W26825  11.382   5.115   2.804  0.0746 -0.1219  0.0521
 9302W        W26826  13.755  13.538   1.002 -0.3148 -0.2558 -0.0780
 9303W        W26827  15.426   7.707   2.900 -0.2239  0.2019  0.1560
 9304W        W26828   1.387   9.006  14.431 -0.2144  0.0744 -0.1240
 9305W        W26829  15.783   6.294   0.170 -0.0562  0.1617  0.2114
 9306W        W26830  14.844   2.327  13.244 -0.0441  0.1847 -0.0730
 9307W        W26831   2.279   7.437  12.335 -0.1365  0.1093  0.1515
 9308W        W26832  14.468   2.031  16.889 -0.0039  0.2964 -0.4048
 9309W        W26833   7.620  10.386   5.607  0.0259 -0.0183 -0.3670
 9310W        W26834   0.582   8.890  12.687 -0.0402  0.1631 -0.0801
 9311W        W26835   5.486  14.778  12.943 -0.1116 -0.0118 -0.3147
 9312W        W26836  17.062   2.818   5.022  0.1937 -0.0304  0.2294
 9313W        W26837   7.750   5.652  14.715  0.1341 -0.1455  0.3404
 9314W        W26838  13.964  14.590  11.495  0.2778 -0.3531 -0.1388
 9315W        W26839  11.799   4.269   3.177  0.2642 -0.1235 -0.2032
 9316W        W26840  12.573  12.946   1.409  0.0294 -0.0696  0.0105
 9317W        W26841   9.601  12.858  14.700 -0.1485  0.2017  0.2644
 9318W        W26842   3.649  16.622   1.743  0.0425 -0.2223 -0.3479
 9319W        W26843   5.785   5.795   2.647  0.2549 -0.0956  0.3280
 9320W        W26844   0.389   6.926  14.554 -0.1120 -0.2411 -0.3061
 9321W        W26845  16.216  16.729   3.920  0.0016 -0.2050  0.1322
 9322W        W26846   4.019  15.003   1.798 -0.2719 -0.1306 -0.2943
 9323W        W26847   7.876  13.180   1.759 -0.2586  0.2829  0.0983
 9324W        W26848   7.404  10.885  15.270  0.1920  0.2661 -0.0081
 9325W        W26849   1.221   0.462   4.319 -0.0863 -0.0403  0.1354
 9326W        W26850   9.916  14.636   5.252 -0.0284  0.1477  0.2982
 9327W        W26851   0.440  13.366   2.075  0.0167  0.2595 -0.1619
 9328W        W26852   8.068  10.344  14.282 -0.0511 -0.0309  0.2039
 9329W        W26853   8.954   7.880  13.001 -0.1977 -0.3135 -0.0038
 9330W        W26854   2.625   2.023   3.370 -0.0372  0.2624  0.0805
 9331W        W26855   5.016  13.304  14.674  0.1019  0.0934 -0.2687
 9332W        W26856   1.250   6.498   0.638  0.2911 -0.0969  0.2430
 9333W        W26857   4.441  16.945  12.839  0.1336 -0.3823  0.0983
 9334W        W26858   9.397  10.372   0.564  0.0765  0.1027 -0.4599
 9335W        W26859  10.614  13.869   1.864 -0.1259  0.0859 -0.2119
 9336W        W26860   8.713  14.559   2.452 -0.0345 -0.1229  0.1881
 9337W        W26861  10.742   5.931  14.249  0.1839  0.0167  0.1117
 9338W        W26862  13.715   8.861   3.874  0.2776  0.3580 -0.2859
 9339W        W26863   3.394   6.611  16.172 -0.0616  0.0732  0.1474
 9340W        W26864  14.154   2.651  14.454 -0.3144  0.1928  0.0093
 9341W        W26865   4.505   2.153   3.377  0.1399 -0.2619  0.1177
 9342W        W26866  17.105  14.633   0.677 -0.0647 -0.0471 -0.1157
 9343W        W26867   0.981   1.621   1.082  0.0328 -0.1528  0.0237
 9344W        W26868  12.099   5.809  17.064 -0.2475  0.3444  0.0880
 9345W        W26869   3.061   6.350  14.812 -0.1793 -0.0919  0.0915
 9346W        W26870   8.220  12.213  17.106  0.2862  0.1182  0.0349
 9347W        W26871   8.048   3.128  15.343  0.2037  0.0364 -0.0921
 9348W        W26872   3.538   7.290   1.073  0.1249 -0.0480  0.2535
 9349W        W26873  12.006   5.316  12.333 -0.1751  0.0891  0.0387
 9350W        W26874  13.107   3.502   2.022 -0.0279  0.0277  0.0979
 9351W        W26875  10.319   2.144   0.759 -0.1385 -0.3154  0.1688
 9352W        W26876   9.719  13.140  15.112 -0.0323 -0.1211 -0.2213
 9353W        W26877   9.702   7.607  13.259  0.1167  0.1678 -0.1393
 9354W        W26878   4.918  10.771   4.755  0.0437 -0.1833  0.0201
 9355W        W26879  15.336  14.846  14.432  0.0307  0.0346 -0.0009
 9356W        W26880  14.426   0.718  12.714  0.1072 -0.1215  0.0167
 9357W        W26881  13.479  10.008  17.449 -0.2713 -0.3010  0.3171
 9358W        W26882  11.925   8.436   0.548  0.1465  0.1086 -0.1534
 9359W        W26883   6.508  13.172  16.335 -0.4821 -0.2623  0.0943
 9360W        W26884  16.750   4.709  15.726 -0.1748 -0.1346 -0.0229
 9361W        W26885   1.989  16.827   0.617  0.0499 -0.4177 -0.0819
 9362W        W26886   0.861  15.856   0.752  0.0656  0.1750 -0.3822
 9363W        W26887   9.882  15.146  16.873 -0.0950  0.0129 -0.2049
 9364W        W26888   7.331  10.747  16.337  0.2976 -0.0752 -0.3111
 9365W        W26889   9.250   8.673   1.579  0.1650 -0.0878 -0.2178
 9366W        W26890  10.480  15.008   5.308  0.2885  0.1807 -0.0530
 9367W        W26891  16.818   7.865  15.960  0.2725  0.0915  0.1047
 9368W        W26892   9.276  12.321   4.364  0.0351  0.0700 -0.2011
 9369W        W26893   0.821   9.266   4.029  0.1597 -0.0761 -0.2764
 9370W        W26894   2.138  14.663   4.408 -0.2384  0.1747  0.1512
 9371W        W26895   6.945  10.986   3.309  0.1019  0.2232 -0.0874
 9372W        W26896   7.724  15.996   0.934  0.1453 -0.0680  0.2986
 9373W        W26897   3.404   4.612   3.260  0.0837  0.0649  0.0396
 9374W        W26898   9.513   6.642  17.242  0.3108 -0.0045 -0.2638
 9375W        W26899   2.788   4.262   1.205  0.1882  0.0637 -0.1822
 9376W        W26900   6.974  11.505   2.428 -0.0040  0.0179  0.0805
 9377W        W26901  11.907  16.245   0.306  0.1129 -0.3748 -0.1281
 9378W        W26902   3.414   5.014   4.742  0.2208 -0.4322  0.1025
 9379W        W26903  11.742   2.542   3.080  0.1311  0.1782 -0.1843
 9380W        W26904   0.495   2.165  17.112  0.3198 -0.0661 -0.0150
 9381W        W26905   5.756   9.732  17.338 -0.0132 -0.0509 -0.0900
 9382W        W26906  12.217   3.637  13.305 -0.0847 -0.3310 -0.1488
 9383W        W26907   6.702   1.456  16.005  0.3254 -0.3106 -0.0640
 9384W        W26908   0.183  10.294  13.756 -0.2048 -0.2459 -0.1059
 9385W        W26909  10.826  16.882  13.191  0.0794  0.1872  0.0924
 9386W        W26910   3.987  14.104   5.843 -0.0376 -0.0840 -0.1465
 9387W        W26911   9.408  16.577  13.348 -0.0626  0.0982  0.2333
 9388W        W26912  14.500   1.843   5.370 -0.0222 -0.2983 -0.1049
 9389W        W26913   6.791   8.395  14.420  0.1240  0.3627  0.0675
 9390W        W26914   3.620   9.818  13.673 -0.1692  0.1032  0.1394
 9391W        W26915  11.924  16.880   4.381  0.0689  0.1777 -0.0541
 9392W        W26916   0.192   3.913   3.385 -0.2321 -0.2518 -0.0810
 9393W        W26917   1.191  12.298   4.782  0.1837  0.0659 -0.1215
 9394W        W26918  13.432   6.531   3.660  0.1247  0.0118 -0.0138
 9395W        W26919   7.266   2.855  12.682  0.0221 -0.1040  0.0483
 9396W        W26920  13.155  12.076   2.206  0.4088  0.0874 -0.1930
 9397W        W26921   6.251   5.287   4.961 -0.1999 -0.2165 -0.2277
 9398W        W26922   7.871   1.219   4.771 -0.0729 -0.5021  0.3096
 9399W        W26923   2.467  13.848  13.353 -0.0031  0.1328 -0.1440
 9400W        W26924   3.991  12.907   2.561  0.1207  0.0538  0.0368
 9401W        W26925  12.309   9.395   1.784  0.0072 -0.0837  0.0588
 9402W        W26926   8.823   3.162   0.743  0.0370 -0.1393 -0.4657
 9403W        W26927   1.136   6.775  13.528 -0.2557  0.0182 -0.1497
 9404W        W26928   3.480   7.184  12.832 -0.3621  0.0653 -0.0918
 9405W        W26929   8.575  16.503   2.157  0.3748  0.0768  0.1116
 9406W        W26930   5.181  15.287  17.423  0.1342  0.0546  0.0237
 9407W        W26931  16.285   2.243  12.267  0.1141  0.0761 -0.0446
 9408W        W26932   6.458  11.422  16.350 -0.0318 -0.2507  0.2034
 9409W        W26933  16.424   7.129  13.994 -0.0226 -0.0452 -0.0160
 9410W        W26934   3.388   2.961  13.574  0.3407  0.1750  0.1987
 9411W        W26935   5.368   3.529   0.418  0.1514 -0.1640 -0.1900
 9412W        W26936   6.314   4.545  15.554 -0.0193  0.3378  0.0271
 9413W        W26937  11.910   1.452  16.636 -0.0723 -0.2386  0.3639
 9414W        W26938   9.175   2.218   1.504  0.1507 -0.2662  0.1667
 9415W        W26939  13.484   6.043  16.301  0.0934  0.0551  0.1581
 9416W        W26940  12.576  14.385  11.478  0.0670  0.0649  0.1888
 9417W        W26941  14.396  10.815  12.584 -0.2592  0.0554  0.0640
 9418W        W26942  11.185  15.112  17.025 -0.3229  0.2253 -0.3136
 9419W        W26943  16.894  11.610  17.552 -0.0810 -0.0560  0.0999
 9420W        W26944   1.257  10.866   2.953  0.0861  0.0436 -0.1679
 9421W        W26945   9.184  15.444   1.729 -0.1257  0.0472  0.4006
 9422W        W26946   3.300   8.434  14.937  0.0175 -0.0702  0.3168
 9423W        W26947   3.159  11.452  12.932  0.0894  0.1462 -0.0469
 9424W        W26948  14.655  11.349   1.610 -0.0042 -0.4172  0.0920
 9425W        W26949  15.696  10.616  11.422  0.2498  0.2938  0.2871
 9426W        W26950  12.414   9.768  13.381 -0.1553  0.0634  0.0082
 9427W        W26951   2.059   0.996  15.908  0.0869 -0.1893  0.2136
 9428W        W26952  10.309   6.911   5.149 -0.1424  0.1919 -0.2383
 9429W        W26953   0.010   2.321   4.501 -0.2308 -0.0258 -0.0601
 9430W        W26954  15.918  12.905   0.520  0.2799  0.0336 -0.1727
 9431W        W26955  15.893   4.074   0.618  0.0299 -0.1005  0.1977
 9432W        W26956  11.036   8.821  15.804 -0.2795  0.0751  0.0889
 9433W        W26957   3.364  10.445  12.874  0.0873  0.2545 -0.1017
 9434W        W26958   5.473   4.560  16.317 -0.0681 -0.0224 -0.3632
 9435W        W26959  12.178  15.006   5.773  0.2832  0.0286 -0.4959
 9436W        W26960   3.611   8.972   2.270 -0.1159  0.0398 -0.3730
 9437W        W26961  14.020   5.461   3.674 -0.1252  0.0043 -0.1548
 9438W        W26962   0.846   5.881   1.485 -0.0644  0.2777  0.1790
 9439W        W26963   9.999  12.800   0.026 -0.0870 -0.1077 -0.0647
 9440W        W26964  10.495  11.944  15.626 -0.1669 -0.0173  0.1712
 9441W        W26965  13.661   0.916   2.518  0.0121 -0.0065 -0.1993
 9442W        W26966   9.056   2.365  14.139  0.1578 -0.0706  0.1728
 9443W        W26967  12.805  14.887   0.543 -0.1916 -0.3122 -0.1158
 9444W        W26968   7.603   1.733  17.102 -0.0889 -0.0089  0.0804
 9445W        W26969  11.358   4.581  17.194 -0.0239  0.2340  0.0709
 9446W        W26970  11.292   6.608   1.608 -0.0297 -0.0079 -0.0321
 9447W        W26971   1.063  11.725  12.079 -0.2203 -0.0892 -0.0041
 9448W        W26972   3.185   5.629  16.445 -0.0985 -0.0476 -0.3102
 9449W        W26973  11.676  16.632   0.729 -0.0180 -0.2154 -0.0283
 9450W        W26974  16.342  16.417  14.956  0.1279 -0.1409  0.0078
 9451W        W26975   2.652  13.399   5.981  0.0926 -0.1471  0.0100
 9452W        W26976  11.833  13.790  14.377 -0.2109 -0.0170 -0.3303
 9453W        W26977  15.604  12.749   1.986  0.3892  0.2189  0.2022
 9454W        W26978   1.355  14.120   5.341 -0.0818 -0.1833 -0.1909
 9455W        W26979   2.765  13.780   6.256 -0.1103 -0.1473 -0.1799
 9456W        W26980   2.929   1.166   0.008  0.0678 -0.0662  0.0081
 9457W        W26981  13.415   6.996  13.367  0.1269  0.1946 -0.0509
 9458W        W26982  12.054   0.997  14.874 -0.0640  0.1767 -0.1622
 9459W        W26983   3.243   2.407  15.748  0.1540 -0.0837  0.0814
 9460W        W26984   5.338   2.517  14.987 -0.0900  0.0911  0.0465
 9461W        W26985   7.439  12.131   2.671  0.2836  0.0521 -0.0783
 9462W        W26986   8.866  15.032   2.465  0.0837  0.1375 -0.5159
 9463W        W26987  15.526   0.628  15.211 -0.0052  0.0927 -0.1039
 9464W        W26988  14.727   1.408  16.099 -0.0245 -0.0290 -0.0927
 9465W        W26989   3.702   7.437  12.364  0.1015 -0.1978 -0.1380
 9466W        W26990  10.328  10.327   2.820 -0.2064 -0.0646  0.1740
 9467W        W26991   5.908  10.199  14.902  0.1074  0.0131  0.0404
 9468W        W26992  12.929   6.978   4.476 -0.0583 -0.0632  0.1722
 9469W        W26993   6.378  11.410   2.077 -0.3183 -0.1847 -0.0557
 9470W        W26994   6.400   9.395  15.522 -0.0213  0.2813 -0.1569
 9471W        W26995   6.651   2.840  14.701 -0.0891  0.2293 -0.0769
 9472W        W26996   7.797   4.987   5.471 -0.1493 -0.0774 -0.5160
 9473W        W26997  16.250   8.962   4.397  0.1534 -0.0610 -0.1252
 9474W        W26998   1.539   4.731  15.124  0.0645 -0.1087  0.0305
 9475W        W26999   5.560  10.630  16.872  0.2198 -0.2632 -0.2748
 9476W        W27000  11.628   5.143   6.432 -0.1429  0.0541  0.4432
 9477W        W27001   0.932  13.215   4.520  0.3232 -0.1459 -0.1965
 9478W        W27002  16.448   0.445  17.658  0.0739  0.4162 -0.2937
 9479W        W27003   2.478   4.408  16.591  0.4326 -0.2869 -0.2464
 9480W        W27004   2.979   2.736   3.704 -0.0724  0.0873 -0.1468
 9481W        W27005   0.015   9.881   1.443 -0.0268 -0.1739  0.1430
 9482W        W27006   2.436  14.650   5.932 -0.0692  0.0007 -0.0905
 9483W        W27007  10.087  16.376   3.627 -0.2785 -0.1688 -0.0927
 9484W        W27008  11.585   4.605  15.173 -0.1039  0.1349  0.2118
 9485W        W27009   3.071  14.212   5.345 -0.3625 -0.1875  0.3087
 9486W        W27010   9.233   2.670  16.266 -0.0484 -0.2382  0.1361
 9487W        W27011   5.706   4.523  17.478  0.1353  0.0420 -0.1868
 9488W        W27012   2.322   6.733   2.891  0.2153  0.0096  0.2178
 9489W        W27013  10.534   7.512  15.682  0.1880  0.0704  0.1564
 9490W        W27014   5.555   2.176  17.272  0.0681  0.0325 -0.0258
 9491W        W27015   3.620   7.680  15.319 -0.0758  0.0755  0.0492
 9492W        W27016  11.342   1.681   4.724  0.0340 -0.0654 -0.3511
 9493W        W27017  15.249   8.882   0.139  0.1031 -0.0772 -0.3574
 9494W        W27018   8.372   2.993   0.956  0.0333 -0.0788 -0.2089
 9495W        W27019  13.205  13.492   3.612 -0.1712  0.0634 -0.0172
 9496W        W27020  12.318   4.155   1.521  0.0356  0.0153  0.0478
 9497W        W27021  13.119   1.336  14.361 -0.0551 -0.1388  0.0232
 9498W        W27022   7.060   1.020   5.878  0.0708 -0.1924 -0.4943
 9499W        W27023   4.557   6.895  14.384  0.1765 -0.1972  0.0544
 9500W        W27024  11.042  11.349   3.846  0.0817  0.0851  0.0710
 9501W        W27025   9.928  15.137  15.733 -0.1515 -0.2710 -0.2160
 9502W        W27026  11.366   4.551  12.475  0.0916 -0.6149  0.0840
 9503W        W27027  12.448  10.964  16.958 -0.2613 -0.0211 -0.3213
 9504W        W27028  10.454  12.963  16.891 -0.2646 -0.1250  0.1873
 9505W        W27029   2.964   7.531  14.043 -0.2549  0.3046  0.0012
 9506W        W27030  16.381  14.629   1.916 -0.1208 -0.0298  0.2942
 9507W        W27031   6.935  16.514   4.142  0.2388 -0.1889  0.0413
 9508W        W27032   5.530   6.289   3.510  0.0336 -0.1456  0.0788
 9509W        W27033   3.065  12.460   3.576 -0.2341 -0.1258 -0.1274
 9510W        W27034  11.367   7.909   2.979 -0.0551 -0.0615 -0.3066
 9511W        W27035   8.445  14.557   5.473  0.0078  0.1042 -0.0627
 9512W        W27036  10.648  16.230   6.093  0.3808  0.2648  0.1037
 9513W        W27037  14.034   5.384  16.781 -0.1252  0.2014 -0.1668
 9514W        W27038  13.632  14.074  14.984  0.0387 -0.0193  0.0570
 9515W        W27039  10.841  15.273   6.280  0.2947 -0.0060 -0.1232
 9516W        W27040  14.966   7.244   6.005 -0.3599  0.2880  0.1635
 9517W        W27041   5.413  12.075   4.442 -0.0686 -0.1350 -0.5183
 9518W        W27042  10.840  15.203  13.643  0.2033 -0.2597 -0.0984
 9519W        W27043   7.071   9.014   5.469 -0.1832  0.1451  0.2434
 9520W        W27044  13.366   2.801  14.975 -0.0197 -0.1139 -0.0718
 9521W        W27045   9.466  12.755  17.288  0.2028 -0.2036 -0.0141
 9522W        W27046   8.182  13.047   2.765  0.1985 -0.0962  0.1191
 9523W        W27047   2.483   9.148   0.506 -0.0391 -0.1595 -0.0369
 9524W        W27048   9.362   6.494   2.420 -0.2083  0.2623  0.0685
 9525W        W27049  11.529  16.390   1.158  0.1885 -0.1457 -0.2879
 9526W        W27050   6.575   6.191  15.499  0.0443 -0.1113  0.1427
 9527W        W27051   1.134  10.097  17.275  0.1833 -0.2615  0.2578
 9528W        W27052   3.830   6.817  15.193  0.1286  0.2260  0.2269
 9529W        W27053  16.182  11.381   0.301 -0.1100 -0.0699  0.0320
 9530W        W27054  10.277   6.568   1.384  0.0656  0.0721 -0.1191
 9531W        W27055   2.149   3.245  17.320  0.0157 -0.2767  0.2213
 9532W        W27056   9.118   3.686  16.943 -0.2464 -0.2390  0.0008
 9533W        W27057   0.816   5.775   4.841  0.1186 -0.2435  0.2125
 9534W        W27058  13.783   9.003  16.568 -0.1869 -0.0674  0.0717
 9535W        W27059  14.802  16.175  17.054 -0.4213 -0.0666  0.1207
 9536W        W27060  10.520   8.240  15.074 -0.1068 -0.0073 -0.3404
 9537W        W27061  15.212  16.135  14.329 -0.0992  0.1189  0.2748
 9538W        W27062   7.443   3.284  12.800 -0.0661  0.0852  0.1036
 9539W        W27063  13.292  14.281  15.316 -0.1879  0.0747  0.0900
 9540W        W27064   6.800   8.298  15.380 -0.1994  0.2060 -0.0764
 9541W        W27065   7.798   5.856   1.139  0.0009  0.1562 -0.1116
 9542W        W27066  12.085  17.039  17.111 -0.0388  0.1048  0.2216
 9543W        W27067  15.184  15.722  13.409  0.3095  0.1813  0.3733
 9544W        W27068   0.101   7.590   2.042 -0.0454 -0.2751  0.2610
 9545W        W27069   3.657   1.113  15.967 -0.0739  0.0340  0.1985
 9546W        W27070  11.960   2.100   3.233  0.3709 -0.4106 -0.2421
 9547W        W27071   7.655   6.764  15.024 -0.3223  0.1618  0.0143
 9548W        W27072  10.823   1.755   5.437 -0.1995  0.1502 -0.3452
 9549W        W27073   9.467  13.731  16.802  0.0868  0.4017 -0.0408
 9550W        W27074   5.526  11.896  13.645 -0.0578 -0.1051  0.1708
 9551W        W27075  15.987  15.336  14.357  0.0139 -0.2708 -0.0308
 9552W        W27076  16.197   8.932   2.733 -0.1607  0.1130 -0.1116
 9553W        W27077   5.474  10.035  16.956  0.3579  0.0056 -0.0406
 9554W        W27078   6.610  13.527   2.112  0.0215 -0.1823  0.4141
 9555W        W27079   4.644  13.980   4.386  0.0254  0.0682  0.2552
 9556W        W27080  11.449   2.780  16.567  0.0931  0.0605  0.1627
 9557W        W27081  11.964   7.554   4.324 -0.1828 -0.1771 -0.2544
 9558W        W27082   5.732   9.685  16.698  0.2983 -0.2199 -0.0115
 9559W        W27083   2.776   7.675  12.808 -0.1410 -0.0824  0.0611
 9560W        W27084  11.872   3.345   0.460 -0.1280 -0.0922 -0.0619
 9561W        W27085   4.344   1.695  11.175 -0.1448 -0.2309  0.2098
 9562W        W27086   0.869   2.375   2.542  0.0385  0.0168 -0.0613
 9563W        W27087   3.109   7.490  15.976  0.1763  0.0169  0.4432
 9564W        W27088   1.638   4.059  16.753  0.0559 -0.0165  0.0367
 9565W        W27089  10.361   2.937   5.624 -0.4788  0.0580  0.0253
 9566W        W27090   4.372   3.126  15.105  0.0512 -0.0713 -0.0748
 9567W        W27091   0.798   7.886  12.576  0.1414 -0.1598 -0.4763
 9568W        W27092  15.368   4.902  13.323  0.1401  0.2308 -0.1224
 9569W        W27093   7.390  14.165  16.121 -0.1099  0.0163  0.0321
 9570W        W27094  12.763   7.294   0.601  0.0557  0.3601  0.1444
 9571W        W27095  16.268  13.423  17.393 -0.5341 -0.1453  0.1773
 9572W        W27096  15.061   6.476   3.783  0.1494 -0.1796 -0.0808
 9573W        W27097  12.739  15.337   3.697 -0.2070  0.0126  0.1471
 9574W        W27098   4.461   1.958  12.332  0.0480 -0.1585  0.1083
 9575W        W27099   2.067   9.325   1.892 -0.0573 -0.0535 -0.1902
 9576W        W27100  15.285   7.016  16.700 -0.1854  0.1121 -0.1559
 9577W        W27101  16.290   9.056   6.111 -0.1801 -0.4432  0.0894
 9578W        W27102  13.437   7.730   4.523  0.1337 -0.1739  0.1191
 9579W        W27103   2.616   1.883   1.202  0.4199 -0.2383  0.4136
 9580W        W27104  10.050   7.901  17.284  0.1214  0.2248 -0.1118
 9581W        W27105  15.109   0.856   1.252  0.0795 -0.0791  0.0763
 9582W        W27106   2.666   8.203  13.576  0.0141 -0.0777  0.0619
 9583W        W27107   7.001  15.376  13.043 -0.4018  0.1552  0.2864
 9584W        W27108   9.732   6.948   0.748 -0.2610 -0.1666  0.0694
 9585W        W27109   1.698   8.271  13.887  0.1976 -0.1412  0.1042
 9586W        W27110   5.974  16.611   3.472  0.1952 -0.1524  0.2395
 9587W        W27111  11.963   2.656   5.551 -0.0181 -0.1404 -0.2505
 9588W        W27112   2.112   7.474  14.662 -0.0758  0.1795 -0.1725
 9589W        W27113  13.177   4.024   4.166 -0.1669  0.1371  0.1202
 9590W        W27114   5.524   1.390   3.805  0.2692  0.1715 -0.0901
 9591W        W27115  13.970   9.067   0.637 -0.1906 -0.0549 -0.0098
 9592W        W27116   7.409   7.134  14.802  0.0952 -0.1855 -0.0730
 9593W        W27117   0.624  16.299   0.598 -0.0561 -0.0855 -0.3660
 9594W        W27118   7.718  11.491   2.026  0.1294 -0.1999  0.2543
 9595W        W27119   9.754   0.034   5.997  0.0915  0.0650 -0.0482
 9596W        W27120   5.281  10.589  17.395  0.0565  0.0858 -0.0513
 9597W        W27121  16.000   8.963  15.661 -0.0623  0.0997 -0.1395
 9598W        W27122  11.874  12.601  12.798  0.0266  0.0818  0.1558
 9599W        W27123  16.248   0.671  16.320 -0.0817  0.0353  0.1351
 9600W        W27124   4.605   9.603   1.520  0.1189 -0.2463 -0.2394
 9601W        W27125   6.876  12.172  13.309 -0.2355 -0.3198 -0.0790
 9602W        W27126   2.197   6.388   5.509  0.2186  0.1964  0.2927
 9603W        W27127   7.784   5.600   3.797  0.3537 -0.1262  0.0486
 9604W        W27128  15.208  10.000  13.111 -0.0414  0.2287  0.4762
 9605W        W27129   8.459   3.378   2.285  0.2630  0.0035 -0.0572
 9606W        W27130  13.561   7.124   2.833 -0.2308  0.0582 -0.2521
 9607W        W27131  13.135  10.187  11.669 -0.0309  0.0864 -0.1096
 9608W        W27132   8.908   8.659  15.090  0.2070  0.1477  0.0304
 9609W        W27133  12.086  16.728  12.456 -0.0084  0.2492  0.1166
 9610W        W27134  12.465  13.070   0.929  0.0069  0.0093  0.1437
 9611W        W27135  15.293  11.062  17.386  0.0868  0.1494  0.1419
 9612W        W27136  13.173  10.348  17.175 -0.0304 -0.4162 -0.0262
 9613W        W27137  12.139  10.981  12.743 -0.3140 -0.2504  0.0198
 9614W        W27138  10.705   9.217  15.761 -0.3783  0.2337 -0.2824
 9615W        W27139   6.122  16.583  13.095 -0.1260 -0.1199  0.1733
 9616W        W27140  14.744   6.688  15.264 -0.1604  0.0227  0.0936
 9617W        W27141   2.538   2.419  16.975 -0.1612  0.2408  0.4157
 9618W        W27142   9.107   1.494  14.802  0.1725 -0.3943  0.1129
 9619W        W27143  17.010  16.254   0.884  0.1020 -0.2861 -0.1996
 9620W        W27144   9.016   2.911  12.244 -0.0897  0.3680  0.0749
 9621W        W27145  15.072  15.027  15.812 -0.1708  0.0157  0.0724
 9622W        W27146  16.278  16.881  13.292  0.1638 -0.2262 -0.0975
 9623W        W27147  16.084   5.202  14.967  0.0320 -0.1841 -0.0066
 9624W        W27148  16.030   9.403  11.948  0.0968 -0.1082 -0.1831
 9625W        W27149  10.511  11.164  12.673 -0.0673 -0.0513 -0.2263
 9626W        W27150  15.250   1.624  15.564 -0.1268  0.2351 -0.0810
 9627W        W27151   5.699   3.480   5.496 -0.0740  0.0353 -0.0902
 9628W        W27152  15.736   8.463  12.833 -0.1782  0.0165  0.0064
 9629W        W27153   6.470   2.158  16.117  0.0136 -0.1967 -0.3189
 9630W        W27154  13.540   2.580   1.676  0.1168  0.2150  0.2437
 9631W        W27155  12.653  15.399   3.209 -0.0891 -0.1813  0.4852
 9632W        W27156  12.293  15.957   4.569 -0.3599  0.1309 -0.0052
 9633W        W27157   3.777  14.144  15.924 -0.1329 -0.2294  0.2501
 9634W        W27158  17.205   4.842  15.747 -0.0343 -0.0483 -0.0931
 9635W        W27159  15.792   1.896  15.325  0.0222  0.1929  0.2757
 9636W        W27160   1.785   7.035  12.386 -0.0392 -0.1541  0.1708
 9637W        W27161  15.455   8.465  13.610  0.0435 -0.1510 -0.2487
 9638W        W27162   3.066   1.498  14.631  0.1121  0.2303  0.0574
 9639W        W27163  16.270   8.945   1.016 -0.1302  0.2098  0.4053
 9640W        W27164   8.245   7.935  13.456  0.0714 -0.0352 -0.4490
 9641W        W27165  16.227  17.214   0.061  0.0442 -0.0935  0.0878
 9642W        W27166  14.471   8.679  16.195 -0.0975 -0.1396 -0.0600
 9643W        W27167  13.349   4.802   0.700  0.1790  0.0881 -0.0672
 9644W        W27168   0.245   3.916   1.503  0.1827  0.2440 -0.0405
 9645W        W27169  10.667  10.376   3.497 -0.0321 -0.0726 -0.2220
 9646W        W27170  16.403  15.308  12.465 -0.3586 -0.1489 -0.0486
 9647W        W27171   5.416  12.822  17.348  0.1631 -0.1992  0.0931
 9648W        W27172  13.723  14.967   6.057 -0.0169  0.3180 -0.2454
 9649W        W27173   0.694  16.276   1.128 -0.1129  0.1744 -0.0460
 9650W        W27174  16.242   9.385   5.675 -0.6110  0.1666  0.2385
 9651W        W27175   2.517   3.621   0.272  0.2030  0.1838  0.0329
 9652W        W27176   1.521  15.821  15.416  0.1179 -0.3456 -0.2006
 9653W        W27177  11.377   1.867  12.506 -0.1771 -0.0206  0.5515
 9654W        W27178  14.680  13.029   1.986  0.2207 -0.4289 -0.2574
 9655W        W27179   9.816  11.274   5.540 -0.2399  0.0171 -0.1358
 9656W        W27180   2.498  12.321   1.024 -0.0103  0.0560  0.1019
 9657W        W27181   4.255  12.839  12.064 -0.1610 -0.1438  0.0576
 9658W        W27182   6.421   9.137  16.939  0.1696 -0.1143  0.0562
 9659W        W27183  16.053  12.172   0.823 -0.0669  0.0477  0.2894
 9660W        W27184   4.849   5.833  16.239  0.1936 -0.0614 -0.2937
 9661W        W27185  12.759  15.111   4.202  0.2430  0.0401  0.1285
 9662W        W27186  11.984   6.373  12.261  0.1995  0.4472  0.1895
 9663W        W27187  14.472   3.619   1.923 -0.1791 -0.1349  0.0100
 9664W        W27188  11.606   0.699   0.437 -0.2018 -0.0581 -0.1020
 9665W        W27189   7.549  16.390  14.319  0.3523 -0.1769  0.1986
 9666W        W27190  11.718   0.709  15.311 -0.0746  0.2048  0.0843
 9667W        W27191   6.978  15.383   2.402 -0.1208 -0.0064  0.0668
 9668W        W27192  15.735   9.296   3.078 -0.0356  0.3290 -0.1170
 9669W        W27193  10.030   1.755  15.045 -0.0355  0.2718  0.1650
 9670W        W27194  12.692   8.935  17.022 -0.0474  0.1310  0.0118
 9671W        W27195  13.553   4.764  12.951  0.1331 -0.0370 -0.1568
 9672W        W27196  11.202  11.042   4.913  0.1405  0.0065  0.1434
 9673W        W27197   6.870  12.918  15.870  0.2141  0.3195 -0.5493
 9674W        W27198   1.874   8.314  12.113 -0.1445  0.0770  0.0985
 9675W        W27199   5.807  10.036   3.864 -0.0377 -0.0410 -0.1807
 9676W        W27200   8.875  12.152  15.420 -0.0064  0.2007  0.0566
 9677W        W27201  12.386   4.891  15.103  0.3074 -0.1374 -0.0997
 9678W        W27202   2.724   4.084  10.940  0.1172  0.0952  0.4504
 9679W        W27203   7.973   8.505  15.492  0.1950 -0.0798 -0.4325
 9680W        W27204   4.811   6.476   5.318  0.4009 -0.1215 -0.0055
 9681W        W27205   7.083   7.632  11.715 -0.3451 -0.1424 -0.1461
 9682W        W27206   8.824   5.953  17.373  0.0099 -0.1222  0.1137
 9683W        W27207   2.256   2.844   0.107  0.0448  0.1107  0.1109
 9684W        W27208  10.860   5.673   3.967  0.0621 -0.1310  0.3749
 9685W        W27209  11.558   6.402   4.881  0.2428  0.1467 -0.0076
 9686W        W27210   2.457   1.532  13.306  0.0025 -0.2702 -0.3974
 9687W        W27211   1.492   6.386   3.859  0.1315  0.0746  0.1926
 9688W        W27212  11.156  14.604  15.095 -0.0291 -0.0585  0.1607
 9689W        W27213   7.494   5.488  17.105  0.2293 -0.1465  0.1066
 9690W        W27214  15.917   1.711   0.236  0.1149  0.0104  0.0260
 9691W        W27215   3.611  11.138   5.317 -0.0648 -0.1541  0.2421
 9692W        W27216  15.544   5.848   0.345 -0.2961  0.2637 -0.2043
 9693W        W27217   5.408  15.675  14.216 -0.4081  0.0039  0.1044
 9694W        W27218   6.487   3.148  15.565 -0.3219 -0.0123  0.0224
 9695W        W27219  10.665   4.492   5.265  0.1306 -0.0837 -0.1954
 9696W        W27220   2.519   8.785  17.340 -0.1244 -0.1916 -0.0906
 9697W        W27221  14.350  15.672  12.271 -0.0692 -0.0418 -0.0816
 9698W        W27222  15.803  11.313  17.359 -0.1511  0.1804  0.0558
 9699W        W27223   8.374  13.164   1.796 -0.2944 -0.1211 -0.0665
 9700W        W27224  12.749   7.421  14.517  0.1325 -0.0465  0.2627
 9701W        W27225  15.851  11.558   2.202  0.3558  0.1594 -0.0468
 9702W        W27226   8.802  11.535  17.642 -0.2761  0.3193 -0.1144
 9703W        W27227   9.396  11.592  15.912  0.3720 -0.0805 -0.0445
 9704W        W27228  15.935  10.432  13.898 -0.3651  0.1156 -0.2194
 9705W        W27229  10.814   3.389   4.277  0.0252 -0.0979 -0.0481
 9706W        W27230  10.981  11.378  16.380  0.0981 -0.0879  0.1705
 9707W        W27231  15.788   2.303  13.470  0.1371  0.0257  0.4101
 9708W        W27232   3.541  10.461  17.396  0.1411 -0.0562  0.3834
 9709W        W27233   6.171  12.584  13.642 -0.1329 -0.0563  0.0449
 9710W        W27234   3.585  15.346   5.186 -0.2181  0.3054 -0.0510
 9711W        W27235   8.800   9.657  16.823  0.0304 -0.1455  0.3427
 9712W        W27236   5.021   1.746  15.335 -0.1468  0.3187  0.1571
 9713W        W27237  16.653  13.717   4.954  0.0420  0.0174 -0.1693
 9714W        W27238  13.552  10.909   1.763  0.1860 -0.1722  0.1395
 9715W        W27239  16.755   8.326   4.809 -0.1324 -0.2262  0.1495
 9716W        W27240  11.091  10.889  14.888 -0.3779  0.0345  0.2632
 9717W        W27241   4.627   6.885   3.514 -0.1133  0.1756 -0.1224
 9718W        W27242   9.385   6.593   4.953  0.0595 -0.0621 -0.0821
 9719W        W27243  17.171   2.189  15.497 -0.1180 -0.0718 -0.0757
 9720W        W27244   5.586   5.906  17.085  0.0767 -0.1136 -0.2728
 9721W        W27245  10.069  12.337  12.634  0.0986  0.0545 -0.0198
 9722W        W27246   6.144   3.712  13.740  0.0021  0.1108  0.3856
 9723W        W27247   7.527  16.914   1.499  0.3652 -0.2071  0.1655
 9724W        W27248   2.650   0.173  14.252  0.0617  0.0300  0.0782
 9725W        W27249   6.235   4.364  14.549  0.0237  0.0348 -0.1046
 9726W        W27250  13.888  14.141   0.824 -0.1586  0.2501  0.0597
 9727W        W27251   1.509  16.424   3.684  0.1562 -0.0243  0.1357
 9728W        W27252   7.429   8.459  11.615  0.4161 -0.1222 -0.0541
 9729W        W27253   9.647   5.344  13.660  0.0578 -0.0002  0.1799
 9730W        W27254  14.319  10.787   5.179 -0.1206  0.1347  0.2529
 9731W        W27255  15.715   9.971   1.834  0.0362  0.0774  0.2627
 9732W        W27256  13.552  17.052   2.990  0.0842 -0.0034 -0.1861
 9733W        W27257   0.491  11.108   4.716  0.0426 -0.0391  0.1827
 9734W        W27258  10.137   2.225  13.356 -0.0561  0.0004  0.2783
 9735W        W27259   7.984   5.288   1.226 -0.0490  0.0835  0.3264
 9736W        W27260   4.768   6.097   1.603 -0.3394 -0.0826  0.0804
 9737W        W27261   6.248   0.502  14.239  0.0414  0.2407 -0.0641
 9738W        W27262  17.178   5.788  15.110  0.1433  0.0433 -0.0892
 9739W        W27263  13.711   0.058   2.632  0.0576  0.1140  0.2281
 9740W        W27264  11.365   7.774   5.084  0.2111  0.0332 -0.0900
 9741W        W27265   4.565   4.567   4.151  0.1131  0.1609  0.1616
 9742W        W27266  11.289  14.427   3.005 -0.0972  0.1664 -0.1540
 9743W        W27267   5.372  11.693  15.843  0.2427 -0.2645 -0.2325
 9744W        W27268  13.945   0.906   2.050 -0.2779  0.2374  0.0322
 9745W        W27269  17.049   9.049   0.449  0.2258 -0.1500 -0.0112
 9746W        W27270   2.552   3.133  14.999 -0.0546  0.1744  0.1513
 9747W        W27271  14.199  16.827   1.531 -0.1376 -0.0847 -0.0993
 9748W        W27272   6.610  11.948   0.670 -0.0714 -0.0072 -0.2289
 9749W        W27273   7.041   6.790   4.870 -0.3662 -0.0884  0.0293
 9750W        W27274   7.324   5.946  16.887 -0.1030 -0.1664  0.2021
 9751W        W27275   8.155   5.261   5.377 -0.1585 -0.1423  0.1612
 9752W        W27276   6.246  14.753   0.381  0.0439 -0.0581 -0.1722
 9753W        W27277   3.719   8.709   1.385 -0.3126  0.1117 -0.1829
 9754W        W27278  13.710   2.692   4.520  0.1113  0.0476  0.0563
 9755W        W27279  11.370   4.986   1.197 -0.2151 -0.1980 -0.1652
 9756W        W27280   4.293   0.763   2.488  0.0848 -0.1581  0.1570
 9757W        W27281  13.488  14.582   1.853 -0.0796 -0.1953 -0.2164
 9758W        W27282  11.522   3.958  15.882 -0.2045  0.0551  0.0460
 9759W        W27283   4.529   6.522  15.130 -0.0769  0.0286 -0.1050
 9760W        W27284   0.018  14.782   3.238 -0.2044 -0.1839  0.1148
 9761W        W27285  12.129  10.125  15.719 -0.2138 -0.0876 -0.2019
 9762W        W27286   4.039   0.368  16.010 -0.2347 -0.2813  0.5349
 9763W        W27287   0.806   7.189   4.266  0.0047 -0.3150  0.3257
 9764W        W27288  16.606   9.647  12.867  0.1620  0.1440 -0.0262
 9765W        W27289   1.176  14.694   4.436  0.1076  0.1267 -0.2628
 9766W        W27290   3.355   2.746   3.000  0.1617 -0.2610  0.1543
 9767W        W27291  10.010  12.083  16.487 -0.0385 -0.1348  0.2392
 9768W        W27292   3.795  12.723   5.064  0.0764 -0.1950  0.2757
 9769W        W27293   4.558   0.372   4.351 -0.2737  0.1046 -0.0428
 9770W        W27294  15.906   6.408   3.725  0.2474  0.1486 -0.3042
 9771W        W27295   0.424   9.239   3.115  0.2212  0.2050 -0.6122
 9772W        W27296   7.911  12.719  16.329  0.0498  0.0525  0.0706
 9773W        W27297  17.073  13.645  16.557 -0.1296 -0.0780  0.0010
 9774W        W27298   2.313  13.354   0.774  0.0722  0.3429  0.0918
 9775W        W27299  17.248   2.883   3.925  0.0777  0.2376 -0.1186
 9776W        W27300  16.232   3.354  17.096 -0.0041  0.1246  0.1018
 9777W        W27301  15.050   5.408  14.511  0.0317  0.0074 -0.2506
 9778W        W27302  16.628   2.939  14.014 -0.1381 -0.1153  0.0856
 9779W        W27303  12.214  15.408  16.076 -0.0329  0.0457  0.0002
 9780W        W27304   9.750  17.070   3.697  0.0645 -0.1917 -0.2370
 9781W        W27305  15.871   9.525   0.145  0.1796  0.1149 -0.0237
 9782W        W27306  13.627  12.729  15.397 -0.2308 -0.2362 -0.1388
 9783W        W27307  13.300   2.340   3.613  0.0678 -0.0952  0.1767
 9784W        W27308   7.306   9.817  12.733  0.1668 -0.0695 -0.2482
 9785W        W27309   4.168  13.823   5.087 -0.1521 -0.1497  0.0923
 9786W        W27310   1.661   8.926   0.269 -0.0038  0.1223  0.2808
 9787W        W27311  10.557   4.827   4.497 -0.1087  0.0609 -0.2672
 9788W        W27312   2.369  12.183   0.425 -0.3649  0.1048 -0.2720
 9789W        W27313   4.180  15.027   1.240 -0.0063 -0.0513 -0.2997
 9790W        W27314   4.058   2.364   3.452  0.0505 -0.0815  0.2103
 9791W        W27315  16.583   9.846   2.874 -0.1607 -0.0322 -0.2102
 9792W        W27316  17.191   6.645   4.031 -0.1275  0.1330  0.2862
 9793W        W27317  10.837   8.973  14.361 -0.3907  0.1181 -0.0353
 9794W        W27318   7.087   4.699   6.127  0.0330 -0.1215  0.0389
 9795W        W27319  14.109  11.251   3.694  0.2210 -0.4984 -0.0478
 9796W        W27320  11.897  11.178  17.026 -0.3476 -0.1334  0.2255
 9797W        W27321   3.069  13.682   2.043  0.0239  0.0181 -0.1123
 9798W        W27322   1.446  16.660  12.438  0.1838  0.3311 -0.2574
 9799W        W27323  11.190  13.623   3.745  0.0650 -0.1165  0.2845
 9800W        W27324  13.394   0.120   4.382  0.0274 -0.0257 -0.0167
 9801W        W27325  13.624  15.149  14.538  0.1139 -0.4544 -0.2091
 9802W        W27326   2.837  14.026   1.805  0.2875 -0.0324  0.0879
 9803W        W27327  10.231  17.150   4.956  0.2157 -0.2407 -0.3055
 9804W        W27328   8.853  14.513  13.432 -0.0945  0.0958 -0.0659
 9805W        W27329  14.764   0.982   3.224  0.3663  0.1690 -0.1637
 9806W        W27330  15.730   4.475  14.500 -0.0761 -0.1108 -0.0776
 9807W        W27331   8.833   4.981   0.729 -0.1455 -0.0178  0.1986
 9808W        W27332  13.812  10.671  13.971 -0.0684  0.0688  0.0920
 9809W        W27333   7.853   4.249   3.650  0.2255  0.0544  0.2309
 9810W        W27334   3.598   1.981  11.702  0.0493 -0.0234  0.1661
 9811W        W27335   7.094  14.535  14.776  0.1919 -0.0424 -0.1451
 9812W        W27336   4.916  13.965   3.042 -0.1629  0.2082 -0.0306
 9813W        W27337   1.382   0.442  13.444  0.0456  0.1547  0.1305
 9814W        W27338  16.257   0.622   3.479  0.2606  0.2883 -0.2032
 9815W        W27339   7.289   1.793  16.671  0.0707  0.0879 -0.1773
 9816W        W27340   9.813   0.596   2.059  0.2149 -0.0793  0.2369
 9817W        W27341   9.650   8.135  14.525 -0.0050 -0.1964 -0.1620
 9818W        W27342   3.987  10.588   2.855  0.1432 -0.1066  0.0015
 9819W        W27343   9.970  16.720  14.384  0.3170  0.0644  0.1943
 9820W        W27344   0.525   1.763  11.758 -0.0355  0.0498  0.0353
 9821W        W27345   7.675   5.488  13.296 -0.2055  0.2160  0.1974
 9822W        W27346   9.605   8.772  17.223  0.0062 -0.0676  0.0151
 9823W        W27347   8.047  10.446  15.244  0.0649 -0.3139 -0.0048
 9824W        W27348  12.146   4.989  13.902  0.0872  0.0819 -0.0326
 9825W        W27349   8.985   9.433   5.111  0.2242  0.2436  0.0025
 9826W        W27350  12.040  15.647  15.679  0.1267  0.0411  0.0693
 9827W        W27351   8.782  14.522   1.503  0.0603 -0.1876  0.0986
 9828W        W27352   0.540  12.772   0.806 -0.0846 -0.0997  0.0273
 9829W        W27353  10.909  12.486  17.298  0.2419  0.2690  0.0347
 9830W        W27354   9.828  10.629   0.612  0.1037  0.0801 -0.1641
 9831W        W27355   3.363   4.626  15.379  0.0017 -0.2431 -0.1421
 9832W        W27356  12.635  13.076  17.408  0.1730 -0.1059  0.0357
 9833W        W27357   5.284  11.284   5.437 -0.2122  0.2853  0.1445
 9834W        W27358   0.316  16.523  14.267  0.0032 -0.0939  0.1933
 9835W        W27359   3.281  11.387   1.636  0.0561 -0.0286  0.0234
 9836W        W27360  10.045   1.492   3.936 -0.0584 -0.1400 -0.1425
 9837W        W27361   6.396  16.100  16.164  0.3056 -0.0086 -0.4118
 9838W        W27362   5.352  10.276   2.577  0.0574  0.0383  0.5283
 9839W        W27363  13.108  13.452  14.254  0.0218 -0.0293  0.0954
 9840W        W27364   8.888   5.418  14.680 -0.0005 -0.1055  0.0531
 9841W        W27365   8.526  13.423  15.595 -0.0087 -0.2386  0.0779
 9842W        W27366   0.362   2.180  13.797 -0.0142 -0.1442  0.3042
 9843W        W27367  12.224   7.984   3.633 -0.1079  0.2098  0.1791
 9844W        W27368   1.576   3.492  13.813 -0.0536  0.2013 -0.2338
 9845W        W27369  14.347  11.655  16.382  0.0308 -0.1250  0.4104
 9846W        W27370   5.527   1.172   2.087 -0.1860 -0.0633  0.1339
 9847W        W27371  14.821   7.285  15.811  0.0130  0.2122  0.1627
 9848W        W27372  16.520   2.628  16.738  0.3904  0.0776 -0.0095
 9849W        W27373   4.944   9.510   5.474  0.1837  0.0750 -0.2999
 9850W        W27374  11.600   4.681   5.146  0.0415  0.4446  0.1617
 9851W        W27375   0.998   9.997  13.900 -0.0226  0.1833 -0.1807
 9852W        W27376   6.832   2.179   0.327  0.2286 -0.0922  0.3693
 9853W        W27377   4.148   5.509   4.773  0.1325  0.0953 -0.2061
 9854W        W27378  12.596   4.487  14.972  0.3382 -0.1612  0.1651
 9855W        W27379  15.584   4.016  14.268 -0.0318  0.0570  0.0268
 9856W        W27380   8.300   5.585  14.601  0.0732 -0.1899 -0.3623
 9857W        W27381   3.663  11.114  14.908  0.0343  0.1306 -0.1142
 9858W        W27382   5.258  11.701   0.021  0.1106 -0.2228  0.0834
 9859W        W27383  16.508   8.917   2.324 -0.2521  0.0863 -0.1450
 9860W        W27384  16.204   4.500   4.154 -0.2087 -0.0370  0.1521
 9861W        W27385   2.978  10.547   1.421  0.1153 -0.5358  0.1845
 9862W        W27386  12.352  16.984  13.854  0.3612 -0.0407  0.1311
 9863W        W27387   3.116  11.317  17.095 -0.0052  0.2936 -0.2145
 9864W        W27388  15.328   2.871  12.986 -0.1122  0.1310  0.3645
 9865W        W27389   3.970   8.332   2.974 -0.3694  0.2433 -0.0732
 9866W        W27390   3.110  12.267   2.648 -0.1764 -0.1548  0.0504
 9867W        W27391  14.936  10.205   2.265  0.0854  0.1110  0.1189
 9868W        W27392   0.322  15.467  17.196  0.2892  0.0795  0.0113
 9869W        W27393  13.081   1.186  15.282  0.0394  0.0061 -0.2254
 9870W        W27394  12.419   4.561   4.862  0.0469 -0.0941  0.2325
 9871W        W27395   4.866  14.529   2.375 -0.1549  0.0006  0.0514
 9872W        W27396  16.345   1.699  12.042  0.1274 -0.0502 -0.3064
 9873W        W27397   7.595  16.168   5.528  0.0483  0.1260 -0.2411
 9874W        W27398   9.760  12.395  14.416  0.2398  0.0820  0.2544
 9875W        W27399   3.131   0.456  16.490  0.1483 -0.3934  0.1168
 9876W        W27400   3.335  10.068  15.801 -0.2726 -0.0525 -0.0710
 9877W        W27401  12.753  13.018   2.427  0.2239 -0.0695 -0.2602
 9878W        W27402   6.535  12.302  15.977 -0.3229  0.0209  0.0429
 9879W        W27403   1.859   8.015  12.625  0.0616 -0.0503 -0.3485
 9880W        W27404   3.099   0.328  13.133  0.1437  0.0718  0.2420
 9881W        W27405  10.397   7.811   5.648 -0.0217 -0.2216  0.0586
 9882W        W27406  12.116   3.040  15.479 -0.0411 -0.1109 -0.1834
 9883W        W27407   5.948  10.734   1.728 -0.1777 -0.2834 -0.2302
 9884W        W27408  13.481  10.595   1.264 -0.0815 -0.4235  0.1144
 9885W        W27409  14.270  10.546   4.288  0.1289  0.1112 -0.2046
 9886W        W27410   3.007   9.218  15.674  0.1724  0.1903 -0.2574
 9887W        W27411  13.598  13.863   5.105 -0.2141 -0.0506 -0.2151
 9888W        W27412  12.977  12.407  15.237 -0.0549 -0.2064 -0.0847
 9889W        W27413  10.962   7.585  11.821 -0.1339  0.0192 -0.2556
 9890W        W27414  13.891   1.665   5.210 -0.1528  0.1524 -0.1528
 9891W        W27415  11.251   5.754   5.194 -0.0437  0.2905  0.2484
 9892W        W27416  13.027  13.142  13.759 -0.1269  0.3532 -0.0216
 9893W        W27417  14.327   3.575  14.884 -0.3165  0.2954  0.2138
 9894W        W27418  17.183   7.753   3.285  0.2299 -0.1315  0.1063
 9895W        W27419   9.503  10.461   3.687  0.2617 -0.2265 -0.0087
 9896W        W27420   7.834   5.477  13.769  0.1673 -0.0178 -0.1403
 9897W        W27421  11.957   4.476  12.365 -0.2120  0.3566 -0.0381
 9898W        W27422   7.866   5.755  14.256  0.1893 -0.1043  0.1076
 9899W        W27423  12.402   3.561   2.915  0.0889 -0.0099 -0.2663
 9900W        W27424   3.206  15.196   2.873 -0.0442 -0.2364  0.0209
 9901W        W27425   0.853   1.001   4.470  0.0261 -0.1697 -0.0752
 9902W        W27426   5.195   6.557  15.753 -0.0490  0.1145  0.0278
 9903W        W27427   3.438   1.576  13.170  0.0909 -0.1347 -0.0826
 9904W        W27428   5.064  12.715   5.787  0.1282 -0.1545 -0.2778
 9905W        W27429   1.473   1.027  16.080  0.0984 -0.2083 -0.2056
 9906W        W27430  11.339   7.457  14.574 -0.2495  0.2527 -0.2264
 9907W        W27431  12.363   0.395   4.472 -0.0561  0.0325  0.3928
 9908W        W27432   5.884  13.955  12.769  0.0945 -0.1467  0.0943
 9909W        W27433   2.698  16.498   5.329  0.0792 -0.2142  0.0142
 9910W        W27434   4.956  16.026  16.303 -0.2656  0.1502 -0.4829
 9911W        W27435   7.267  14.857   2.086  0.4129  0.0941 -0.1415
 9912W        W27436  13.866  11.171  13.798 -0.1236 -0.4332  0.0197
 9913W        W27437  15.450  16.739   0.113  0.0082  0.2978 -0.4489
 9914W        W27438   2.012   3.628   1.552 -0.0813  0.1586 -0.1143
 9915W        W27439   1.916   0.958   4.209  0.1062 -0.0835  0.2069
 9916W        W27440  12.707  11.462  13.261  0.2522  0.1411 -0.4436
 9917W        W27441   3.824   7.195  17.579  0.2654  0.2465 -0.2871
 9918W        W27442   7.006  15.655   2.827  0.0540  0.1217 -0.0608
 9919W        W27443   1.778   2.570   3.655 -0.0274  0.0165 -0.1177
 9920W        W27444  15.006   9.873   3.051 -0.4308 -0.1161 -0.2424
 9921W        W27445  12.536  14.151  12.821  0.3141 -0.0072  0.2426
 9922W        W27446   5.258   7.996   0.419  0.2434 -0.1143 -0.1222
 9923W        W27447  12.016   5.493   5.074  0.1954 -0.2196 -0.1245
 9924W        W27448   1.416  14.043   0.052 -0.1057  0.2105  0.0895
 9925W        W27449  10.439   8.672   3.106  0.1449 -0.2330 -0.0114
 9926W        W27450   2.987  10.083  12.794 -0.2816  0.1024  0.0182
 9927W        W27451  15.098   8.391  16.637 -0.2818  0.0441 -0.0823
 9928W        W27452   9.941  12.357   4.745 -0.2040 -0.1374  0.0807
 9929W        W27453   6.950  10.585  16.049  0.3646  0.2074 -0.3305
 9930W        W27454   1.631   7.056   0.782  0.1539  0.3806  0.0500
 9931W        W27455   0.373   5.057   0.808  0.2839  0.1234 -0.2705
 9932W        W27456   8.613  14.515   0.865  0.4426 -0.0088  0.0661
 9933W        W27457  10.490  17.215   1.254 -0.0267 -0.0872  0.0901
 9934W        W27458  11.013  16.855  16.999 -0.1681 -0.2173 -0.1023
 9935W        W27459  12.260   6.996   4.800 -0.3597 -0.4456 -0.0685
 9936W        W27460  15.540  16.743  16.110  0.0394  0.0856  0.0499
 9937W        W27461   3.171   6.300  13.856  0.3912  0.0679 -0.1823
 9938W        W27462   3.148  13.408  12.267  0.3286 -0.1839 -0.1771
 9939W        W27463  14.930   4.146  12.962 -0.2740 -0.3072 -0.2183
 9940W        W27464  13.187   8.692   3.755  0.2942  0.0501 -0.3115
 9941W        W27465   5.978  10.930  14.185  0.0252 -0.0209 -0.0376
 9942W        W27466  13.719   9.734  15.877  0.1171 -0.0394 -0.2015
 9943W        W27467   4.395   8.725  13.155 -0.2758  0.1611  0.0643
 9944W        W27468  15.482  14.039   1.091  0.1052  0.1868  0.2512
 9945W        W27469  13.299   6.414   3.170 -0.1912  0.0445 -0.1102
 9946W        W27470  11.179  10.731  12.324  0.1653  0.0744  0.2009
 9947W        W27471   7.819   8.213  16.858  0.0742 -0.2279  0.0606
 9948W        W27472   6.033   9.252   1.068 -0.1235 -0.4570  0.0794
 9949W        W27473   9.242  16.554   4.723 -0.3226 -0.2446  0.0316
 9950W        W27474   9.016  11.199   2.988 -0.1691 -0.2465 -0.1401
 9951W        W27475   2.260   3.482  16.851 -0.1634  0.2777  0.1026
 9952W        W27476  16.474   5.903  16.709 -0.2539  0.2126  0.0616
 9953W        W27477   8.336   3.907  17.162  0.0235 -0.1046  0.1237
 9954W        W27478  14.509  13.039  16.685 -0.0212 -0.1128  0.0208
 9955W        W27479   9.479   4.986  15.640  0.2078 -0.0653  0.0941
 9956W        W27480  13.658   3.316  14.254 -0.0652 -0.0921  0.1017
 9957W        W27481   2.381   2.856  16.762  0.0228  0.1872 -0.1000
 9958W        W27482   0.965   5.452  15.926 -0.0882 -0.1262  0.3713
 9959W        W27483   6.803  13.410  14.141  0.1170  0.1870 -0.3054
 9960W        W27484   7.438   9.680   5.146  0.0867 -0.0837 -0.1348
 9961W        W27485  12.772   9.208  17.399 -0.0311  0.0837 -0.2039
 9962W        W27486  14.453   7.166  15.049  0.0309  0.2621 -0.3118
 9963W        W27487  10.561   7.509   0.290  0.2107  0.0769  0.2669
 9964W        W27488   6.560   8.138  16.636 -0.1059 -0.1752 -0.0707
 9965W        W27489  16.757  16.645  13.309 -0.1344  0.1642  0.0312
 9966W        W27490   0.835   2.837   5.150 -0.0574  0.2319 -0.0254
 9967W        W27491  15.419   7.445   4.945 -0.1453  0.0950  0.0154
 9968W        W27492   2.785   9.379  14.118 -0.3072  0.4123  0.0389
 9969W        W27493   6.760   3.398   0.753 -0.2496  0.1976 -0.2538
 9970W        W27494  11.928   0.647  15.884 -0.0436 -0.1566 -0.0971
 9971W        W27495  13.108   5.189   3.632  0.1111  0.1274 -0.0141
 9972W        W27496   1.532  13.113  16.158 -0.0204 -0.2590  0.0705
 9973W        W27497   2.942   2.704  16.619  0.1979  0.1384  0.1734
 9974W        W27498  15.086  15.211  14.781 -0.0443 -0.0708  0.2123
 9975W        W27499  13.083  13.016  17.054  0.0592 -0.2472  0.2573
 9976W        W27500   8.535   9.574  15.726 -0.2980  0.0598 -0.2186
 9977W        W27501  12.067   9.930  12.622 -0.1265 -0.1411  0.1577
 9978W        W27502   7.200  12.436   4.423 -0.0292  0.0173  0.2154
 9979W        W27503   1.009  11.424   0.294 -0.0722 -0.0474 -0.3696
 9980W        W27504  13.515  13.222   2.833  0.0161 -0.0091  0.1997
 9981W        W27505   8.129   1.619   5.215  0.4596  0.0933 -0.2737
 9982W        W27506   3.928   1.647  12.400  0.2226  0.1153 -0.0536
 9983W        W27507  11.882  15.779  17.557  0.1290  0.1042  0.2676
 9984W        W27508  15.832   0.334  14.958 -0.2675 -0.0653 -0.0570
 9985W        W27509   0.742  13.192   0.078 -0.0217 -0.0972 -0.1657
 9986W        W27510  15.893   5.805   5.600 -0.0909  0.2494  0.3006
 9987W        W27511  12.984   3.773  12.989  0.1212 -0.0477 -0.0194
 9988W        W27512   6.349  16.944  12.129 -0.0198  0.1106  0.2402
 9989W        W27513   3.580   9.922   1.953  0.0288 -0.3007  0.1075
 9990W        W27514   6.722   1.280   0.367  0.0979  0.0229 -0.1259
 9991W        W27515   4.950  10.433   2.278 -0.0033 -0.2055 -0.0278
 9992W        W27516  16.135   3.173  14.868  0.0424  0.3126 -0.4661
 9993W        W27517   9.264   8.761   3.483 -0.0773  0.2797 -0.0421
 9994W        W27518   2.267  13.661   0.401  0.0757 -0.1966  0.1459
 9995W        W27519  13.109   3.748  16.598 -0.0286 -0.2313  0.0732
 9996W        W27520   0.819   6.330  17.275 -0.2850  0.2375  0.0410
 9997W        W27521   3.937  12.206   2.147  0.3259 -0.0645  0.0471
 9998W        W27522   8.202  13.940  16.358  0.0228  0.2535  0.1067
 9999W        W27523   4.956   6.190   0.716  0.0426  0.0954  0.0169
10000W        W27524   4.047  15.141  17.372 -0.0133  0.0060 -0.2407
10001W        W27525  13.199  13.511  16.954  0.1225 -0.0202  0.6210
10002W        W27526  14.918  16.752   4.978 -0.0881 -0.0068 -0.0051
10003W        W27527  12.834  11.580   3.082 -0.1435  0.2678  0.0901
10004W        W27528  10.260  14.213  11.792 -0.2596 -0.1854 -0.0372
10005W        W27529   0.092   6.679  14.910  0.0444 -0.2086  0.2718
10006W        W27530   6.920   3.132   5.458  0.3568 -0.0220  0.2570
10007W        W27531   3.631  16.731  16.720 -0.2497  0.1952 -0.0095
10008W        W27532   2.040   4.324   5.533 -0.2025 -0.0778 -0.1266
10009W        W27533  14.111  15.591   4.915 -0.2347 -0.1873 -0.2698
10010W        W27534  13.188  15.753   0.035 -0.1959  0.1502  0.1110
10011W        W27535   3.943  15.985  13.012 -0.2397  0.0287  0.2635
10012W        W27536  10.798   6.941   3.871 -0.1286 -0.2062  0.1508
10013W        W27537   3.306  13.271  14.840 -0.0556 -0.0261 -0.0409
10014W        W27538  16.397  12.066  12.916  0.0300  0.0188 -0.0510
10015W        W27539  11.310   7.934  14.522  0.0622 -0.3757 -0.0120
10016W        W27540  14.661  13.706  15.857 -0.1003  0.2868  0.2152
10017W        W27541   2.010   6.609  12.557 -0.0399 -0.2991 -0.2036
10018W        W27542   2.853   1.761  14.256  0.1506 -0.1335 -0.1837
10019W        W27543   5.702  15.043   2.579 -0.1097  0.1280 -0.1078
10020W        W27544   4.924   3.511   5.206  0.1931  0.1021 -0.4305
10021W        W27545   4.102   4.750  14.297  0.1642  0.0951  0.2555
10022W        W27546   0.966  16.760  12.560  0.0070 -0.3006  0.1929
10023W        W27547   4.607  12.773   6.173 -0.0052 -0.0955 -0.1234
10024W        W27548  15.400  10.600  17.219 -0.2135  0.2534  0.1963
10025W        W27549  14.629   5.284  13.649 -0.0189  0.2809 -0.0868
10026W        W27550   3.339   0.785   3.163 -0.1004 -0.0140  0.2193
10027W        W27551  15.902   2.822  14.648 -0.0156 -0.4064 -0.2624
10028W        W27552  17.174  12.054  13.645 -0.0379 -0.1651  0.2157
10029W        W27553   2.700   3.402   1.273  0.0122  0.0258 -0.0262
10030W        W27554   7.684   4.967  13.645  0.0059  0.0807  0.0764
10031W        W27555   6.258   9.034   5.067  0.2558 -0.1400  0.0473
10032W        W27556  16.260   9.648   3.372  0.0367 -0.1203 -0.0179
10033W        W27557   0.993   7.307   1.370  0.0394  0.1967  0.0331
10034W        W27558   1.949  11.344  11.922 -0.1342 -0.0633 -0.1006
10035W        W27559   9.089  13.036  12.524  0.2012  0.1363  0.2097
10036W        W27560  10.180   9.893   4.176 -0.1144 -0.1748  0.2055
10037W        W27561  13.086   2.464  12.493 -0.1248 -0.0488 -0.1725
10038W        W27562  12.434   2.329  15.810 -0.1157  0.0789  0.1307
10039W        W27563   9.508   3.883   0.505 -0.2160 -0.4090 -0.0744
10040W        W27564   2.045  14.297   1.635  0.3801 -0.3210 -0.0037
10041W        W27565  16.593   1.223  16.202 -0.3060 -0.0101 -0.1662
10042W        W27566   5.036   5.020  12.993  0.0709 -0.0217 -0.1631
10043W        W27567  14.501   5.286   4.330 -0.0401 -0.1341  0.1435
10044W        W27568   4.569   6.234   2.147  0.3222 -0.0305 -0.1497
10045W        W27569   4.703   6.159   0.277 -0.1695  0.0238  0.2031
10046W        W27570   0.140   8.291  16.603 -0.2408  0.2191  0.2765
10047W        W27571  13.670   5.217  14.008 -0.2571 -0.1381  0.1193
10048W        W27572   1.848   5.183   4.495  0.1177  0.0510  0.0397
10049W        W27573  13.522   4.934  15.114  0.2767 -0.3811 -0.0648
10050W        W27574   0.122   2.657  15.495 -0.0763  0.0273 -0.1060
10051W        W27575   5.996   0.990  16.743 -0.0336  0.0160 -0.0566
10052W        W27576   9.568   1.505  15.038  0.1148  0.1000  0.1056
10053W        W27577   1.393   2.719  12.379 -0.2208 -0.0374 -0.0678
10054W        W27578   8.473  17.234   2.709  0.1857 -0.4470 -0.2499
10055W        W27579   7.285   2.444   3.469 -0.1816  0.1262  0.0918
10056W        W27580   8.698   4.775  16.728 -0.1882 -0.0181 -0.1499
10057W        W27581   4.531   2.910   2.637 -0.0360 -0.0062  0.0466
10058W        W27582   1.828  14.150  12.304  0.1256 -0.0576 -0.3522
10059W        W27583  12.302   3.602  17.364 -0.0764 -0.0280  0.1790
10060W        W27584  12.934   3.861  15.572  0.3256  0.0086 -0.3397
10061W        W27585   7.263   2.690  16.342  0.0950 -0.0521  0.0773
10062W        W27586  13.063   9.774  14.654  0.0685  0.2432  0.1062
10063W        W27587  17.029   6.868   5.054 -0.0724  0.0277 -0.0852
10064W        W27588   7.612   5.030  17.399  0.1728 -0.1508 -0.0176
10065W        W27589   3.507  15.851  13.239 -0.3968 -0.0372 -0.4171
10066W        W27590  11.897   7.009  15.590  0.2405 -0.0952  0.1017
10067W        W27591  16.075   4.460   3.614 -0.0605  0.0134  0.1054
10068W        W27592   4.929  13.833  12.893 -0.0328  0.0045  0.0158
10069W        W27593   5.831  14.925  12.440  0.1163  0.2747 -0.1647
10070W        W27594   4.283   9.259   4.944  0.2323  0.3765 -0.0870
10071W        W27595  10.761  10.166   3.050 -0.3096 -0.3204  0.1910
10072W        W27596   1.939   4.591   3.317 -0.0145  0.0625  0.0355
10073W        W27597   9.045  12.447   1.819  0.1237  0.0114  0.0839
10074W        W27598   5.224   4.092  13.384 -0.0485  0.0094  0.1005
10075W        W27599  14.524  12.644  12.447 -0.2155  0.0564 -0.0261
10076W        W27600   5.700   7.621  17.299  0.3584 -0.2597  0.1294
10077W        W27601  11.363   6.896  16.424 -0.1817 -0.2177 -0.2040
10078W        W27602   2.110   2.972  15.492 -0.2035 -0.1321 -0.0907
10079W        W27603  15.757   6.805  12.663  0.0479  0.0197  0.2612
10080W        W27604   9.372  16.095  14.667 -0.0670  0.1644  0.0646
10081W        W27605   3.864   6.741  16.322 -0.1523 -0.0201  0.3086
10082W        W27606  13.059   3.658   1.484  0.0135  0.2588  0.1492
10083W        W27607   8.744  10.907  12.714  0.4094 -0.0039  0.2964
10084W        W27608  17.193   8.056   4.874 -0.3601  0.0706  0.2158
10085W        W27609   9.349  11.010  15.830  0.1139 -0.1652 -0.1665
10086W        W27610   4.623   0.867   1.101 -0.3503  0.2344 -0.1720
10087W        W27611   0.914  11.545   1.340 -0.1086  0.2497  0.1895
10088W        W27612  12.093   7.088   1.402  0.0949  0.4552 -0.1055
10089W        W27613  15.796  12.621   0.986 -0.0789  0.0649  0.1673
10090W        W27614  11.964   7.020  12.863  0.1842 -0.0456  0.0787
10091W        W27615   3.455   1.262   2.964  0.4569  0.4715  0.1150
10092W        W27616  16.867   3.021  14.498  0.2840  0.0948  0.1485
10093W        W27617  16.751   4.456   1.340  0.0413  0.0590 -0.2247
10094W        W27618   0.519   2.686   1.102  0.0469  0.3060  0.1908
10095W        W27619   3.773  10.754   5.617 -0.2874  0.1775  0.1161
10096W        W27620   4.132   0.640  15.170 -0.2683  0.1740 -0.1581
10097W        W27621   1.782   2.074   3.341  0.2095 -0.3289  0.2190
10098W        W27622   2.310   9.191   4.328 -0.1533  0.0643  0.1589
10099W        W27623   1.934  16.444  16.895  0.0300 -0.0208 -0.1038
10100W        W27624   8.560  15.950  15.876 -0.0492 -0.1787 -0.1664
10101W        W27625   7.545   6.503  13.988  0.1181  0.2443 -0.1508
10102W        W27626  17.239   9.119  14.711  0.2294 -0.0895  0.0220
10103W        W27627  17.215  12.182  15.100 -0.0006  0.1383 -0.0345
10104W        W27628   8.700   8.967  17.067 -0.0138 -0.3437  0.0657
10105W        W27629  16.828   1.044   2.002 -0.1059 -0.1501  0.0487
10106W        W27630   1.071   7.668   4.383 -0.2161 -0.2286  0.1718
10107W        W27631   6.169  11.539  14.709  0.0347 -0.2790 -0.3542
10108W        W27632   8.601  11.556   4.142  0.2167  0.0536 -0.1170
10109W        W27633  10.214   4.842  12.543  0.2408  0.6883 -0.1510
10110W        W27634  13.582  16.181  13.282  0.5011  0.1878  0.1870
10111W        W27635   6.951   4.592   4.495  0.0676  0.1526 -0.0887
10112W        W27636  10.688  16.584   2.802 -0.2611 -0.0863  0.2780
10113W        W27637   7.736   2.492  16.436  0.3294  0.1216  0.1245
10114W        W27638   7.930  14.813  13.607  0.1048 -0.1153 -0.4150
10115W        W27639   6.242  15.972  16.614  0.0060 -0.0028  0.1508
10116W        W27640   9.153   4.383   4.003 -0.1016  0.0323 -0.0056
10117W        W27641   9.083  13.493   0.926  0.2799 -0.0285  0.0884
10118W        W27642   9.297  12.005   1.432  0.0642  0.1396 -0.1363
10119W        W27643  16.254   2.503   0.472  0.0518  0.0038  0.0072
10120W        W27644   4.043   0.563   4.234 -0.1136  0.5285 -0.2225
10121W        W27645   5.876   9.326   3.750 -0.3427 -0.2633  0.0987
10122W        W27646   6.859  15.904   2.426  0.1071 -0.1093  0.0210
10123W        W27647   0.774   1.319   2.339 -0.0254  0.1530  0.3307
10124W        W27648   6.420   1.903   0.475 -0.1706 -0.1411 -0.0174
10125W        W27649  10.115  15.640   4.737  0.2234  0.0265 -0.3960
10126W        W27650   3.373  12.075   4.268 -0.0920  0.1461  0.0891
10127W        W27651  13.104   2.605   0.852 -0.0471  0.0444  0.1128
10128W        W27652   4.122  12.337  14.776  0.1109 -0.1416  0.2285
10129W        W27653  15.813   4.654   3.040 -0.1940  0.1883  0.4019
10130W        W27654   5.959  14.574  16.623 -0.0350  0.1290  0.1022
10131W        W27655   8.019   8.383   0.259 -0.1158 -0.0072  0.0082
10132W        W27656  10.985  12.667   5.529 -0.2841  0.1147 -0.0220
10133W        W27657  14.611  11.252   0.935  0.1873  0.1057  0.4384
10134W        W27658   7.614  12.448   3.035 -0.0810 -0.3925  0.2524
10135W        W27659   0.226  12.264  17.030  0.2521  0.1093  0.0452
10136W        W27660  10.088  16.314   4.575 -0.0980 -0.0906  0.1345
10137W        W27661   7.822  14.451  16.166  0.0228 -0.4439  0.0289
10138W        W27662  15.750   9.863  13.890  0.0307  0.2369  0.3178
10139W        W27663   6.033   8.312   3.326  0.2768  0.2192  0.1848
10140W        W27664   5.718  11.702  11.461  0.0941  0.2382 -0.1009
10141W        W27665  14.129   9.131  15.458 -0.3416 -0.0190  0.1594
10142W        W27666   2.638   2.440  13.150  0.1410  0.0236 -0.0522
10143W        W27667   0.167  14.870  12.984  0.0795  0.1933  0.1684
10144W        W27668   9.780   5.702   2.879 -0.1646  0.0063 -0.0332
10145W        W27669  13.582   2.588  14.189 -0.1199  0.0149 -0.0971
10146W        W27670   6.232  13.195   2.023  0.0246  0.2046 -0.2400
10147W        W27671   0.166   7.552   3.658  0.0007 -0.1649  0.3627
10148W        W27672   1.394  14.924  16.451  0.3760 -0.3567  0.0246
10149W        W27673  11.492  14.453  15.436  0.0938 -0.0822 -0.0907
10150W        W27674   5.447  11.851  14.960  0.0970 -0.0408  0.1760
10151W        W27675  11.023  16.656  15.330  0.3208 -0.0390 -0.1066
10152W        W27676   9.069   1.191   4.882  0.0087  0.0040 -0.1619
10153W        W27677  16.528  13.121  13.261  0.0597 -0.0511 -0.2249
10154W        W27678   2.822  14.772   3.904  0.1360 -0.4812 -0.2490
10155W        W27679  13.843  11.665  17.216  0.0083 -0.0762 -0.2880
10156W        W27680   4.299  16.775   3.855 -0.3318 -0.0693 -0.1653
10157W        W27681   5.703   1.354   4.834  0.2270 -0.1101  0.5379
10158W        W27682  10.995   6.260  13.859  0.1199 -0.0626 -0.0424
10159W        W27683   3.801   8.568  17.058  0.1031  0.1161  0.0980
10160W        W27684  12.593   5.856   0.450  0.0692  0.3329 -0.3371
10161W        W27685   0.121  10.992   2.879 -0.3609  0.0729  0.1073
10162W        W27686  15.720   3.821   2.746  0.1551 -0.1762 -0.0206
10163W        W27687   0.315   0.524  15.480 -0.2103 -0.0686  0.1447
10164W        W27688   0.875  14.306   2.806  0.0440 -0.1464  0.1558
10165W        W27689  12.615   3.696   3.404 -0.0398 -0.2850 -0.0153
10166W        W27690  15.810  11.736  12.116 -0.4563 -0.2426 -0.2538
10167W        W27691   4.201   7.884  17.221  0.3247  0.0161 -0.0406
10168W        W27692  12.584   3.515   5.116 -0.1016  0.0373  0.0775
10169W        W27693   1.260  15.734   4.886  0.1075  0.0878 -0.1643
10170W        W27694   9.041   8.342   3.563  0.0725  0.0516 -0.0574
10171W        W27695  10.147   2.270   0.314  0.0886  0.1582 -0.1830
10172W        W27696   9.489  10.678  14.594  0.0789 -0.1854 -0.0128
10173W        W27697  16.774   2.191  16.982 -0.1449  0.1487 -0.1305
10174W        W27698   5.699  15.288  16.424 -0.0340 -0.0050  0.2677
10175W        W27699  10.948   9.736   1.509 -0.0217 -0.2467 -0.1177
10176W        W27700  16.900  16.132   2.920 -0.1289  0.0427 -0.2588
10177W        W27701  11.762   2.900   4.443  0.2479 -0.2175  0.2798
10178W        W27702   2.373  15.616  12.178  0.2358  0.1630  0.0190
10179W        W27703  15.804   3.895   4.972  0.0390 -0.0756 -0.4296
10180W        W27704   0.389   4.194  13.725 -0.1708 -0.1972 -0.2450
10181W        W27705   7.425  12.469  16.419  0.0785  0.0932 -0.1960
10182W        W27706   5.816   6.326  13.644  0.4104 -0.0774 -0.2073
10183W        W27707  16.841  10.463   4.198  0.1760 -0.1685 -0.0543
10184W        W27708  10.823  15.134  16.035  0.0368  0.2267 -0.3032
10185W        W27709  12.139  11.220  15.372  0.3389 -0.3310 -0.1980
10186W        W27710  12.539  10.003   1.020 -0.0951 -0.1917 -0.1128
10187W        W27711   8.996   3.037  15.393  0.0284 -0.2214  0.0651
10188W        W27712   2.242  11.754  12.832  0.5370  0.0555 -0.0575
10189W        W27713  12.108   2.618   1.906  0.0406 -0.2535 -0.1989
10190W        W27714   5.299   1.120   1.632 -0.0838  0.1491 -0.2203
10191W        W27715   2.818   0.285  14.755 -0.2284  0.2355  0.0244
10192W        W27716  12.010   3.508  12.817 -0.1932 -0.1884 -0.0996
10193W        W27717   8.866   6.143   3.080  0.0082  0.1299  0.1884
10194W        W27718   8.083   1.217   5.482  0.0843 -0.1668 -0.0120
10195W        W27719   8.945  15.568   2.684 -0.1588 -0.3247 -0.0132
10196W        W27720   4.940  13.182  17.296 -0.0871  0.2389  0.1001
10197W        W27721  13.928  11.046  14.321  0.1175  0.1473  0.0639
10198W        W27722   9.016  15.434   0.775  0.0366 -0.0643 -0.1053
10199W        W27723   4.086   2.816   4.517  0.2007  0.1093  0.0949
10200W        W27724   6.835  12.214  15.584  0.0152 -0.1722 -0.0254
10201W        W27725   8.775   9.183  15.081  0.0873  0.1194  0.0457
10202W        W27726   4.194  15.388   4.378 -0.1413 -0.0253  0.1347
10203W        W27727   5.527   9.026   4.941 -0.0974 -0.2658 -0.1451
10204W        W27728   6.793   3.244   3.898 -0.2788 -0.2009  0.0739
10205W        W27729   4.253   2.508   5.393 -0.0977 -0.1614 -0.1324
10206W        W27730   9.796  14.126  16.911  0.0186 -0.2502  0.1707
10207W        W27731   3.443  12.214  15.693 -0.1188  0.2137  0.3106
10208W        W27732   2.325   3.047   4.250 -0.1412  0.2645  0.2211
10209W        W27733   6.843   5.778  15.452 -0.3532  0.0525  0.0293
10210W        W27734   2.625  11.509  14.234  0.1794 -0.0210  0.0506
10211W        W27735   0.910   6.096  15.115  0.0550  0.0973 -0.2804
10212W        W27736  16.313  10.853  13.079  0.3521  0.0165 -0.2179
10213W        W27737   4.342   9.741   1.932  0.1937 -0.1906  0.0116
10214W        W27738  15.165  16.979   2.876 -0.0088 -0.3107 -0.2540
10215W        W27739  12.761  10.148  16.886  0.0218  0.1400 -0.0723
10216W        W27740   7.548  16.582  12.615  0.3854 -0.0153  0.1532
10217W        W27741  13.306   3.517   3.970 -0.1359  0.0203 -0.2797
10218W        W27742  15.806   0.556   0.811  0.0703 -0.0218  0.0024
10219W        W27743  14.237  11.292   1.349 -0.3044  0.2180 -0.1977
10220W        W27744  15.372  14.999  15.144  0.0148  0.1473 -0.1672
10221W        W27745   6.196  14.471   3.046  0.1175 -0.1926 -0.0501
10222W        W27746   5.106   8.609  16.915 -0.0740  0.0193 -0.2843
10223W        W27747  14.239   3.250   5.008  0.1631 -0.2621  0.1576
10224W        W27748  17.053   6.581   4.672  0.2568 -0.1809 -0.1405
10225W        W27749   9.641  15.716  14.898  0.1942 -0.2164 -0.0449
10226W        W27750   9.509  12.175   3.923 -0.1191  0.0263  0.0260
10227W        W27751  12.423  13.216  14.919  0.0956  0.1234  0.0598
10228W        W27752  16.428  13.875   1.247 -0.0308 -0.0861  0.1729
10229W        W27753  15.398   0.773  12.592 -0.0693  0.2918 -0.1191
10230W        W27754   1.089   5.695   5.299 -0.0897 -0.0890  0.0074
10231W        W27755   4.309  11.076  15.744 -0.2599  0.3600 -0.2072
10232W        W27756   8.924   3.378   3.751 -0.2817  0.1038  0.0737
10233W        W27757   1.008   5.602   1.986 -0.1730 -0.1954 -0.1061
10234W        W27758  14.880   3.374   4.079 -0.0605 -0.1282 -0.2136
10235W        W27759   1.206  11.700   2.607 -0.0303 -0.3541  0.1353
10236W        W27760   3.445  11.574  15.611  0.2646  0.2063  0.2288
10237W        W27761   9.471  14.226   1.058  0.0282 -0.1905  0.2600
10238W        W27762   4.570   4.788  16.579 -0.2137  0.0278 -0.0134
10239W        W27763   1.570  16.610   1.827  0.0492  0.3542  0.1163
10240W        W27764  16.705   1.023   4.976  0.0953 -0.2111  0.1944
10241W        W27765   9.181   0.384   1.331 -0.3595  0.0623  0.4046
10242W        W27766   4.283   3.052  13.257  0.0250  0.0946 -0.0546
10243W        W27767   5.716  11.472  14.878 -0.0987 -0.0009  0.0264
10244W        W27768   8.961  10.626  13.123 -0.0269  0.0299 -0.0241
10245W        W27769   0.605   2.664   2.791  0.3354  0.1521 -0.1154
10246W        W27770   2.758  17.198  16.011 -0.1175 -0.0184  0.3054
10247W        W27771   2.435   0.905  13.233  0.1163  0.1729 -0.2037
10248W        W27772  16.808  13.760  14.408 -0.0460 -0.0025  0.2732
10249W        W27773   9.692   9.259  12.049 -0.2222  0.0757  0.1627
10250W        W27774   2.152   4.249   3.723 -0.3034 -0.1830  0.0523
10251W        W27775  17.079   0.811  15.174  0.2662  0.0152 -0.1440
10252W        W27776  12.084  14.205  16.888  0.4075  0.1292  0.2403
10253W        W27777  12.620  14.833  14.533  0.1957 -0.2692 -0.0935
10254W        W27778   0.481  15.484   0.741  0.2710 -0.4471  0.0875
10255W        W27779   4.389   5.059   4.763 -0.2672 -0.0072  0.4447
10256W        W27780  16.778  16.750  15.839 -0.1222  0.0028 -0.0369
10257W        W27781   2.364   0.362  12.335  0.1752  0.0255 -0.0952
10258W        W27782  13.077  16.277  12.555  0.0022  0.2050  0.2310
10259W        W27783  14.741   6.048   2.309 -0.2140 -0.3207 -0.2063
10260W        W27784   6.307  10.804  12.806  0.1424 -0.4036 -0.0133
10261W        W27785  16.909  15.647   4.063 -0.0260  0.0393  0.0953
10262W        W27786  12.773  11.453   1.655 -0.0289 -0.1415 -0.0991
10263W        W27787  17.001  12.052   0.878  0.4474 -0.0174 -0.2690
10264W        W27788   2.625  16.917  16.388 -0.1877 -0.1237  0.2302
10265W        W27789  10.690   2.655   4.719  0.2231  0.2167  0.0458
10266W        W27790  12.780   0.377  16.394 -0.0964  0.1049 -0.1827
10267W        W27791  13.181   8.995   2.760 -0.1869 -0.2219  0.1560
10268W        W27792   8.878  14.864   1.956 -0.1169 -0.3191  0.0470
10269W        W27793   2.539  14.643  12.811  0.0998  0.1661  0.1352
10270W        W27794  10.807   3.958   3.416 -0.2052 -0.0980 -0.1224
10271W        W27795  11.139   8.553  12.813  0.5050 -0.2778  0.0874
10272W        W27796   9.143   0.711   5.015  0.0226  0.0268 -0.0762
10273W        W27797   5.759   9.614   4.156 -0.1173  0.0665  0.0899
10274W        W27798  10.661   9.981  14.435  0.2544  0.0209  0.0727
10275W        W27799  16.991   8.112   0.872  0.0852  0.5752  0.0238
10276W        W27800   4.378   3.569  15.357 -0.0092  0.2887 -0.0442
10277W        W27801   0.848  10.378  11.692  0.0608 -0.0141  0.1697
10278W        W27802   3.409   3.033   3.399  0.1326  0.0982 -0.3872
10279W        W27803   4.970  16.905  16.935 -0.0191  0.0677 -0.0863
10280W        W27804  10.056  14.331   2.317  0.0280 -0.2077  0.3936
10281W        W27805   3.826  15.473  16.107 -0.2755 -0.2687 -0.0258
10282W        W27806  13.450   2.344  13.755 -0.1937 -0.3412 -0.0815
10283W        W27807   2.868  12.615  17.404 -0.2278  0.0112  0.1517
10284W        W27808   3.127  12.710  13.234 -0.1237 -0.1924  0.1054
10285W        W27809   8.098  12.566   1.027  0.2109 -0.1746  0.2727
10286W        W27810   9.696   8.095  14.038  0.0981  0.0866  0.0661
10287W        W27811  10.017  13.121  13.674  0.1223  0.2665  0.0615
10288W        W27812   0.527   6.674  17.555  0.0656  0.0182  0.2393
10289W        W27813   9.522   6.420  16.130  0.0861 -0.0136  0.0223
10290W        W27814   2.471   4.464  13.504 -0.3892 -0.0190  0.0567
10291W        W27815  11.438  16.438   5.533  0.0749  0.2297  0.3107
10292W        W27816   0.713  16.228  14.447  0.1706  0.1436  0.0335
10293W        W27817  12.223  10.511   2.844  0.2904  0.3817  0.1258
10294W        W27818  15.747   8.397  15.851 -0.0409 -0.0422  0.1177
10295W        W27819   5.272  17.050   0.984  0.0045  0.0661 -0.1714
10296W        W27820  16.358   7.835   3.933  0.1552  0.0542 -0.0106
10297W        W27821  11.508   1.892  16.175  0.0586  0.2178  0.1677
10298W        W27822   9.935   0.711  13.390  0.0305 -0.3572  0.1067
10299W        W27823  13.434   1.318  13.145  0.2933  0.0542 -0.0659
10300W        W27824   3.617  14.950   5.518 -0.0830 -0.0322 -0.1325
10301W        W27825   9.955   1.020   1.695  0.0254  0.0500  0.0118
10302W        W27826   1.503   3.182   2.186 -0.1425 -0.3063  0.0107
10303W        W27827   9.307  11.913   0.502  0.0603 -0.0460  0.1080
10304W        W27828   4.907  16.983  16.035  0.1138 -0.0571  0.0546
10305W        W27829  12.769   4.934  15.714  0.2630  0.1196 -0.2440
10306W        W27830   2.912  14.346  16.068 -0.0780  0.0307 -0.0486
10307W        W27831   9.141  11.937   1.903  0.0903  0.1087 -0.2399
10308W        W27832   1.799   2.772  13.203 -0.1059  0.0824 -0.4798
10309W        W27833  14.087  13.755   3.388 -0.0642 -0.1142  0.2270
10310W        W27834  11.259  13.652   4.257  0.0053 -0.0099  0.0289
10311W        W27835   0.464   8.352   2.558  0.0806 -0.1011  0.0195
10312W        W27836   2.271   8.588  16.043 -0.1906 -0.0593 -0.0164
10313W        W27837   2.901   1.168   1.455 -0.0674 -0.1946 -0.1384
10314W        W27838  16.114   6.781  13.100 -0.0608  0.1273 -0.0354
10315W        W27839  10.633   2.108   0.031 -0.0867 -0.2359 -0.0004
10316W        W27840   0.721   6.546  16.712 -0.0053 -0.2146 -0.1759
10317W        W27841   4.266  16.818  14.800 -0.0682  0.2101  0.0074
10318W        W27842  16.970   0.009  16.363 -0.0059 -0.0158 -0.0749
10319W        W27843   4.856   1.944   4.237 -0.0295  0.1307  0.0970
10320W        W27844   2.067   5.471  14.163 -0.1263  0.1635 -0.0168
10321W        W27845  16.669  15.469   2.123  0.0263  0.2189 -0.3348
10322W        W27846  10.288  10.970   2.967 -0.1055 -0.1513  0.2146
10323W        W27847  16.505  16.439  14.315 -0.2727 -0.2154  0.5398
10324W        W27848   5.161   4.282  17.216  0.2408  0.1253 -0.0870
10325W        W27849   3.505   6.845  14.831 -0.1006  0.0394 -0.3317
10326W        W27850   1.314  13.533  16.815  0.4359  0.2528 -0.4788
10327W        W27851   9.937   3.551   3.715  0.0166 -0.1715  0.1097
10328W        W27852   8.869   1.590  17.548 -0.0064 -0.0774  0.0389
10329W        W27853   5.864   4.756   3.429  0.1666 -0.3379 -0.2647
10330W        W27854   2.048  12.281  14.059  0.0294 -0.1729 -0.1899
10331W        W27855  16.849   0.182  14.067  0.0659 -0.1601 -0.2270
10332W        W27856  15.526  11.339  14.069 -0.3844 -0.2410  0.0451
10333W        W27857   2.120  12.453  16.326 -0.0241 -0.0408 -0.0669
10334W        W27858   3.582   1.943  16.003  0.0879 -0.2734  0.1680
10335W        W27859   4.865  16.110  13.206 -0.2442  0.2321  0.2222
10336W        W27860   7.511   8.153  16.081  0.3468 -0.0835 -0.1003
10337W        W27861   3.960  16.663  13.634  0.3079  0.0747 -0.2357
10338W        W27862   6.392  14.291  16.518  0.1097  0.0996 -0.0224
10339W        W27863   7.780  15.206   4.690  0.0046 -0.0113 -0.1577
10340W        W27864   9.097  17.038  13.417  0.1951 -0.1299 -0.0787
10341W        W27865   5.098  11.537   2.929 -0.3674  0.2509 -0.1670
10342W        W27866   0.460   1.965  16.642  0.1607  0.3458  0.0751
10343W        W27867   6.900  16.924  16.372 -0.0313 -0.2004 -0.2305
10344W        W27868   3.976  15.877  14.737  0.1780 -0.0865  0.0480
10345W        W27869  14.943  15.666  14.987  0.3447  0.2485 -0.0701
10346W        W27870  11.112   4.581  15.168  0.0650  0.2389  0.0550
10347W        W27871   4.866  14.681  15.557  0.1649  0.2423 -0.1105
10348W        W27872   9.287   9.430  14.221 -0.1718 -0.1270  0.0952
10349W        W27873   4.701  16.443   4.974  0.2550  0.1191 -0.0322
10350W        W27874   6.544   4.537   5.396 -0.1650  0.0721  0.1547
10351W        W27875   1.580   7.033   4.730 -0.3861 -0.0897  0.1497
10352W        W27876  11.674   0.559   4.525 -0.5315 -0.1682  0.0640
10353W        W27877  16.603  12.126   0.277  0.2339 -0.1136 -0.0131
10354W        W27878   2.261   8.918  16.448 -0.1020  0.1031  0.1300
10355W        W27879   8.410  16.090   2.397 -0.0291 -0.3270  0.0337
10356W        W27880   5.247  11.925   4.965  0.0622 -0.0182  0.0464
10357W        W27881   8.012   0.358   3.650  0.1975  0.0636 -0.0366
10358W        W27882  15.604   1.417  15.913  0.1677  0.1131  0.1134
10359W        W27883   4.578   7.429   3.680  0.3092  0.1224  0.0819
10360W        W27884  11.850  13.175  12.647 -0.0404  0.0461 -0.0949
10361W        W27885   1.557   4.236   3.080  0.2885 -0.2291  0.0066
10362W        W27886   2.033   6.113  15.922 -0.3144 -0.0839  0.0472
10363W        W27887   6.586  14.707  11.398  0.0016 -0.1647 -0.1870
10364W        W27888  12.999   5.647   0.701 -0.0901 -0.2971  0.1748
10365W        W27889   9.439  11.473   4.662  0.4927  0.1008 -0.1335
10366W        W27890  13.021  13.853   4.351 -0.0589 -0.1932 -0.0041
10367W        W27891   5.242  11.610   1.411  0.3248 -0.1479  0.1576
10368W        W27892   0.574   9.223   2.610  0.1732  0.0269  0.0978
10369W        W27893   7.690   3.255  12.375 -0.0112 -0.1627 -0.2586
10370W        W27894  10.721   9.415  16.566 -0.2106 -0.0691  0.1569
10371W        W27895  15.405   2.906  16.044  0.5131 -0.0552 -0.0539
10372W        W27896   0.486   8.615  16.761 -0.0802 -0.1595 -0.1349
10373W        W27897   7.949   6.163   3.419 -0.0614 -0.0076  0.3365
10374W        W27898   6.817   7.685   1.057  0.2140 -0.1844 -0.1606
10375W        W27899  12.949   6.682   5.363 -0.0789 -0.1848 -0.0518
10376W        W27900   6.039   6.965  16.078  0.1142  0.1660 -0.2231
10377W        W27901   9.418   2.407  15.003 -0.1580 -0.2912  0.1522
10378W        W27902   0.483   0.156   0.616 -0.1004 -0.0267 -0.0269
10379W        W27903  16.121   5.174   0.720  0.4369  0.1056  0.1095
10380W        W27904   3.683   9.082  12.395 -0.3405 -0.3670 -0.1981
10381W        W27905  16.926  10.771  14.318 -0.0918 -0.1424  0.0523
10382W        W27906   8.101  14.661   4.136  0.2814  0.1350 -0.2312
10383W        W27907   3.160  15.522  12.759 -0.0381  0.1310  0.2396
10384W        W27908   3.587   2.881  14.029  0.0247  0.0603 -0.0248
10385W        W27909   4.474  13.622   4.674  0.4209 -0.2051 -0.0678
10386W        W27910   2.890  16.594   2.392 -0.0802  0.0379  0.3726
10387W        W27911   8.592   6.418   5.673 -0.1062 -0.2978 -0.0148
10388W        W27912   1.448  10.614  12.958  0.3151  0.2147 -0.1941
10389W        W27913   0.906  17.097  14.494  0.5165 -0.0533 -0.0916
10390W        W27914  11.303   7.230   5.034 -0.1352 -0.0767 -0.4122
10391W        W27915   2.503  11.656  11.833 -0.0824  0.1301 -0.0187
10392W        W27916  10.032   5.366   3.746 -0.1570  0.0925 -0.1696
10393W        W27917  14.123   9.164   1.868  0.1492 -0.0364  0.1049
10394W        W27918   6.912  14.397   2.692  0.0444  0.0510 -0.1647
10395W        W27919   0.134   7.304   3.045 -0.1972 -0.1243  0.1578
10396W        W27920  14.783  13.911  12.781  0.1144  0.0860  0.0476
10397W        W27921  12.442  11.054   3.473 -0.0330  0.1267 -0.1127
10398W        W27922   6.494   6.736  16.187  0.1892 -0.1591 -0.2333
10399W        W27923  12.623  14.244   2.759 -0.3534 -0.0695 -0.1161
10400W        W27924   6.073  13.861   2.747 -0.3858 -0.2115 -0.3117
10401W        W27925  14.325   9.725   3.961  0.3735  0.0356 -0.1044
10402W        W27926   0.163   0.799  13.768 -0.0312  0.1157 -0.2256
10403W        W27927   9.533   2.199   3.353  0.2641  0.0520  0.4857
10404W        W27928  15.740   4.349  12.066  0.1737 -0.0405 -0.1553
10405W        W27929   7.117  14.108   3.267  0.3011  0.1883  0.0773
10406W        W27930  15.830  17.209   5.229 -0.0984  0.0609  0.1357
10407W        W27931  12.618  16.333   2.812  0.5551 -0.0844 -0.0441
10408W        W27932   1.554   2.331   0.564 -0.2135 -0.3185  0.0958
10409W        W27933  16.608  13.580  15.067 -0.1988 -0.0327  0.0938
10410W        W27934  10.776  16.828   3.216 -0.3158  0.0424  0.1598
10411W        W27935   3.991  16.626   1.158 -0.3937  0.0017 -0.0712
10412W        W27936  10.806   8.683  15.175 -0.0412 -0.1663 -0.0986
10413W        W27937  14.562   4.927  14.054 -0.2118  0.1610 -0.0097
10414W        W27938   3.184   5.747   2.308 -0.3357  0.0165 -0.3081
10415W        W27939   7.461   6.130  13.635  0.4087 -0.3498 -0.2808
10416W        W27940  14.950  12.229  15.264  0.0570 -0.2053  0.2593
10417W        W27941  10.947   7.996   4.866  0.1309 -0.1497 -0.4243
10418W        W27942   9.092  11.281  11.653 -0.1783  0.0378 -0.2302
10419W        W27943   9.282   8.891  13.267  0.2257 -0.1853  0.0521
10420W        W27944   4.706  15.236  13.228  0.1770 -0.1326  0.1198
10421W        W27945   2.130  15.983  16.045  0.2222  0.6391 -0.1309
10422W        W27946   6.571   4.075  12.923  0.0933 -0.1085  0.0666
10423W        W27947  13.042  17.176   6.212 -0.0322  0.2381  0.3495
10424W        W27948  16.045  16.539  11.203  0.0913  0.0903  0.2060
10425W        W27949   2.806   2.089   0.074  0.0556 -0.0303  0.0759
10426W        W27950   7.959   1.721  13.582  0.0271  0.0379 -0.2811
10427W        W27951   0.964   4.239  15.342 -0.2195  0.1108 -0.0125
10428W        W27952  17.122   3.806  14.412  0.2209 -0.1522  0.0003
10429W        W27953  13.762   0.546   0.196 -0.0407  0.0837 -0.0754
10430W        W27954   2.967   9.434   5.159 -0.2423  0.0084 -0.2233
10431W        W27955  16.513   9.373  12.459 -0.1652  0.0080  0.0335
10432W        W27956   7.212  13.387   0.304  0.1024  0.1760  0.0180
10433W        W27957   2.038  10.831  11.549  0.4622 -0.0172  0.0368
10434W        W27958  14.420   4.666   1.386 -0.2892  0.3367 -0.3150
10435W        W27959   8.428  16.820  15.530  0.1555 -0.0697  0.0823
10436W        W27960   2.219  11.964  17.207 -0.0457 -0.0023 -0.0182
10437W        W27961   3.940  16.131  15.681  0.1491 -0.0777  0.1012
10438W        W27962  11.121  11.373  13.143 -0.3310  0.1322 -0.0088
10439W        W27963   5.787  10.887  12.653 -0.1700  0.1766  0.0456
10440W        W27964  12.717   8.979  13.516 -0.1284  0.0130  0.2890
10441W        W27965  12.799  10.941  15.472 -0.2891  0.0715  0.1230
10442W        W27966  13.969   1.744  16.418 -0.0078  0.0098 -0.2065
10443W        W27967   4.962   3.110  16.445 -0.1879 -0.1306 -0.2287
10444W        W27968  12.332  13.438   3.800 -0.3289 -0.1615 -0.0644
10445W        W27969   7.285   8.247  15.416  0.1687 -0.2340  0.3526
10446W        W27970  11.358  12.534   0.651  0.1897  0.1641  0.1749
10447W        W27971   8.557   0.014   5.677  0.1318 -0.0494  0.0258
10448W        W27972  13.789  13.697  16.133  0.0693  0.1919 -0.0104
10449W        W27973   0.738   3.491  16.846  0.0052  0.1631 -0.1273
10450W        W27974  14.789   4.444  13.976 -0.1286  0.4017 -0.2120
10451W        W27975   3.897   4.440  17.403  0.2713  0.1446  0.1113
10452W        W27976   5.378   6.885  16.186  0.2176 -0.0088  0.0321
10453W        W27977   6.417  16.959   1.068 -0.0322  0.0480  0.0173
10454W        W27978   4.690  10.093   1.770  0.1256 -0.2119 -0.0872
10455W        W27979   5.104   0.810   1.991  0.3805  0.0821 -0.1061
10456W        W27980   1.648  13.628   5.299  0.1082 -0.0326 -0.0469
10457W        W27981  14.453  15.309  17.598 -0.2053 -0.0550 -0.2917
10458W        W27982  16.943   9.560   1.047 -0.0505  0.0606 -0.2453
10459W        W27983   7.427  13.473   5.009 -0.0036  0.0013 -0.2335
10460W        W27984   9.102  15.111   5.533  0.1241  0.3203  0.5389
10461W        W27985  16.559   6.733   1.898  0.3448 -0.3675  0.0209
10462W        W27986  16.263  10.422   3.965  0.0274  0.0460 -0.0855
10463W        W27987   1.825   4.243   0.583 -0.1508 -0.4742  0.1101
10464W        W27988  13.288  12.521  17.262  0.0622 -0.2921  0.1565
10465W        W27989   9.080   3.469  15.079  0.1797 -0.2182 -0.3701
10466W        W27990   2.962   5.459   1.079  0.1813 -0.0432  0.0492
10467W        W27991   9.829  17.027   3.168  0.0041  0.2253  0.0792
10468W        W27992   2.387  14.464  16.660 -0.1841  0.1257 -0.1159
10469W        W27993   6.750  16.039   3.808  0.1053  0.0675 -0.1705
10470W        W27994   5.456   3.505   1.711  0.0702  0.3767 -0.1693
10471W        W27995  13.019  11.025  13.510 -0.2051 -0.2399 -0.0928
10472W        W27996   6.857  12.463  16.539 -0.0013 -0.0312 -0.0554
10473W        W27997  12.749   2.869  16.376 -0.2154 -0.3967 -0.0228
10474W        W27998   0.135   0.142  16.700  0.2027  0.1672 -0.3729
10475W        W27999   9.372  16.152  17.632 -0.3181 -0.0928  0.1318
10476W        W28000   7.039  15.836   4.907 -0.0433  0.1004 -0.0903
10477W        W28001  16.600  17.083   0.939 -0.0239  0.1484 -0.0954
10478W        W28002  15.478  11.865  14.334 -0.0427  0.3005 -0.1318
10479W        W28003   3.360  12.701  14.081  0.0177 -0.0387  0.0731
10480W        W28004  10.550   9.550  13.622 -0.0588 -0.3715  0.1943
10481W        W28005  16.398  14.066  14.103  0.0199 -0.3186  0.5126
10482W        W28006  13.995  10.821  12.283  0.0960  0.1972  0.0625
10483W        W28007   2.709  16.323  12.919  0.1896 -0.2143  0.2285
10484W        W28008   0.306  12.742   2.927 -0.0176  0.2732  0.0885
10485W        W28009   3.796   5.884   1.222  0.2334  0.0966  0.1057
10486W        W28010  10.744  15.514  12.859  0.2613 -0.1543  0.0439
10487W        W28011  10.005   0.882   0.334  0.0056 -0.0146  0.2782
10488W        W28012   0.528  14.618  12.827 -0.0449  0.1082  0.1364
10489W        W28013   7.886   8.074  15.643 -0.1051 -0.1716  0.1525
10490W        W28014  10.600  14.015   4.365  0.0324  0.0925  0.1066
10491W        W28015   6.286   8.327  17.634  0.3145  0.0082 -0.0986
10492W        W28016   1.277  12.942  13.168  0.0733  0.1830 -0.0196
10493W        W28017   1.159   6.421  15.883 -0.0211 -0.0649  0.2266
10494W        W28018  12.265   7.445  16.399  0.1017 -0.0953 -0.1106
10495W        W28019   8.006  13.283  17.223 -0.3007  0.2664 -0.2011
10496W        W28020   3.641   4.529   4.653  0.1380 -0.1697  0.2714
10497W        W28021  12.797   9.332   1.541 -0.0529 -0.2203  0.2787
10498W        W28022  15.579   1.775  14.055 -0.1244 -0.1725  0.3956
10499W        W28023  14.050  15.705   3.760  0.0948 -0.1963  0.0817
10500W        W28024   4.743  13.979   5.680 -0.0954  0.0445  0.0927
10501W        W28025  14.212   9.804  15.260  0.0989 -0.0165 -0.1279
10502W        W28026   5.855   0.111  12.907 -0.2573  0.3342  0.0860
10503W        W28027   7.284  15.008  15.070  0.3005 -0.2126 -0.0664
10504W        W28028   0.020   6.185  13.105  0.2699  0.1624  0.0623
10505W        W28029  12.572  14.201  13.477 -0.3165  0.0720  0.3890
10506W        W28030   0.976  11.329   2.773 -0.3163  0.1544 -0.1680
10507W        W28031   1.887   6.591  16.574 -0.0444  0.2533 -0.0920
10508W        W28032   3.855   4.163   0.700 -0.1341  0.0201 -0.1151
10509W        W28033   8.648  15.364   1.781  0.0147 -0.0624  0.2565
10510W        W28034  16.095   3.744   1.407  0.0817 -0.0140 -0.2610
10511W        W28035   3.458  13.990   5.168 -0.4891  0.2357 -0.1806
10512W        W28036   8.346  15.232   0.727  0.0680  0.2408  0.0869
10513W        W28037  14.132   8.224   2.986  0.2137 -0.1316  0.0240
10514W        W28038  17.199   0.227   3.317  0.1918  0.1157 -0.4756
10515W        W28039   1.096  11.981   5.169  0.0204 -0.1967  0.1482
10516W        W28040   1.181  12.145  12.862  0.1127  0.0301  0.2248
10517W        W28041   8.851   2.942   5.374  0.1750 -0.0503 -0.1008
10518W        W28042   1.156   4.461  14.176  0.2225 -0.0807  0.1567
10519W        W28043   6.535  12.943   1.659 -0.2156  0.1269 -0.1083
10520W        W28044  13.685   5.086  17.503  0.1427  0.0908 -0.0302
10521W        W28045   8.061   7.171  14.090  0.1615 -0.2684  0.0158
10522W        W28046   3.745   3.092   2.885  0.1749 -0.2254  0.1019
10523W        W28047   2.114   8.155   3.364  0.0787  0.0346  0.2690
10524W        W28048   5.377  12.236   0.383  0.3434 -0.0347  0.0249
10525W        W28049   0.810  15.763  12.341  0.1556 -0.3075 -0.2524
10526W        W28050   2.226   4.150  14.344 -0.1787 -0.1547  0.1548
10527W        W28051   7.092  14.894  11.515 -0.0741 -0.2333 -0.2357
10528W        W28052   7.345  13.395   3.151  0.0818 -0.2160 -0.0341
10529W        W28053  13.451   6.510  13.174 -0.0379 -0.3048 -0.0906
10530W        W28054  13.543   9.307   4.040  0.1082 -0.2606  0.2923
10531W        W28055   7.977   6.123  17.413 -0.2602 -0.2098  0.2268
10532W        W28056   0.307  14.418  15.862 -0.1837 -0.0951  0.1053
10533W        W28057  13.886   1.483  14.937 -0.0032  0.0216 -0.3642
10534W        W28058   4.457   7.880   4.050 -0.1825 -0.2247  0.0086
10535W        W28059   6.486  12.649  12.918  0.2282  0.0301 -0.0399
10536W        W28060   1.719   2.000   0.885  0.1303 -0.0095  0.1162
10537W        W28061   7.498   5.860   5.047  0.0548  0.1198  0.1357
10538W        W28062  11.116   3.705  14.106  0.3015  0.0150 -0.0347
10539W        W28063   6.213  14.726   4.001  0.0768  0.1153 -0.1878
10540W        W28064   8.213  15.732   2.718  0.1909 -0.0719 -0.1734
10541W        W28065  10.992  13.313   2.564 -0.0275  0.1223 -0.0658
10542W        W28066  14.986   0.417  16.159 -0.2251  0.1161 -0.3043
10543W        W28067   6.930  10.485  13.331  0.0552  0.0244 -0.2099
10544W        W28068   9.108  11.311  14.190  0.0057 -0.1312 -0.3230
10545W        W28069   6.098   8.044   5.244 -0.1202  0.1253  0.3344
10546W        W28070  16.465   9.839  16.992  0.2700 -0.2467 -0.2417
10547W        W28071   8.377   9.211  13.464  0.3069  0.0815  0.0606
10548W        W28072   7.910  15.169   3.437  0.3155  0.2621  0.0273
10549W        W28073  13.822   3.389   3.971  0.3578  0.1095 -0.0680
10550W        W28074   7.504  14.017   3.559 -0.0569 -0.1578  0.0765
10551W        W28075   0.104   9.285   2.321 -0.1122  0.0142 -0.0426
10552W        W28076   4.755  16.721  12.352 -0.3666 -0.0432 -0.0094
10553W        W28077   6.047  16.498   5.374  0.1505 -0.2100 -0.3454
10554W        W28078  14.086  11.248  16.837  0.1459  0.0724 -0.3958
10555W        W28079   4.848  16.824   4.118 -0.2088 -0.3731 -0.0465
10556W        W28080   9.276   3.313  14.596  0.1481  0.0402 -0.0588
10557W        W28081  16.624  15.065  13.359 -0.1111  0.1093  0.1009
10558W        W28082   5.320   1.004   4.485  0.0336 -0.1713 -0.0192
10559W        W28083   3.201  17.238  16.210 -0.0709 -0.3888  0.2606
10560W        W28084   8.135   5.910   4.692 -0.0932 -0.4179  0.2744
10561W        W28085   8.382   3.315  15.027  0.1454 -0.2375 -0.0973
10562W        W28086   4.968   2.741   4.078 -0.1602 -0.1469  0.0858
10563W        W28087   2.391  12.495   5.550 -0.0549  0.0945  0.0418
10564W        W28088  12.452   7.868   4.533  0.0253 -0.0199  0.1030
10565W        W28089   3.570  15.459   0.665 -0.3084  0.0425 -0.0891
10566W        W28090  13.393   7.512  17.477  0.1649  0.0330  0.2528
10567W        W28091  14.194   2.141  14.863 -0.0181 -0.1210 -0.0759
10568W        W28092  10.231   9.484   3.258 -0.0038  0.2865 -0.3583
10569W        W28093  16.683   1.419  12.314  0.3058 -0.0049  0.0492
10570W        W28094   1.650  14.347   2.032 -0.2375 -0.3221 -0.0774
10571W        W28095  12.657  17.182  16.720  0.0711 -0.0151  0.1904
10572W        W28096  13.483   2.938  13.145  0.1738 -0.2591  0.2200
10573W        W28097   5.433  14.355  16.311  0.3999 -0.2190  0.1032
10574W        W28098  16.583   1.061  16.752 -0.0136  0.0927  0.1738
10575W        W28099   5.908  10.518   0.504  0.1651  0.1929 -0.1829
10576W        W28100   0.992  14.113  17.464  0.0826 -0.2173 -0.1574
10577W        W28101   8.798  12.271   3.602 -0.0544 -0.3771  0.3508
10578W        W28102   8.440   0.858   0.942 -0.0108  0.0374  0.0564
10579W        W28103   1.364   0.146  13.890 -0.1112 -0.2901 -0.1129
10580W        W28104   2.808  15.663   0.237  0.0439 -0.0606 -0.1661
10581W        W28105   6.924   4.338  16.770  0.0237  0.2294 -0.2941
10582W        W28106  10.883   6.809  16.898 -0.1447 -0.2329 -0.2522
10583W        W28107   2.382  14.574  14.652 -0.0678  0.1037  0.0344
10584W        W28108  10.589  10.828  13.909 -0.0143  0.0255 -0.2841
10585W        W28109   2.176   1.846   3.148  0.3631  0.0172  0.1703
10586W        W28110   2.538   1.254  12.233 -0.0179  0.0485  0.0567
10587W        W28111   1.689  15.651  13.369  0.2331 -0.2375 -0.0052
10588W        W28112  13.956   4.818  14.201 -0.0038  0.0394  0.0247
10589W        W28113  14.266   0.771   5.429  0.1412  0.3843  0.1753
10590W        W28114   1.318   6.046  14.199 -0.1071 -0.3605 -0.0880
10591W        W28115  10.973   9.855   0.517  0.0940 -0.1630  0.0192
10592W        W28116   8.026  10.089  16.973  0.0959 -0.1788 -0.2431
10593W        W28117   4.282  12.928  13.674  0.3933  0.1250  0.1819
10594W        W28118  11.237   6.442   1.103  0.2074 -0.0292 -0.4850
10595W        W28119  15.249   4.961   2.985 -0.0934 -0.0319  0.1020
10596W        W28120  16.855   6.727  13.894  0.0533 -0.0353  0.0424
10597W        W28121  15.167  13.311  16.532  0.1458  0.1062  0.1884
10598W        W28122   9.375   0.966   4.584  0.0253 -0.0734  0.0308
10599W        W28123  14.425   9.005   0.925 -0.1252  0.0189  0.3079
10600W        W28124  16.550   8.904   5.671 -0.4913  0.0222  0.0432
10601W        W28125   0.889   1.967  16.948 -0.0520 -0.1264 -0.2057
10602W        W28126   6.808   1.268   1.691  0.4195 -0.1389  0.1533
10603W        W28127  16.260  12.475  12.571  0.0153 -0.0230 -0.2566
10604W        W28128   7.992  15.221   3.928 -0.2556 -0.6172 -0.0311
10605W        W28129  16.968   1.307  16.927  0.2685 -0.0059 -0.1946
10606W        W28130   0.744   3.918   4.469  0.1979 -0.1823 -0.0114
10607W        W28131   5.209   4.777   4.154 -0.3368  0.0359 -0.1226
10608W        W28132   4.048   0.414  13.116  0.0639  0.3436  0.0469
10609W        W28133  16.111   0.993  13.394 -0.0186 -0.0312 -0.0748
10610W        W28134   2.831  17.049   0.065  0.3061 -0.1770 -0.1380
10611W        W28135   4.791   3.379   4.630  0.1956 -0.2668  0.0208
10612W        W28136  13.138  16.128  17.311 -0.0537  0.2547  0.2665
10613W        W28137   9.150  14.177   5.425 -0.1012 -0.0341  0.2731
10614W        W28138  10.179   6.340   0.106 -0.0526 -0.2441  0.1160
10615W        W28139   5.489   2.938  11.628  0.0980  0.1736  0.0992
10616W        W28140   9.201   4.951   5.499  0.1133  0.1465  0.0799
10617W        W28141   9.600  14.803   4.871 -0.1262 -0.2038 -0.0088
10618W        W28142   7.626   3.582  15.366 -0.2617  0.0443 -0.1972
10619W        W28143   6.071   5.400   2.603 -0.1275 -0.0816 -0.0481
10620W        W28144   1.802  15.551   4.131  0.1318  0.4685 -0.1808
10621W        W28145   2.973   0.795  13.054  0.0910 -0.3196 -0.1555
10622W        W28146   8.158  13.895  15.644 -0.0133  0.1661  0.0276
10623W        W28147   8.082   9.900  17.550  0.0229 -0.0426  0.0792
10624W        W28148  14.980  13.498   3.185 -0.2935 -0.2469 -0.0569
10625W        W28149  13.985   0.282  16.087 -0.2525  0.1121 -0.0711
10626W        W28150  15.552  13.837  11.461  0.2154  0.0755 -0.3684
10627W        W28151  12.875  12.903  14.618  0.1331 -0.2759 -0.0009
10628W        W28152  13.872   0.124  16.603  0.2116  0.0646 -0.0586
10629W        W28153  10.933  14.281  17.646 -0.2327 -0.1153  0.0380
10630W        W28154  14.332  10.075  12.652  0.0650  0.1074  0.3151
10631W        W28155  13.929   6.240   3.003  0.0823  0.1398  0.0361
10632W        W28156   1.861   0.451   4.953  0.3782 -0.0472  0.0441
10633W        W28157  11.450  12.034   4.446  0.0243  0.0522  0.2238
10634W        W28158  15.195   4.418  12.100  0.0416  0.0816  0.1832
10635W        W28159  14.593   8.937  14.720 -0.0229 -0.0773 -0.1089
10636W        W28160  10.693  14.348   3.675  0.0058 -0.0458  0.1560
10637W        W28161  12.776  13.935  17.449  0.0097 -0.2132 -0.1694
10638W        W28162  10.611   2.919   0.386 -0.0874 -0.0027 -0.1679
10639W        W28163   0.460  14.917   0.003 -0.0342 -0.1500  0.2073
10640W        W28164   2.729  10.307  13.669 -0.0206  0.1810 -0.0124
10641W        W28165   6.078   8.826   1.360  0.1156 -0.3626  0.3371
10642W        W28166   7.927  11.405  12.971 -0.0404  0.0332 -0.1293
10643W        W28167   0.679  14.486  17.640 -0.0606 -0.0012  0.1319
10644W        W28168  16.656   4.698   2.867  0.1203 -0.0263  0.0648
10645W        W28169   4.898   9.885  16.869 -0.2100 -0.1208 -0.0520
10646W        W28170   8.018   0.628  16.867  0.1198 -0.0864 -0.3599
10647W        W28171  14.260   5.545   1.434  0.0700  0.0472 -0.0157
10648W        W28172  14.822  11.632   2.331 -0.0972 -0.1988  0.1648
10649W        W28173  17.059  11.684  16.202 -0.2214  0.2345 -0.1183
10650W        W28174   3.212   5.779   4.188  0.0326 -0.1785 -0.0061
10651W        W28175   0.560   2.589   0.563 -0.1056 -0.2941 -0.2302
10652W        W28176   8.045  15.539  15.128  0.3242  0.1499  0.0310
10653W        W28177   3.110  16.559  11.504  0.0866 -0.2642  0.1894
10654W        W28178  10.174  14.200  13.793  0.2830 -0.0029  0.0909
10655W        W28179  11.219   5.474  13.666  0.3435 -0.0522  0.0190
10656W        W28180  14.543   2.540  14.769  0.1384 -0.1696  0.1679
10657W        W28181   2.561  10.591  17.368  0.5393 -0.0881 -0.2143
10658W        W28182  13.739   5.231   4.793  0.1715  0.0206  0.1519
10659W        W28183  12.046   5.382   5.592 -0.0206  0.1455  0.1004
10660W        W28184  10.350   7.555  13.772 -0.0116  0.1882  0.0119
10661W        W28185  14.692  14.196  14.138  0.0902  0.2201  0.3446
10662W        W28186   3.853  11.485  15.143  0.2502  0.0339  0.2626
10663W        W28187  16.045  16.703   5.170  0.0654  0.1066 -0.0062
10664W        W28188  17.098  12.333   0.436 -0.1218 -0.3637  0.0096
10665W        W28189   0.117   6.974   2.647 -0.1524 -0.0987  0.2780
10666W        W28190  13.460  15.536   2.352 -0.0712 -0.1540  0.0890
10667W        W28191  13.102   9.705  11.934 -0.0450  0.5775  0.0656
10668W        W28192   9.070  13.129   3.294 -0.1006 -0.0191  0.1057
10669W        W28193   1.813   5.642  16.473 -0.2216 -0.0881  0.0200
10670W        W28194   6.244   9.324  13.330 -0.0679  0.2155 -0.2183
10671W        W28195  13.872   7.770  15.160 -0.0638 -0.0760 -0.2008
10672W        W28196   7.903   3.671  13.977 -0.1870  0.1290  0.2166
10673W        W28197  12.445  12.349   2.997  0.2123 -0.0056 -0.0814
10674W        W28198   9.340  11.327   5.291 -0.2974 -0.0501 -0.0245
10675W        W28199  13.464  16.045   3.091  0.0446 -0.1145 -0.1048
10676W        W28200  10.500   1.010  17.119  0.1630 -0.1165 -0.0076
10677W        W28201  14.356   0.029  15.793 -0.1500 -0.3495  0.5470
10678W        W28202  14.165   7.722  13.020 -0.2054  0.1511  0.2032
10679W        W28203   3.365   9.614  15.581  0.0305 -0.1217  0.1288
10680W        W28204   5.300  11.403  13.517  0.0520  0.1030  0.3355
10681W        W28205   2.942   6.567  15.897 -0.1967 -0.2482  0.0753
10682W        W28206  16.966  10.659  13.842 -0.1771  0.0130 -0.0832
10683W        W28207   9.982   8.496  16.886  0.0089 -0.3097 -0.3290
10684W        W28208   6.227  16.971  17.369 -0.0495  0.2503 -0.0878
10685W        W28209  10.070   2.517  15.780 -0.1316  0.1234  0.5018
10686W        W28210  15.337  11.540  17.416 -0.0380 -0.0867 -0.0995
10687W        W28211  14.155   1.392   2.013 -0.0083  0.0411  0.1786
10688W        W28212  10.205   0.712   4.313 -0.3182  0.2273 -0.0663
10689W        W28213  14.936   2.806  12.151 -0.2155  0.0163  0.0762
10690W        W28214   2.437   6.067   0.382  0.0904  0.0151  0.0681
10691W        W28215   6.447  13.316  14.909  0.2741  0.0994 -0.2138
10692W        W28216   8.127   3.619  15.371  0.1012  0.2170 -0.1352
10693W        W28217   8.072  12.340  15.387 -0.1418  0.1852  0.1920
10694W        W28218   4.866   1.644   2.568 -0.1107 -0.0904 -0.0186
10695W        W28219   8.871   3.493  13.074  0.0252 -0.0878 -0.0306
10696W        W28220   8.026  14.362  14.698  0.0715  0.1809  0.0386
10697W        W28221   3.223  12.426   3.127  0.0716 -0.1769 -0.1797
10698W        W28222   4.062   8.042   4.205  0.0204 -0.0375  0.1963
10699W        W28223  10.229   7.237  12.401  0.2609  0.0092 -0.0167
10700W        W28224  11.078  13.572   3.251  0.2222 -0.0278 -0.2210
10701W        W28225   5.213   1.440  17.124 -0.2628  0.0537 -0.2098
10702W        W28226   6.649   3.196  14.243 -0.0829 -0.0497  0.1360
10703W        W28227   9.236  13.921  12.794  0.0510 -0.0681 -0.1193
10704W        W28228  13.821   2.420   5.534 -0.0925 -0.2048  0.0308
10705W        W28229   7.414   6.801  15.887 -0.1704  0.1685  0.0965
10706W        W28230  16.709   3.275  12.385  0.0575  0.1301  0.3009
10707W        W28231   2.616  16.299  11.774  0.1003  0.1086 -0.0074
10708W        W28232  11.959  13.182   0.829 -0.4445 -0.0901  0.1430
10709W        W28233  15.603  14.977   3.415  0.1553  0.1297  0.2202
10710W        W28234   0.657  15.611   1.201  0.1048  0.0857 -0.0997
10711W        W28235  13.111  11.099   3.244  0.1223  0.1269 -0.2814
10712W        W28236  17.181   4.284  14.005  0.0934 -0.0757 -0.3150
10713W        W28237  17.120   7.470   4.317  0.1442 -0.0103 -0.0843
10714W        W28238  11.156  11.350   1.807 -0.0893 -0.1094 -0.1663
10715W        W28239   6.726  16.601  11.947 -0.0656  0.0212 -0.0180
10716W        W28240   3.705  14.418  17.634 -0.1867  0.1459 -0.1264
10717W        W28241   4.857   0.814   3.329  0.1270 -0.0601 -0.0512
10718W        W28242   4.779   1.778   1.951 -0.2850  0.2400 -0.0451
10719W        W28243  14.948   0.316   4.144 -0.1291  0.1737  0.1500
10720W        W28244  12.371  14.064   4.161 -0.1696  0.0605  0.0053
10721W        W28245   1.774   1.599   3.447 -0.0385 -0.1554  0.1311
10722W        W28246  13.994   7.267  15.076  0.1450  0.0284 -0.1993
10723W        W28247  16.920   2.713   2.926  0.0748  0.0541 -0.3495
10724W        W28248  15.350  14.667  13.026  0.1118 -0.3160 -0.2247
10725W        W28249  13.178   9.094  16.626 -0.1908  0.0678  0.0217
10726W        W28250  15.456   9.399   0.432 -0.0742  0.0549  0.0883
10727W        W28251   6.183  11.229  12.483  0.1105 -0.3958  0.0048
10728W        W28252  11.390   6.154  13.000 -0.2204 -0.0439  0.0887
10729W        W28253   2.862  15.375   5.915 -0.0976  0.0720  0.2735
10730W        W28254   1.343   6.981  17.157 -0.0776  0.1209 -0.0847
10731W        W28255   1.920  15.657  14.224 -0.0412 -0.0875 -0.2198
10732W        W28256  16.962   6.919  17.134  0.0417 -0.0419  0.2074
10733W        W28257   1.672   8.870  15.565  0.2960 -0.3397  0.3123
10734W        W28258  12.729  14.284  12.355  0.1528 -0.1168 -0.1605
10735W        W28259   6.960   8.245   1.063 -0.0307  0.1475 -0.0490
10736W        W28260  16.375   2.551   0.007 -0.1546 -0.1429  0.0066
10737W        W28261  11.091  10.907  16.515  0.0115 -0.0830 -0.2140
10738W        W28262  16.690  12.136  13.770  0.2581  0.0167 -0.1940
10739W        W28263   5.825   2.304   1.191 -0.2544  0.0020 -0.1499
10740W        W28264  12.348   8.557  14.083  0.0360 -0.3229 -0.1285
10741W        W28265   9.121  11.021   4.952  0.0058  0.0062 -0.2185
10742W        W28266  11.849  16.490  16.752 -0.0235 -0.2986 -0.2439
10743W        W28267   4.326  15.073   0.173 -0.1460  0.0586  0.1535
10744W        W28268  10.106   8.881   1.357 -0.2088 -0.1986 -0.0023
10745W        W28269   0.888  16.787   1.299  0.1232  0.3502  0.1705
10746W        W28270   4.119   8.744   0.833  0.1538  0.3489  0.0458
10747W        W28271   1.354   4.521   0.220 -0.1526  0.1868 -0.0448
10748W        W28272  16.975   2.635  16.500  0.1651 -0.0384  0.1405
10749W        W28273  13.390   3.239  15.236  0.0852  0.1067 -0.0650
10750W        W28274  15.547   1.292  13.945 -0.0478  0.0600 -0.0787
10751W        W28275   4.936  13.465  13.230 -0.0190 -0.2970 -0.0641
10752W        W28276   8.930   6.451   2.205  0.1583  0.0050  0.1446
10753W        W28277   3.523   5.334   3.688 -0.0162 -0.0819  0.1807
10754W        W28278  11.448  16.060   0.237 -0.4409  0.2096  0.0194
10755W        W28279   3.807   2.393   5.547 -0.1973  0.0665  0.2329
10756W        W28280  11.242  10.810   1.955  0.2032 -0.2703  0.0078
10757W        W28281   9.613  14.727  12.924  0.1195 -0.1191 -0.1196
10758W        W28282   0.782   3.207  17.307  0.1409  0.0052 -0.3165
10759W        W28283   8.532   8.416  14.778  0.2351  0.0598 -0.0144
10760W        W28284   3.602   9.751  14.569  0.0405 -0.3439 -0.0883
10761W        W28285  14.580  17.039   2.899 -0.2799 -0.3738 -0.0326
10762W        W28286  16.663  10.872   3.649  0.0372 -0.2050 -0.3446
10763W        W28287  13.981   4.249   1.312  0.0080  0.0658  0.0692
10764W        W28288  10.247   6.564   0.869 -0.1192 -0.1034 -0.1664
10765W        W28289   3.815  16.942   0.809  0.0527 -0.1810  0.0054
10766W        W28290   7.083   8.690  12.509  0.0498 -0.1677  0.2078
10767W        W28291  15.412   2.815  15.570 -0.2116  0.1686  0.0093
10768W        W28292   3.134   6.210   0.839  0.2045  0.1391  0.1283
10769W        W28293  15.038   1.667   4.549  0.0451  0.1285  0.0377
10770W        W28294   4.309   8.547   1.305  0.2055  0.0499  0.1854
10771W        W28295   0.541   3.718  11.952  0.2030  0.0763  0.0290
10772W        W28296   5.097  13.075   4.469 -0.2085 -0.1313 -0.2221
10773W        W28297  17.127  10.160  15.027 -0.0324  0.0626 -0.0760
10774W        W28298   3.785   7.526  11.893 -0.1245  0.3962 -0.0977
10775W        W28299  13.864   8.168   2.446 -0.1169 -0.1735  0.0187
10776W        W28300  12.254   5.195   1.684 -0.1954 -0.0535 -0.1167
10777W        W28301   4.492   2.844  17.181 -0.0159 -0.1389  0.1232
10778W        W28302   5.546   3.852   2.069  0.1211  0.0134 -0.0409
10779W        W28303   4.603   7.560   2.640  0.0723  0.1654 -0.2788
10780W        W28304   5.023   9.930   2.446 -0.1187 -0.0273  0.0981
10781W        W28305   7.964  12.155   1.292 -0.1193 -0.1473 -0.0044
10782W        W28306   1.016   8.366  12.050  0.1002 -0.0297  0.0371
10783W        W28307   1.517   0.216   2.084  0.1724 -0.0798  0.0220
10784W        W28308   1.987   1.053  13.250  0.1608  0.0489 -0.0413
10785W        W28309   6.453   5.771  14.192 -0.0127 -0.1392  0.1759
10786W        W28310   2.495   8.843   0.912 -0.0996 -0.2349 -0.0431
10787W        W28311  11.603  16.677   0.252 -0.0862 -0.0266  0.3430
10788W        W28312  14.761   4.432   1.788 -0.2336 -0.0012  0.1035
10789W        W28313   7.210   5.784   0.664 -0.0582 -0.2553 -0.0539
10790W        W28314   5.263  10.976   0.053  0.2993 -0.0559 -0.2431
10791W        W28315   0.919   8.973  12.033 -0.0366 -0.2666 -0.0706
10792W        W28316   0.522   9.737  13.839 -0.4598  0.2013  0.3694
10793W        W28317   7.266   0.038  16.638  0.2455 -0.0302 -0.0048
10794W        W28318   2.946  16.570  16.621  0.0939  0.0755  0.0316
10795W        W28319  10.544   2.527  16.585 -0.2188 -0.0733 -0.2177
10796W        W28320  14.540  15.910  14.138  0.1026 -0.0760 -0.0979
10797W        W28321   8.062   7.743  15.285 -0.0116 -0.0821  0.1217
10798W        W28322  12.744   8.386  12.786  0.0605 -0.1183 -0.0748
10799W        W28323  14.587   4.544  13.579  0.3211 -0.0906  0.0452
10800W        W28324   1.084   8.989   2.830  0.1172  0.2166 -0.1513
10801W        W28325   9.284   0.426   5.434  0.3605  0.0720  0.0055
10802W        W28326  10.697   4.878   4.971 -0.0414  0.1608  0.1394
10803W        W28327   0.963   1.262   3.946  0.1439  0.1907  0.1904
10804W        W28328   7.888   4.954  13.063 -0.0947 -0.4263  0.0502
10805W        W28329  11.466   4.996   3.312  0.5050 -0.0643 -0.0057
10806W        W28330  13.009   8.747   2.342 -0.1815  0.4085  0.1493
10807W        W28331  16.288   4.406   2.823 -0.1844  0.0152  0.1856
10808W        W28332   9.104  12.036  16.779 -0.1653  0.0610 -0.0999
10809W        W28333   4.581   4.624  14.471  0.0175 -0.0218  0.2019
10810W        W28334   6.938   6.562   4.163  0.3161 -0.1488 -0.3102
10811W        W28335  14.819   3.356  13.546  0.0759 -0.1787 -0.0634
10812W        W28336  17.161  10.545   2.881 -0.0377  0.2320 -0.0580
10813W        W28337  14.054   6.749  15.188 -0.0936  0.0156  0.1145
10814W        W28338   2.071  13.100  16.174 -0.3175 -0.1010  0.0532
10815W        W28339   7.282   9.985   1.582  0.0437 -0.1060 -0.0429
10816W        W28340  14.399   5.238  11.925  0.0043 -0.1392  0.1732
10817W        W28341   6.044   4.750   4.734 -0.1410  0.0744 -0.0528
10818W        W28342  12.113  15.888   5.588  0.0599  0.0270 -0.2338
10819W        W28343   3.709  16.966  14.017  0.1737 -0.0639 -0.1930
10820W        W28344  12.109   9.216   0.964  0.1346 -0.0395  0.1172
10821W        W28345   0.531  11.110  12.388  0.0242 -0.1161  0.1469
10822W        W28346  17.001  16.947   1.921  0.1256 -0.1032 -0.2014
10823W        W28347   2.565   9.618   4.972 -0.0733  0.4288  0.1872
10824W        W28348  10.695   9.810   3.394 -0.4315 -0.0162 -0.0246
10825W        W28349  10.833   5.903   0.076  0.1600  0.0816 -0.2336
10826W        W28350   9.864   1.805  13.330 -0.1407  0.1146  0.3193
10827W        W28351  10.808  12.178  15.927 -0.0738 -0.1827 -0.2723
10828W        W28352  10.987   1.638   0.340  0.1530 -0.0604 -0.0697
10829W        W28353  16.685   3.401  16.184  0.0499 -0.3318 -0.2429
10830W        W28354  17.236   4.088   0.690 -0.1680  0.1828  0.4111
10831W        W28355   0.942   2.049  14.399  0.2219  0.0829 -0.2703
10832W        W28356  16.071   3.297  16.588  0.1910  0.0911 -0.1373
10833W        W28357   9.351   4.493   2.679  0.0642  0.0756 -0.0893
10834W        W28358   3.092   4.881   0.544  0.1791  0.1881 -0.0387
10835W        W28359  12.380   0.900  13.119  0.0064 -0.1599  0.0507
10836W        W28360   1.131  17.145  15.249 -0.2171 -0.3998 -0.1608
10837W        W28361  13.115   3.170  17.199  0.1107  0.2218 -0.0990
10838W        W28362   3.527   6.225   2.236 -0.0153 -0.2568 -0.0968
10839W        W28363  16.874   7.267   4.729 -0.1452  0.4216 -0.1321
10840W        W28364  14.073   0.713  14.213 -0.3098 -0.2532  0.1419
10841W        W28365   2.781   9.190   2.568 -0.2155 -0.2740  0.0107
10842W        W28366   3.727   1.549   1.890  0.1009  0.0273 -0.2985
10843W        W28367   1.446   3.272  17.015  0.0194 -0.3402  0.1706
10844W        W28368   0.655   8.819  14.408 -0.0044 -0.0508  0.4268
10845W        W28369   9.793   4.928   2.125 -0.1502 -0.0095 -0.3308
10846W        W28370  14.729  15.718  13.613 -0.0161  0.2014  0.1504
10847W        W28371   9.253  10.301   4.724  0.1476  0.0923  0.2890
10848W        W28372   5.511   1.151   1.178  0.1210 -0.1358  0.2192
10849W        W28373  14.418  15.801   0.077 -0.0749  0.1808 -0.2970
10850W        W28374   3.070   9.808  14.505  0.0859 -0.0209  0.0236
10851W        W28375   2.703  14.470   2.014  0.0934 -0.0277  0.3074
10852W        W28376   2.080  13.486  14.579 -0.2733  0.0018  0.1712
10853W        W28377  13.897  11.478   4.894 -0.1153  0.2782 -0.0094
10854W        W28378   8.951  14.267   0.619 -0.0343  0.1190 -0.2598
10855W        W28379   2.504   0.873  15.122 -0.3098  0.3196 -0.1627
10856W        W28380  11.863   2.891   5.017  0.2331 -0.0694 -0.2026
10857W        W28381   6.308  16.056   5.169  0.2233  0.0243 -0.2135
10858W        W28382  11.320   0.481   1.605  0.0872 -0.4230 -0.0560
10859W        W28383  10.814   6.606  14.255  0.4485  0.1392  0.1378
10860W        W28384  13.611   0.472  15.818  0.0477  0.0096 -0.0618
10861W        W28385   9.391  15.616   0.378 -0.2048 -0.1928 -0.0861
10862W        W28386   6.968   0.727   1.315 -0.0684  0.0117  0.0667
10863W        W28387   7.808   7.930   2.945 -0.2059 -0.2895 -0.1436
10864W        W28388  13.906   5.419   0.667 -0.0439 -0.2928 -0.1775
10865W        W28389   1.659   3.883  15.744 -0.0412  0.1791  0.3679
10866W        W28390   8.367   4.623   0.812 -0.0804 -0.3932  0.1447
10867W        W28391   0.218  10.063  13.264  0.2310 -0.0814 -0.1536
10868W        W28392   9.510   8.837   1.191  0.2447 -0.0415 -0.3929
10869W        W28393   5.522   9.325   0.807 -0.0188 -0.0825 -0.0828
10870W        W28394  11.800   2.364  17.038 -0.1312 -0.1154  0.1281
10871W        W28395   9.427  11.792   4.299 -0.2723  0.1127 -0.1105
10872W        W28396   9.682   4.012  14.126 -0.1061  0.1394 -0.0344
10873W        W28397  15.325  12.617  14.473  0.0788 -0.0846  0.2432
10874W        W28398   0.452   6.199  17.001  0.1830 -0.0238 -0.1264
10875W        W28399  13.950   9.810  13.458  0.2245 -0.0569  0.0227
10876W        W28400  11.565   5.587  12.409  0.0550  0.1141  0.3507
10877W        W28401   3.453  10.933   0.815  0.0600 -0.4141  0.0174
10878W        W28402  14.421   3.012  15.944  0.0821  0.1155 -0.2465
10879W        W28403  15.214   9.385   2.772 -0.0556 -0.0178  0.1885
10880W        W28404   7.429   8.155   0.118 -0.1067 -0.1559  0.3132
10881W        W28405   4.641  11.845   6.174  0.0578 -0.2146 -0.1112
10882W        W28406   5.753  14.438  12.657 -0.1920  0.0514  0.2869
10883W        W28407   4.405   9.219  16.075  0.0607  0.0911 -0.1695
10884W        W28408   0.083   8.747   4.654 -0.1026  0.2266  0.1005
10885W        W28409  10.304  11.212   4.313 -0.2055 -0.2280 -0.3004
10886W        W28410   9.122  11.674  12.951 -0.0692 -0.1583  0.4200
10887W        W28411   8.448   5.878   3.208 -0.0738  0.0730 -0.1638
10888W        W28412  11.701  12.953  15.426 -0.1087  0.1454  0.0750
10889W        W28413  15.015   7.602   3.154  0.3064  0.0634 -0.2828
10890W        W28414   2.741   5.775  16.102  0.2272 -0.0360 -0.0035
10891W        W28415   7.203  15.125  15.669  0.0296  0.3871 -0.0165
10892W        W28416  15.655   3.630   5.495  0.0060  0.0156  0.2116
10893W        W28417   3.413  14.682  11.190 -0.0185 -0.2119  0.0570
10894W        W28418   6.678   8.229   0.198 -0.0518  0.1327 -0.2545
10895W        W28419   4.755   6.657  13.809  0.1542 -0.2050 -0.2836
10896W        W28420  16.751   0.071   1.709  0.1319  0.1452 -0.1405
10897W        W28421   0.488  10.630   2.712 -0.1346  0.0645  0.3504
10898W        W28422   3.408  16.233  15.029  0.1476  0.0327 -0.1356
10899W        W28423  14.322  10.095  14.656  0.1232  0.2080 -0.2010
10900W        W28424  12.444   8.376   1.609 -0.0071  0.3657  0.0117
10901W        W28425   1.716   2.731   2.676  0.0679  0.1149  0.0845
10902W        W28426  11.813  15.617  14.317 -0.3317 -0.1126 -0.1679
10903W        W28427  10.669   7.368   1.732 -0.0989  0.0444  0.1846
10904W        W28428   6.942   4.913   5.701  0.0614 -0.0607  0.0677
10905W        W28429  12.727   3.484  17.639  0.0208 -0.0883  0.1467
10906W        W28430   6.029  13.189  15.975 -0.3229 -0.0370  0.0045
10907W        W28431   4.102   8.276   4.730  0.2014 -0.0663  0.1789
10908W        W28432  11.432   0.155   3.002  0.2980 -0.0835  0.0394
10909W        W28433   7.138   7.880  15.713 -0.1016 -0.0159 -0.0438
10910W        W28434   7.882   3.950  14.425  0.3355  0.2179  0.1670
10911W        W28435  12.376   0.766  15.665  0.0717  0.0343  0.2020
10912W        W28436  10.322  10.941  13.494 -0.0066 -0.0450  0.4297
10913W        W28437  10.452   0.657  16.214 -0.1891  0.1589 -0.2544
10914W        W28438   9.739   8.599  15.560  0.0520  0.3340 -0.1858
10915W        W28439  10.140   7.273  15.545 -0.0925 -0.2134 -0.2627
10916W        W28440  16.636   1.375  14.658  0.0810  0.3276  0.0147
10917W        W28441   0.794  12.826   2.118  0.1671 -0.0229 -0.2962
10918W        W28442   4.162  12.568   5.812  0.0654  0.0440  0.0797
10919W        W28443  12.122   6.199  16.118  0.2267  0.1606  0.1001
10920W        W28444  16.157  11.380  14.262  0.0732 -0.1513 -0.2142
10921W        W28445   9.071   3.214   0.284  0.1167  0.1955 -0.2644
10922W        W28446   3.484   4.321  12.598  0.0242  0.1015 -0.0699
10923W        W28447   3.378  12.409  13.668  0.0254  0.2815  0.1038
10924W        W28448   2.725   6.263   4.358 -0.0068 -0.2840 -0.0921
10925W        W28449  16.580   2.748   5.034  0.3136 -0.0266 -0.0123
10926W        W28450  16.381  12.999   3.625  0.1286  0.0564  0.0318
10927W        W28451   7.935   9.653   4.409 -0.0706 -0.0787 -0.3058
10928W        W28452   0.905  10.832  12.832  0.1152  0.0133 -0.1423
10929W        W28453  14.519   3.284   1.137  0.1443 -0.1255  0.3242
10930W        W28454   0.086   7.074  12.789  0.1775  0.2309 -0.3496
10931W        W28455   4.864  10.485  16.208  0.0711 -0.1454  0.1993
10932W        W28456  14.504  15.382   1.905  0.1156 -0.3659 -0.2063
10933W        W28457   2.013   5.099  13.142  0.0929 -0.1500  0.2685
10934W        W28458  11.713   5.469   6.024  0.2094 -0.1784 -0.1183
10935W        W28459  12.182   5.645   2.012 -0.1805 -0.2860  0.4466
10936W        W28460  11.919  12.988  16.330 -0.3190  0.1008 -0.3376
10937W        W28461  10.631   6.497   5.348  0.2509  0.0260  0.0505
10938W        W28462  14.824   5.303  15.039  0.1070  0.3240 -0.3108
10939W        W28463  15.774  13.849  13.324  0.1094 -0.1061 -0.2726
10940W        W28464   4.140   8.889  15.282  0.0585  0.1633 -0.1379
10941W        W28465  16.862   8.001   2.390  0.1146 -0.0692  0.0601
10942W        W28466  16.724   1.822   1.353  0.1609  0.1741  0.1540
10943W        W28467   4.861   0.810   1.577 -0.2039  0.3968  0.0199
10944W        W28468  14.006  15.804   0.618  0.2750 -0.0546  0.1077
10945W        W28469   0.295  11.834   4.007  0.0838 -0.1856  0.2521
10946W        W28470  12.533  15.429   4.500 -0.1255  0.0156 -0.2011
10947W        W28471   6.712   7.854  13.681  0.0736 -0.3664 -0.1377
10948W        W28472  11.712  11.269  13.862  0.3426 -0.0357 -0.1725
10949W        W28473   4.640   3.745   3.103  0.2334 -0.0274  0.0279
10950W        W28474   4.447  11.916   4.036  0.1690  0.0882 -0.3191
10951W        W28475  10.474   3.088   4.468 -0.0019 -0.0767  0.0900
10952W        W28476  15.991  12.296  17.191 -0.1229  0.0275 -0.2111
10953W        W28477   9.115   4.940   1.109  0.1267  0.1140  0.3521
10954W        W28478   0.799   4.332  17.248  0.0170  0.0600  0.1488
10955W        W28479   0.253   8.934   1.091  0.0853  0.1699 -0.3697
10956W        W28480  15.955  11.919   2.556 -0.1366  0.0817 -0.1119
10957W        W28481  16.588  12.092  17.293 -0.0594  0.0490 -0.0847
10958W        W28482   5.754  14.253   3.320 -0.0595  0.1418  0.0382
10959W        W28483   9.193  11.418   3.981 -0.0482 -0.0101 -0.2920
10960W        W28484  15.036   7.445  12.514 -0.0485 -0.1212  0.1747
10961W        W28485  10.192   2.746   0.121 -0.0183  0.2467 -0.0166
10962W        W28486   5.577  13.745  16.361 -0.2083  0.0478 -0.1444
10963W        W28487  10.474  12.731  12.609  0.3272  0.2022 -0.1699
10964W        W28488  10.971  15.356   4.917  0.3753  0.0241  0.1326
10965W        W28489   0.337  11.958   0.528  0.0699  0.1795  0.1777
10966W        W28490   7.136   1.541  14.567 -0.2857 -0.0806  0.0885
10967W        W28491   0.861  12.898  12.150 -0.0601  0.0778  0.2160
10968W        W28492   8.803   3.867  15.775  0.1622 -0.4076  0.2996
10969W        W28493  10.067  11.653  14.588 -0.0086 -0.2536 -0.0607
10970W        W28494   1.879   0.328   3.003  0.0422  0.1403 -0.3516
10971W        W28495   2.756  11.954  13.069  0.0245 -0.1268  0.0410
10972W        W28496   0.858  11.981  13.250 -0.1430  0.2507  0.2781
10973W        W28497   5.112   0.004   1.663 -0.2597 -0.0811  0.1139
10974W        W28498  15.900  13.176  16.298  0.3256 -0.1345 -0.0758
10975W        W28499  16.570   7.109   5.108  0.1534 -0.0693 -0.1331
10976W        W28500  17.175  15.013  13.833  0.2942  0.3465  0.3029
10977W        W28501   4.534  13.565   4.169 -0.1118  0.1024  0.4717
10978W        W28502   9.487   6.546   5.474  0.2531  0.1955  0.1222
10979W        W28503   3.826  16.955   2.093  0.0021  0.0599  0.0022
10980W        W28504  16.641   8.350  12.632  0.2424 -0.1939  0.2101
10981W        W28505  15.640  11.564   3.162 -0.1971  0.0656  0.0556
10982W        W28506   8.871   0.075   3.108  0.1108 -0.1495  0.0588
10983W        W28507   3.185   2.241   5.594  0.1639 -0.0672 -0.1390
10984W        W28508   0.675   1.252  15.366 -0.0708  0.1055  0.2261
10985W        W28509   5.221   6.762   5.564  0.0143  0.0615 -0.1375
10986W        W28510  11.636  10.862  14.748 -0.0684  0.1746 -0.2035
10987W        W28511  13.779  10.590   0.592 -0.0729 -0.3645  0.0396
10988W        W28512  16.833   5.055   3.638 -0.1897 -0.2814  0.0181
10989W        W28513   4.484  11.780  12.511 -0.4932  0.3305 -0.2662
10990W        W28514  13.969   8.399  11.873  0.0131 -0.0029 -0.2847
10991W        W28515   2.233   2.833   2.924  0.0865 -0.0823  0.1556
10992W        W28516  11.970   4.560  15.466 -0.0957 -0.2233 -0.2202
10993W        W28517  10.558   2.900   1.726 -0.0103  0.1769  0.1573
10994W        W28518  15.459   2.677  17.493 -0.0666  0.2386 -0.2982
10995W        W28519   7.681   4.865  16.407 -0.0508  0.0557  0.0053
10996W        W28520   8.397  13.089  14.080 -0.0877 -0.0307 -0.1002
10997W        W28521  14.844   6.338   4.561 -0.0906  0.0036 -0.4090
10998W        W28522   8.860   3.745   2.934  0.2628  0.0374  0.2698
10999W        W28523  15.264   0.790   4.356 -0.0052 -0.0705 -0.2299
11000W        W28524   4.810  10.315  17.604  0.1129  0.0102 -0.2242
11001W        W28525  10.728   5.785  16.583 -0.2224 -0.1199  0.2007
11002W        W28526   7.131  10.943   0.467 -0.0476 -0.4162  0.0287
11003W        W28527   4.906   6.663   3.161  0.0323  0.0343  0.0977
11004W        W28528   3.996   1.769   2.760  0.1086  0.0747 -0.2023
11005W        W28529   8.221  14.063   0.083 -0.1035 -0.0769 -0.2753
11006W        W28530   5.508   6.335  17.383 -0.0614 -0.1178  0.0851
11007W        W28531  14.377   3.013  13.527 -0.0849 -0.2030  0.0289
11008W        W28532  10.848  14.008  16.819  0.0644 -0.1274  0.0858
11009W        W28533   4.749   2.379  16.244  0.1631  0.0588 -0.2794
11010W        W28534   9.534  11.916  12.904 -0.2623  0.1678 -0.1241
11011W        W28535   4.173   2.615  12.205 -0.0527 -0.0484  0.3861
11012W        W28536  13.285  11.362   1.780 -0.1551 -0.0440 -0.0564
11013W        W28537  12.143   5.020   3.438 -0.0760 -0.3455  0.0854
11014W        W28538   4.148   8.229  16.817 -0.2054 -0.2710 -0.1365
11015W        W28539   9.835  15.232   2.467  0.4578 -0.5365  0.0535
11016W        W28540   5.361  15.436  15.937  0.0690 -0.0021 -0.0429
11017W        W28541   6.186   1.073   1.822 -0.0089 -0.1802 -0.2935
11018W        W28542   6.276  17.080  15.812  0.1464 -0.1482 -0.1021
11019W        W28543  12.190  14.249  12.497 -0.0171  0.2173 -0.0903
11020W        W28544  14.061   6.052  14.033  0.0372  0.1585 -0.1387
11021W        W28545   4.055   1.028  15.698 -0.0950 -0.1600 -0.0017
11022W        W28546  14.980   4.209  15.000 -0.1829 -0.0771 -0.2456
11023W        W28547  11.250  12.283   1.646  0.2009 -0.2271  0.0960
11024W        W28548  11.398   7.816  13.117  0.0327  0.1734 -0.0319
11025W        W28549   0.076   4.189  15.019 -0.0371  0.1034 -0.0533
11026W        W28550   8.037   9.715   2.409  0.0348 -0.1675  0.2503
11027W        W28551   8.085  16.747   2.004 -0.0936 -0.2080 -0.0579
11028W        W28552   0.354   9.120  16.941  0.0152  0.1696 -0.0588
11029W        W28553   1.695   9.847  16.736 -0.1051 -0.1297 -0.1607
11030W        W28554  15.754  11.014  15.041 -0.2902  0.1666 -0.0296
11031W        W28555   7.353  12.894   5.377  0.0039  0.0953 -0.1928
11032W        W28556   3.603   1.537  16.724  0.0330  0.1164  0.2081
11033W        W28557  12.860  10.676  16.989 -0.2235  0.3408 -0.1750
11034W        W28558  13.454  15.588   4.298  0.0096 -0.0671  0.1772
11035W        W28559   5.604  12.357  14.811  0.0174 -0.2491 -0.2709
11036W        W28560  13.574   8.711  11.881  0.0797 -0.2958 -0.1148
11037W        W28561   6.537   2.045  13.317  0.0800  0.0451 -0.2296
11038W        W28562   3.065   0.949  16.816  0.0117 -0.0971  0.0007
11039W        W28563   6.284   8.698   5.530  0.3592 -0.1335 -0.1422
11040W        W28564   5.746   6.629  16.329 -0.1208  0.2126  0.0263
11041W        W28565   6.080  11.265   3.382  0.0011 -0.1368 -0.0997
11042W        W28566   2.841   3.849   3.230 -0.1851  0.1243 -0.2371
11043W        W28567   4.817   1.618  14.635 -0.1353  0.1122  0.1139
11044W        W28568   1.365  15.574   3.866 -0.0961  0.0501  0.1820
11045W        W28569   1.332   7.093   3.569  0.1478  0.3147  0.2320
11046W        W28570  12.052   0.940  12.522 -0.2817 -0.0239 -0.2011
11047W        W28571  14.718  12.004  13.009  0.3612  0.0990  0.2066
11048W        W28572   4.199   7.418  13.551 -0.1289  0.1597 -0.1458
11049W        W28573   0.261  13.240  15.363  0.1126 -0.1596 -0.3159
11050W        W28574   7.155   0.492  14.827  0.0778 -0.0734 -0.0417
11051W        W28575   2.322   3.342  14.242  0.3091 -0.0998 -0.1652
11052W        W28576  12.148   2.499  15.370 -0.1764 -0.1237  0.2038
11053W        W28577   4.165  14.298  16.875 -0.0981 -0.1091 -0.1302
11054W        W28578  12.198   0.615   4.953  0.4067  0.1085 -0.0967
11055W        W28579   8.289   8.209  15.235 -0.3374 -0.2006  0.2328
11056W        W28580  12.283  14.581   2.956  0.1566  0.0559 -0.1150
11057W        W28581   0.197  16.735  15.562  0.2688 -0.1874  0.1641
11058W        W28582  16.171   8.203  12.164 -0.0598  0.1902  0.1741
11059W        W28583   8.650  16.837   5.250 -0.0094 -0.1053 -0.1952
11060W        W28584  13.899  15.798  13.298 -0.0985 -0.1543 -0.1308
11061W        W28585   4.403   7.164   0.640  0.0828 -0.0095  0.0074
11062W        W28586  10.081   3.060  13.786  0.0555 -0.2018 -0.0407
11063W        W28587  16.985   4.199   3.651  0.1844  0.2711 -0.2142
11064W        W28588   0.220   4.562   1.695  0.0472  0.1736  0.1247
11065W        W28589  12.962  10.000  12.889 -0.0570 -0.0125  0.1955
11066W        W28590   9.297  10.610  16.945  0.0267  0.0662  0.0061
11067W        W28591   7.439  15.834   3.527 -0.3663 -0.0193 -0.0377
11068W        W28592   4.390  10.674   0.615 -0.0960 -0.2020 -0.0731
11069W        W28593   3.310  11.485   3.543 -0.0528 -0.1042 -0.0196
11070W        W28594   8.137  12.888  16.743 -0.3525  0.1134  0.1419
11071W        W28595   1.547   7.778   4.268 -0.1163  0.1026 -0.2715
11072W        W28596  16.216   0.744  16.894 -0.0746  0.3120  0.2702
11073W        W28597   6.512   9.532   1.791  0.2958 -0.0525 -0.3631
11074W        W28598   7.731  12.057  17.129 -0.2199 -0.1915  0.1509
11075W        W28599   1.077   9.449  14.170 -0.0765 -0.0810 -0.0983
11076W        W28600   8.076  11.190   0.309  0.0959  0.3294  0.0246
11077W        W28601   1.872   4.334  14.867  0.2185 -0.2671  0.4278
11078W        W28602  15.840  15.730  16.233 -0.3254  0.1332 -0.2110
11079W        W28603  11.961   0.542   0.810  0.0026 -0.0374 -0.0411
11080W        W28604   2.486   0.804  13.995  0.0916  0.0466 -0.0955
11081W        W28605  10.052  15.797  17.153  0.0731  0.2237 -0.3036
11082W        W28606   6.027   2.787   3.400  0.5020 -0.0467  0.2053
11083W        W28607   5.541  12.637  16.569 -0.2975  0.0516  0.1919
11084W        W28608   3.496   6.796  16.607 -0.0294 -0.4006  0.2516
11085W        W28609  11.750  12.957   2.104 -0.1814  0.0264  0.1825
11086W        W28610  16.298  13.347  15.454 -0.0223 -0.3121  0.2047
11087W        W28611  15.128  13.875  14.175  0.0484  0.3318  0.0849
11088W        W28612   4.282   5.052  16.934  0.2474 -0.0529  0.0595
11089W        W28613  17.231  13.560   4.845  0.0311 -0.1029  0.1521
11090W        W28614  15.932  13.767   5.390  0.1627 -0.0847  0.2332
11091W        W28615  13.107   4.120  17.129 -0.1050 -0.1307  0.0947
11092W        W28616  13.839   5.890  17.501  0.0239 -0.0500 -0.1613
11093W        W28617   6.601   8.585   1.497  0.0467 -0.1694 -0.2436
11094W        W28618  12.271   9.872   3.588 -0.1855 -0.1649 -0.2094
11095W        W28619   9.142   6.845  12.235  0.1219 -0.1421 -0.4618
11096W        W28620   7.569  16.084   1.995 -0.0311 -0.2963  0.1876
11097W        W28621   8.518   0.831  12.683 -0.0533 -0.0357 -0.0198
11098W        W28622   2.008  10.548  17.600  0.1161 -0.0009  0.2114
11099W        W28623  15.454   3.836  14.892 -0.1169 -0.0346 -0.0383
11100W        W28624   8.967   5.854  12.271  0.2243  0.1511  0.0814
11101W        W28625   2.115   9.297  12.940 -0.0157 -0.1106  0.0911
11102W        W28626  16.897  12.511   2.081 -0.0821 -0.2361 -0.1744
11103W        W28627   4.492   2.781   2.176  0.0656  0.2396 -0.0695
11104W        W28628   8.189   3.343  13.640 -0.1216  0.0531 -0.0681
11105W        W28629   7.132   5.541  17.488 -0.3072 -0.1550  0.0714
11106W        W28630  12.024  15.131   0.553  0.0656 -0.2070 -0.1508
11107W        W28631   5.426  10.442   0.198 -0.0005 -0.0666  0.2489
11108W        W28632   4.324  16.772  16.229 -0.1259  0.1164 -0.0225
11109W        W28633  16.474   4.650  16.602 -0.2421 -0.5047 -0.1343
11110W        W28634   0.557  16.249   4.958  0.0813  0.1425 -0.0011
11111W        W28635   7.041  14.215   0.099  0.3365 -0.0996 -0.3788
11112W        W28636  15.819  16.478  13.735 -0.0767  0.1330  0.0099
11113W        W28637  14.365   6.248   4.753 -0.0175 -0.0895  0.0680
11114W        W28638   0.020   3.748   4.804 -0.0619  0.2592  0.1518
11115W        W28639   4.563  10.197   5.423 -0.0060  0.1645 -0.3662
11116W        W28640   9.064   6.522  16.450  0.1207  0.1793 -0.4762
11117W        W28641   0.077   7.617  17.293  0.0778 -0.1526  0.2233
11118W        W28642   7.535   6.401   5.439 -0.0190  0.1515 -0.2902
11119W        W28643   0.662   9.826  14.747 -0.0687  0.0366  0.0777
11120W        W28644   2.604  12.379   4.686 -0.0565  0.2652  0.1781
11121W        W28645   3.250   6.494  12.340  0.0736 -0.0734 -0.1552
11122W        W28646   2.963   9.600   5.612 -0.1527 -0.1110 -0.0959
11123W        W28647  16.441  14.291   1.544  0.2055 -0.0250 -0.2800
11124W        W28648   0.340   2.851   4.891  0.1997  0.1612  0.0400
11125W        W28649  14.261  10.345   1.674 -0.2401 -0.2289 -0.0827
11126W        W28650  17.037  13.297  16.998 -0.0170  0.0012 -0.0318
11127W        W28651  10.852  15.149   4.257 -0.1020 -0.1941 -0.2344
11128W        W28652   6.657   1.787  11.278 -0.2334  0.0823 -0.4005
11129W        W28653  10.328  10.078  16.073  0.0843  0.0161 -0.0252
11130W        W28654   7.014   4.358  17.389 -0.2773 -0.0399 -0.1679
11131W        W28655  12.545   7.161   3.560  0.0387 -0.0690 -0.2172
11132W        W28656   1.521   5.145  15.814  0.1711  0.0879  0.2080
11133W        W28657   6.731   9.774   2.683  0.0349 -0.2749 -0.1171
11134W        W28658   4.448  14.038  16.156  0.0215  0.1019 -0.0697
11135W        W28659  15.975   5.276   5.266 -0.0583  0.3574  0.2985
11136W        W28660   7.887  12.014   0.320  0.3010 -0.1446 -0.3441
11137W        W28661  17.000  13.849  12.855  0.0615 -0.0140  0.2153
11138W        W28662  10.123   9.013   4.187 -0.1389 -0.3140 -0.3581
11139W        W28663  15.351  16.941  16.568  0.2988 -0.0215  0.0197
11140W        W28664   4.742  12.645  13.790 -0.1506  0.0051  0.1837
11141W        W28665   2.752   5.908   1.281  0.0518 -0.0627 -0.2677
11142W        W28666   5.940  11.036  14.710  0.1129  0.1119 -0.0260
11143W        W28667   1.131  16.218   0.468  0.1306 -0.1188 -0.0227
11144W        W28668   8.176   2.394   5.698 -0.0180  0.0941 -0.0693
11145W        W28669   9.799   4.650   6.208 -0.3346 -0.0104 -0.2848
11146W        W28670   3.633   8.026  13.579 -0.0016 -0.0184  0.1695
11147W        W28671   0.147   9.924   3.611 -0.2417 -0.1920  0.0288
11148W        W28672  11.547   5.810  11.908 -0.2066 -0.0783 -0.3062
11149W        W28673  13.582   0.573  16.318  0.0376  0.0349 -0.0861
11150W        W28674   9.806   0.299  12.554 -0.2253 -0.1283 -0.0951
11151W        W28675   2.118  17.180   3.258  0.1067  0.0120 -0.3240
11152W        W28676  16.164   8.302  14.278 -0.0964 -0.1729  0.0820
11153W        W28677   0.988  13.498  13.937  0.2204  0.2250 -0.0075
11154W        W28678   4.147   8.136  12.669  0.2035  0.3221 -0.0048
11155W        W28679   9.687   3.384   5.357 -0.0894 -0.2428  0.1923
11156W        W28680  11.671   0.604   5.407  0.2879 -0.0388  0.0636
11157W        W28681   3.842   1.856  13.137 -0.0519  0.1806 -0.1582
11158W        W28682   6.651   0.233  14.077 -0.2355 -0.0119  0.0637
11159W        W28683   1.150   8.677   4.703 -0.2103  0.1708  0.2027
11160W        W28684   8.427   4.549  14.133 -0.1862  0.1606 -0.1813
11161W        W28685   0.228   9.245  12.616 -0.0360  0.1057 -0.0806
11162W        W28686  12.477   3.437   4.508 -0.1630 -0.1460 -0.0515
11163W        W28687   0.828  10.185   0.525 -0.1000  0.1540 -0.1412
11164W        W28688   0.375  16.723   3.983 -0.0546 -0.0317  0.2732
11165W        W28689   9.692   9.671   0.119 -0.0091 -0.2825 -0.0439
11166W        W28690   4.000   2.772   2.543 -0.3016 -0.0394 -0.2678
11167W        W28691  16.451   4.285  14.717  0.1447  0.0027  0.2634
11168W        W28692   1.714   5.284   0.536 -0.0805 -0.1791 -0.1672
11169W        W28693   8.540   6.700   2.390 -0.3805  0.0414  0.0744
11170W        W28694   8.362   6.199  16.741 -0.3342 -0.4023  0.0213
11171W        W28695   3.588   6.573   3.100 -0.1452  0.0415 -0.1586
11172W        W28696   2.583  12.426  16.584  0.1150  0.0444 -0.1050
11173W        W28697   7.942   4.144   2.114 -0.0349 -0.2590  0.2641
11174W        W28698   2.341  12.232  13.011  0.1172 -0.2139 -0.1676
11175W        W28699  13.905   7.822   1.328  0.1034 -0.4271 -0.1746
11176W        W28700   9.480   5.233  14.181 -0.1192  0.3434 -0.2705
11177W        W28701   6.126  16.885  14.207  0.2198 -0.1350 -0.1039
11178W        W28702   3.386   8.930   5.156  0.1838 -0.2416 -0.0727
11179W        W28703  16.332  14.301  14.620 -0.2376 -0.0418  0.0800
11180W        W28704   8.405   9.210  15.390 -0.2906 -0.2258  0.0209
11181W        W28705   5.485   8.618  12.227  0.0841 -0.1475  0.4597
11182W        W28706   2.636   1.736  14.756  0.1106 -0.0290 -0.1052
11183W        W28707   3.394  15.120   5.938 -0.1302 -0.2524  0.0783
11184W        W28708   0.931   4.439   0.606  0.2403 -0.1226 -0.2570
11185W        W28709   6.563   1.074   4.626 -0.2102  0.3571  0.0135
11186W        W28710   1.898   6.952  14.448  0.1727 -0.2119  0.2645
11187W        W28711  16.756  13.622  17.393  0.1327 -0.0291 -0.0304
11188W        W28712   3.495   5.021   0.762  0.1149 -0.2086  0.3431
11189W        W28713   3.709  13.695  13.981 -0.2489 -0.1864  0.0946
11190W        W28714  11.861   1.619  12.531 -0.0317  0.0859  0.2863
11191W        W28715   4.422   6.631   2.476 -0.0457  0.1069  0.0383
11192W        W28716  12.354  11.421  12.916  0.1504 -0.3249  0.1544
11193W        W28717  11.306  17.110   1.672  0.1019 -0.1800 -0.3944
11194W        W28718   1.242  12.079   2.960 -0.1007 -0.1092  0.2271
11195W        W28719   8.814  12.038   3.142  0.1251  0.0623  0.1479
11196W        W28720  16.570   9.948   3.847 -0.2270 -0.2584 -0.1651
11197W        W28721   6.436  16.670  15.522 -0.0519 -0.1542 -0.0348
11198W        W28722   4.518  11.576   0.455  0.2196 -0.4277  0.0280
11199W        W28723  12.469   9.761  16.557  0.1164  0.0752  0.0084
11200W        W28724  13.489  15.958   2.595  0.2846  0.2840  0.4047
11201W        W28725   1.571   1.809  13.390  0.4324 -0.4228  0.0338
11202W        W28726   7.165  12.446   4.902 -0.1821 -0.0285  0.3104
11203W        W28727   5.088  16.920   2.705 -0.0869 -0.0714  0.1307
11204W        W28728  15.228   2.137   4.724  0.1598 -0.1816  0.0260
11205W        W28729  12.245   9.111   2.802  0.1412 -0.0171  0.0976
11206W        W28730  12.102  16.119  12.815  0.1422 -0.0133 -0.1124
11207W        W28731   1.467   3.189   0.246 -0.0998  0.0315  0.2800
11208W        W28732  13.765   9.327  12.445  0.0545  0.0798  0.0208
11209W        W28733   7.331  10.510  13.029 -0.2794 -0.2095  0.3930
11210W        W28734   5.323  16.145  15.124 -0.0407  0.0697 -0.1983
11211W        W28735  14.764  13.366  14.939 -0.0217  0.1342  0.2538
11212W        W28736   8.812   4.047   3.439  0.0456 -0.0317  0.1142
11213W        W28737   6.238   3.584   5.599  0.0921 -0.1433  0.2801
11214W        W28738   5.664   7.835  14.118 -0.0636  0.2485  0.1056
11215W        W28739   7.501  10.825  12.182  0.1214 -0.2323  0.0515
11216W        W28740   0.429  15.142  16.141  0.0253  0.4171  0.0655
11217W        W28741   0.190  16.640   5.731  0.1367  0.3480  0.0840
11218W        W28742   5.049  14.041   1.791 -0.0179  0.1093  0.0712
11219W        W28743   8.378  12.371   0.636  0.3510 -0.1632  0.0024
11220W        W28744  16.746   5.283  11.610  0.0370 -0.0230 -0.1428
11221W        W28745  13.808  11.450  16.492  0.1743 -0.1119  0.2416
11222W        W28746   6.947   2.385  16.538 -0.1827 -0.1261 -0.0319
11223W        W28747  17.193   8.213   1.355  0.1733  0.0993 -0.1247
11224W        W28748  10.093  10.858  16.100  0.2233 -0.0669  0.1663
11225W        W28749   9.450   5.810   4.610 -0.0261 -0.0777  0.1455
11226W        W28750  16.581   3.953   1.564  0.4136 -0.2394  0.1678
11227W        W28751  11.404   7.095  13.643 -0.1538  0.1085  0.0449
11228W        W28752  16.885   4.497  14.870 -0.1599 -0.1730 -0.0475
11229W        W28753   2.132  12.576  12.731  0.1227 -0.0391 -0.0927
11230W        W28754   1.425   7.242  15.265  0.0355  0.0245 -0.0672
11231W        W28755  11.464   3.900   1.778 -0.1376 -0.2303  0.0794
11232W        W28756   1.953  11.922   2.129  0.1647  0.0090  0.2904
11233W        W28757  16.246   3.578   2.650  0.1600 -0.1336 -0.1137
11234W        W28758   6.774   8.757  16.250  0.1299 -0.0030 -0.3024
11235W        W28759  11.943  13.725   3.722 -0.1220 -0.0493 -0.2306
11236W        W28760  11.719   8.259  16.937  0.2962  0.0128  0.0296
11237W        W28761  15.309   4.817   4.946 -0.1679 -0.2617 -0.2569
11238W        W28762   6.857  12.302   3.660 -0.1008  0.0940  0.3928
11239W        W28763   1.637  12.044  16.939 -0.2571  0.4800 -0.1552
11240W        W28764   9.133   3.299  14.063  0.1457  0.2389 -0.1760
11241W        W28765   3.373   6.332   3.521  0.1977  0.1776 -0.0897
11242W        W28766   5.679   7.728   2.987  0.0304 -0.2622  0.0204
11243W        W28767  13.576   7.232  12.422  0.1156 -0.3583  0.0778
11244W        W28768  12.912   2.097  13.008 -0.0054 -0.0581  0.1615
11245W        W28769   9.082   6.019  14.155  0.0241  0.0055  0.0109
11246W        W28770  12.805   8.731   0.673 -0.2276 -0.1123 -0.0365
11247W        W28771   9.880  13.431   2.304  0.2773  0.3097 -0.0556
11248W        W28772  13.073  13.314  12.366 -0.0990  0.0380 -0.0650
11249W        W28773   0.173  14.203  17.608 -0.0199 -0.2157 -0.2343
11250W        W28774  16.850  12.733   3.404  0.3147 -0.0585  0.1677
11251W        W28775  13.665  16.307   1.806  0.0360 -0.2970 -0.1580
11252W        W28776   0.391  10.228   0.041  0.1088  0.0309  0.1576
11253W        W28777  10.946  14.811  13.348  0.0514  0.0994  0.0843
11254W        W28778   9.937   7.125   3.561  0.2220  0.5271  0.2107
11255W        W28779  13.892  14.643   0.087 -0.0071  0.2663  0.1354
11256W        W28780  12.685  17.141  15.759  0.2911  0.1832 -0.1520
11257W        W28781  16.904   4.498   4.201  0.3337  0.0156 -0.0741
11258W        W28782   7.576  10.783  17.332 -0.0205  0.1453  0.1618
11259W        W28783  12.817   1.822   0.742 -0.1685 -0.1431 -0.0608
11260W        W28784   1.201   9.979  14.435 -0.0408  0.1358 -0.0499
11261W        W28785  13.243  16.374   2.608  0.0227  0.1350 -0.0454
11262W        W28786   5.501   1.377   5.299 -0.0863 -0.1841  0.0832
11263W        W28787   6.314  10.768  17.161  0.1491 -0.2051 -0.1776
11264W        W28788  12.698   9.405  14.652 -0.0512  0.1664 -0.0545
11265W        W28789  11.117  14.105   3.439  0.4754 -0.1550 -0.1342
11266W        W28790  16.408   1.497   5.255  0.1271 -0.3113  0.3802
11267W        W28791   1.486   6.712   2.499 -0.0626  0.2394 -0.1670
11268W        W28792   1.941  15.811   3.680  0.2062  0.1437  0.5647
11269W        W28793  10.813  10.568   2.694  0.0734 -0.1848  0.0244
11270W        W28794  16.304   7.173   3.230 -0.0675 -0.0458 -0.1249
11271W        W28795  11.183  15.343   2.874  0.0229 -0.2166  0.0449
11272W        W28796   7.225   1.945  12.726  0.2136  0.0092 -0.1245
11273W        W28797  11.756  13.578   5.478  0.1500 -0.2005  0.0431
11274W        W28798   5.704   3.069   1.968 -0.1061  0.3273 -0.0095
11275W        W28799   4.189   2.996   3.071 -0.0748 -0.1784  0.2118
11276W        W28800  16.519  11.089  14.675  0.0127 -0.0057 -0.0307
11277W        W28801   4.750   3.333  17.203 -0.2790  0.2590 -0.0034
11278W        W28802   7.924  10.527   5.214 -0.3468 -0.1682 -0.2272
11279W        W28803  13.709  11.974  15.598  0.0684  0.2605 -0.1083
11280W        W28804   3.231   0.190  17.091  0.2369 -0.3780 -0.2988
11281W        W28805  16.032   0.181  13.149  0.0040 -0.0175  0.1557
11282W        W28806   6.347   0.958  14.634  0.3351  0.0211 -0.1213
11283W        W28807   3.342  13.975  13.566 -0.1039 -0.0139  0.0809
11284W        W28808  10.500  14.492  13.481 -0.1182 -0.2094  0.1752
11285W        W28809   6.820   4.007   1.355 -0.0980 -0.1669  0.1162
11286W        W28810   0.135  12.406  15.699  0.3900  0.2856  0.0185
11287W        W28811   9.800   1.465   0.129 -0.0180 -0.0454  0.2844
11288W        W28812  15.682  10.905   3.319 -0.3236 -0.2330  0.1138
11289W        W28813   9.791   8.083  13.162 -0.3363  0.2365 -0.4097
11290W        W28814   7.492   4.169  15.885 -0.0423 -0.2360 -0.1875
11291W        W28815   3.668  16.436   5.111 -0.0524 -0.0492  0.0085
11292W        W28816  10.634  11.929   0.899 -0.3492  0.2577  0.1934
11293W        W28817   8.915   5.461   1.131 -0.1355  0.1726  0.2117
11294W        W28818  15.639   9.922  15.336  0.0771 -0.1897 -0.1346
11295W        W28819   9.485   9.936  17.277  0.0881  0.1520  0.1522
11296W        W28820   7.388   0.422   5.106  0.1675 -0.0566 -0.0787
11297W        W28821  14.127  15.526  12.866  0.0197  0.0283  0.1352
11298W        W28822   6.657  15.617  13.548  0.1579 -0.1095  0.0070
11299W        W28823   6.761  11.107   0.761 -0.3046  0.2736  0.2337
11300W        W28824   9.955   5.805  13.720  0.0310 -0.1053  0.0592
11301W        W28825   3.441  15.021  13.744  0.1082 -0.1413  0.2136
11302W        W28826   1.243  17.177  12.405  0.0321  0.0954  0.0654
11303W        W28827   1.437   6.031  17.455  0.0152  0.0530  0.1029
11304W        W28828   3.676  12.749   0.328  0.1394 -0.0539 -0.1583
11305W        W28829   2.356  10.661   3.940  0.1457  0.1036 -0.0543
11306W        W28830   2.325  17.049  15.698 -0.0517  0.1345 -0.0032
11307W        W28831  11.996   8.907  14.350 -0.0821  0.3651 -0.1908
11308W        W28832   9.123   4.167   3.083  0.1777 -0.0737 -0.1093
11309W        W28833   8.616   7.755  12.622  0.2664 -0.1491  0.0234
11310W        W28834   2.363  13.805   5.877  0.2705  0.0035  0.0533
11311W        W28835  13.284  17.009  15.856  0.2038 -0.1302  0.0690
11312W        W28836   2.385   7.631   0.183  0.1772 -0.2006  0.2955
11313W        W28837  13.515   9.402  16.338  0.0348 -0.1208 -0.0825
11314W        W28838   0.649  10.882  14.202  0.0686  0.1842  0.0729
11315W        W28839   1.567   7.056  11.510 -0.1152 -0.1096  0.1104
11316W        W28840  10.423  13.598  13.083 -0.0719 -0.0985  0.0826
11317W        W28841   5.386   8.700  14.346  0.1253  0.0491  0.0990
11318W        W28842   1.324  15.816  17.308 -0.0449  0.1321 -0.1295
11319W        W28843   6.660  17.097   5.867 -0.0672  0.1656  0.0506
11320W        W28844   1.896  12.928  12.389 -0.1537  0.0216 -0.0589
11321W        W28845  13.541   1.134   0.445  0.1004 -0.2936 -0.1104
11322W        W28846   8.124  15.621   0.355 -0.0466  0.1054  0.0071
11323W        W28847  13.845  17.205   5.454 -0.0630  0.0404  0.2002
11324W        W28848   3.436   2.017   2.485 -0.5216  0.2369  0.2935
11325W        W28849   5.269   4.988  16.893 -0.2096 -0.1093 -0.3209
11326W        W28850   9.220   4.150  16.063 -0.1933 -0.1027  0.3707
11327W        W28851   0.846   8.376   4.097 -0.0483 -0.3371  0.1937
11328W        W28852  11.778   1.820   1.791 -0.1325 -0.2929 -0.2692
11329W        W28853   2.157   2.285   3.934  0.0172  0.2885 -0.1118
11330W        W28854  14.696   2.854   1.082  0.1723  0.1728 -0.0443
11331W        W28855   0.070   8.646   2.851  0.0305 -0.1500 -0.3026
11332W        W28856   0.546   8.606  13.123 -0.0053  0.0222  0.1949
11333W        W28857   2.715  14.682  13.673  0.2194  0.0283 -0.0683
11334W        W28858   1.253  14.940   1.711 -0.0316 -0.0974 -0.0304
11335W        W28859  13.634   0.434  13.359  0.0862  0.1771  0.0460
11336W        W28860   3.225   4.154   1.428 -0.0773  0.0137  0.1336
11337W        W28861   2.277   5.536  12.767  0.0281  0.1850  0.0488
11338W        W28862   4.729  10.898   0.948 -0.2046  0.3598  0.1713
11339W        W28863   2.832   6.231  12.228  0.0234 -0.1876 -0.0994
11340W        W28864   5.578  11.281   3.745  0.0676  0.3034  0.3552
11341W        W28865  13.595  14.363   4.959 -0.1564  0.1209 -0.1489
11342W        W28866   1.883  12.461   0.370  0.0554  0.0534 -0.1395
11343W        W28867  15.089  16.719   4.126  0.2341  0.0145  0.0525
11344W        W28868  15.309  14.355   4.897 -0.3541  0.1980  0.2069
11345W        W28869  14.592   6.128   4.171 -0.0051  0.1924 -0.0311
11346W        W28870   8.140   9.097   5.165 -0.0284 -0.0995  0.1449
11347W        W28871  11.799  12.476  16.229  0.0119 -0.0935 -0.0661
11348W        W28872   4.077  14.116  14.639  0.0190  0.0047 -0.1290
11349W        W28873   1.830   4.150   1.564  0.1233  0.0509 -0.2579
11350W        W28874  11.570   5.926   3.465  0.1670 -0.0541  0.1287
11351W        W28875  14.050  15.131  15.806 -0.1808 -0.2874 -0.1688
11352W        W28876  15.233   8.094   1.307  0.0151  0.0009 -0.1065
11353W        W28877   5.910   7.821  15.552 -0.0335 -0.0858  0.1068
11354W        W28878   3.055   5.034  13.083 -0.0863  0.0909  0.0349
11355W        W28879   2.550   5.069   2.727 -0.3764 -0.2398 -0.1705
11356W        W28880   0.990   9.829   2.542  0.1522  0.0867  0.0038
11357W        W28881   6.538   4.163   0.495 -0.0459 -0.1321  0.0302
11358W        W28882   7.426   7.447   2.792  0.1147  0.3961  0.2921
11359W        W28883   8.489   3.492   0.728  0.0778  0.1175  0.2690
11360W        W28884   7.005   1.270  17.566 -0.1845 -0.0481  0.2757
11361W        W28885   8.256   5.425  13.374  0.2998  0.0026  0.1450
11362W        W28886  11.120   6.345   0.138  0.1206  0.3525 -0.0931
11363W        W28887   8.418   8.086  14.363  0.1590 -0.2896  0.0155
11364W        W28888   0.204   8.966  15.331  0.0394 -0.2754 -0.0096
11365W        W28889   8.391  16.095  12.607  0.0640  0.0556  0.3821
11366W        W28890   1.378   8.775   3.441 -0.0662  0.2921  0.2841
11367W        W28891   7.137   7.331   1.236  0.1145  0.1788  0.3349
11368W        W28892  12.474   8.256   5.507  0.1913  0.0186  0.0831
11369W        W28893  12.784   9.612  16.197  0.0798 -0.0108  0.1035
11370W        W28894   9.093  14.397  13.937  0.3397  0.5174  0.1234
11371W        W28895   0.419   3.125   2.240  0.1744  0.0487  0.0725
11372W        W28896   2.270  14.937  13.864 -0.2060  0.0106 -0.1815
11373W        W28897  11.782   0.581  17.635 -0.1219 -0.0249 -0.2006
11374W        W28898  11.394  11.884  14.641 -0.0551  0.3993  0.0719
11375W        W28899  11.202  12.436  13.205 -0.1680  0.0430  0.1021
11376W        W28900  17.079   6.498  15.611  0.1568 -0.0224 -0.4300
11377W        W28901   7.398  15.742   5.816 -0.0613  0.2583  0.1145
11378W        W28902   4.760  11.772  17.475 -0.1460 -0.0500 -0.2370
11379W        W28903   8.120   8.937   2.104  0.2304 -0.2903 -0.2426
11380W        W28904   3.227   6.644   1.217 -0.1099  0.1727 -0.1459
11381W        W28905  14.626  13.124   0.091  0.2761  0.1657  0.2095
11382W        W28906   1.444   3.810   3.461  0.0306  0.1723  0.1875
11383W        W28907  17.049  11.369  15.506 -0.4488 -0.2437  0.2582
11384W        W28908  17.010   7.273  16.386 -0.1549 -0.1052 -0.1906
11385W        W28909   3.651   8.519  12.543  0.0698 -0.4083 -0.0274
11386W        W28910   1.935   3.080  16.872  0.0668  0.1152 -0.1032
11387W        W28911  14.121   5.498  12.765  0.2345  0.1977 -0.0526
11388W        W28912   0.564   4.158  11.596 -0.0974  0.1268 -0.0617
11389W        W28913   3.075   1.454  12.483  0.0960  0.2589 -0.4159
11390W        W28914  12.994   1.403   5.577  0.0533  0.1650  0.1736
11391W        W28915   3.631   3.456   0.971 -0.0533 -0.1472 -0.0220
11392W        W28916   1.461  14.131   0.632  0.4318 -0.2280  0.1228
11393W        W28917   7.143   8.747  14.555 -0.0147  0.4250 -0.0223
11394W        W28918   6.707   6.545  13.433  0.0479  0.3173 -0.1913
11395W        W28919  10.205  14.127   5.290  0.1389  0.0478  0.0273
11396W        W28920   2.113  12.613  15.271 -0.0263 -0.0508  0.3960
11397W        W28921  13.899   1.983   1.345  0.1599  0.0696 -0.4113
11398W        W28922   3.146  15.787   2.231 -0.0195 -0.1974 -0.1807
11399W        W28923  16.266  14.564   3.405  0.2117  0.2007  0.0308
11400W        W28924   9.857   6.682   4.493  0.1685  0.0018  0.0855
11401W        W28925   8.372  11.884   3.392  0.0618  0.0986 -0.1618
11402W        W28926   9.661  15.666   3.744  0.1685  0.1095  0.0160
11403W        W28927   1.221   7.989  11.690 -0.0183  0.3088 -0.0901
11404W        W28928   5.671  14.285   4.626 -0.2488 -0.0317 -0.0140
11405W        W28929   5.729   1.802   5.279 -0.2678  0.0322 -0.0105
11406W        W28930   2.975   5.368  16.020 -0.2292 -0.1098 -0.1095
11407W        W28931   8.027   6.473   2.525 -0.2928 -0.3292  0.2329
11408W        W28932   6.669   1.870   4.673  0.3510 -0.0604 -0.1642
11409W        W28933   5.702   8.001   2.556  0.0701  0.0323 -0.0024
11410W        W28934   5.331   1.818   2.464  0.0505 -0.1217 -0.1505
11411W        W28935  15.426   6.216   4.003  0.2671 -0.1983  0.0539
11412W        W28936   1.021  15.672  14.779 -0.1577 -0.0392 -0.1465
11413W        W28937  13.422   2.346   1.173  0.1190 -0.0909 -0.1819
11414W        W28938   7.838  15.900  14.840  0.1475  0.0582 -0.1607
11415W        W28939   4.183   7.065   6.485 -0.0387 -0.0730 -0.3259
11416W        W28940   2.043  11.089   2.996 -0.2012  0.1518 -0.1537
11417W        W28941   9.974  12.941   0.577 -0.0531  0.0609 -0.0441
11418W        W28942  11.468  14.618   1.170  0.4386  0.2078  0.0816
11419W        W28943   0.804   7.484   2.983  0.0254  0.1175  0.0871
11420W        W28944   2.171   3.399  16.336  0.0827 -0.1174 -0.1212
11421W        W28945  16.498   0.321  17.128 -0.0223 -0.1338  0.1205
11422W        W28946  17.139   1.693   1.079 -0.1645 -0.2706 -0.0016
11423W        W28947  10.338  15.982   3.358 -0.1913  0.0148 -0.1896
11424W        W28948  13.268   1.824   4.688 -0.2599 -0.1884  0.1461
11425W        W28949  16.537   7.197  15.274 -0.1556 -0.0528 -0.3194
11426W        W28950   1.250   7.125  12.464 -0.0343 -0.0097 -0.0504
11427W        W28951   8.047   4.720  14.395 -0.2030  0.1219  0.2896
11428W        W28952   5.445  14.709  14.768 -0.1447  0.1472  0.1219
11429W        W28953   8.013  10.025   4.880  0.0832 -0.0637  0.0202
11430W        W28954   9.813   4.156  17.303  0.0742  0.0462 -0.3740
11431W        W28955  13.467   1.567   0.047  0.0548  0.1129  0.0774
11432W        W28956  13.573   8.510  16.419 -0.0249  0.1350  0.2292
11433W        W28957   6.192   0.506   0.545 -0.1049 -0.0350 -0.2132
11434W        W28958  13.902  13.826   2.461 -0.2701  0.3337  0.1219
11435W        W28959  15.426   8.702   1.084 -0.1342  0.0980 -0.0403
11436W        W28960  11.147  10.238   1.238 -0.0734 -0.0070  0.1232
11437W        W28961   0.387  17.129  13.113 -0.3843 -0.0962  0.1364
11438W        W28962  14.464  13.287   5.187 -0.2446  0.4097  0.1010
11439W        W28963  13.766  10.384   1.639  0.1012 -0.1620  0.1051
11440W        W28964   5.227   5.752   0.851 -0.1294  0.4251  0.2517
11441W        W28965  10.718   6.104   3.540  0.1899  0.1168 -0.0320
11442W        W28966   0.245  16.265   0.223 -0.0660 -0.0393  0.0620
11443W        W28967   6.516  14.236   5.334 -0.0912 -0.0532 -0.2427
11444W        W28968  16.138   4.362   2.193 -0.2003 -0.1441 -0.1257
11445W        W28969   9.243   2.762  13.380 -0.2462  0.0475  0.3342
11446W        W28970  12.891   1.429   2.392  0.0523 -0.0494 -0.0543
11447W        W28971   8.871   4.504   5.359  0.3035 -0.2874  0.0528
11448W        W28972   7.063   2.621  13.091  0.2722  0.1409 -0.3297
11449W        W28973   9.582  12.831  13.268 -0.0174  0.2381  0.0278
11450W        W28974   5.848  15.470   5.688 -0.2563 -0.2384 -0.1516
11451W        W28975   9.049  12.142  12.866 -0.1818  0.1384 -0.1943
11452W        W28976   2.922   3.210  17.292 -0.0289  0.1158  0.2145
11453W        W28977  12.652   6.749   2.642 -0.1858  0.3351 -0.0079
11454W        W28978  13.132   9.382   0.640  0.0486 -0.1449 -0.2156
11455W        W28979   8.078   7.395   1.607 -0.0933 -0.2262 -0.0224
11456W        W28980   6.648  16.594  16.622  0.0037 -0.0074  0.0315
11457W        W28981  16.006  14.735   0.968  0.0221 -0.0007  0.1915
11458W        W28982   3.969   0.573  13.581 -0.1865  0.1373  0.1012
11459W        W28983   4.719   3.226  12.957 -0.0959 -0.0987 -0.1077
11460W        W28984   0.278  12.522   2.190  0.1222 -0.0753 -0.1527
11461W        W28985   8.884   4.953   3.390 -0.2979 -0.1746  0.2650
11462W        W28986  12.692   6.118  14.261  0.0407  0.1139 -0.1328
11463W        W28987   4.106   4.732   1.301 -0.0816  0.0376  0.1535
11464W        W28988   2.437  14.354  13.388  0.2253 -0.1228 -0.0616
11465W        W28989  16.675  11.738  13.470  0.3602  0.2881  0.1258
11466W        W28990  13.123  15.609  15.612 -0.0268 -0.0941 -0.0689
11467W        W28991   5.470   8.006  17.646  0.1778  0.4174  0.1578
11468W        W28992  13.931  10.093   3.102  0.0368 -0.1040 -0.2625
11469W        W28993   9.007  14.605   3.733 -0.3053 -0.0061  0.0766
11470W        W28994   8.195   3.196   0.476 -0.0967  0.0643  0.3403
11471W        W28995  13.533   1.421   2.654  0.2009  0.0700  0.1026
11472W        W28996   9.994  15.655   3.352  0.3675 -0.0909  0.2232
11473W        W28997   8.987   5.843   5.251 -0.0503 -0.2215 -0.3265
11474W        W28998  16.185  11.657  13.216  0.2626  0.0355 -0.2833
11475W        W28999   1.745   2.239   5.945  0.1172  0.0803  0.0244
11476W        W29000   7.501   6.072  14.326 -0.0433  0.0608  0.0200
11477W        W29001  16.322  14.855  12.094 -0.1701 -0.0535  0.0499
11478W        W29002  16.386   0.186   4.883  0.0509  0.0468 -0.1129
11479W        W29003  16.442  12.730   2.326 -0.3890  0.1514  0.0910
11480W        W29004   4.914   8.436  14.946 -0.0063 -0.2798  0.0138
11481W        W29005  14.382  14.737  16.062  0.1764 -0.0617 -0.3907
11482W        W29006   6.241  15.611   2.046  0.2096 -0.3870 -0.1507
11483W        W29007  11.539   9.288   0.967  0.3157 -0.2982 -0.1576
11484W        W29008  16.930  15.071  15.971  0.0147  0.3101  0.2834
11485W        W29009  12.650   9.188   4.092 -0.3288  0.0628  0.0966
11486W        W29010   8.567   9.921  12.491 -0.1256 -0.0845 -0.1244
11487W        W29011   4.468   0.277  14.070 -0.2194 -0.3967  0.0538
11488W        W29012   0.490   5.437   4.054  0.0075 -0.1330  0.2641
11489W        W29013  16.941   4.601   1.979 -0.1161 -0.0658 -0.0114
11490W        W29014   2.089   9.494  12.329  0.0601  0.1915  0.1724
11491W        W29015  13.659   1.728  12.428 -0.1051 -0.1686  0.2822
11492W        W29016   4.308  10.507   1.696  0.0269  0.0898  0.1806
11493W        W29017  14.239  14.950  11.708  0.1380  0.0480 -0.0105
11494W        W29018   3.524  15.895  15.495 -0.0463  0.1078  0.0345
11495W        W29019  14.510   7.550  13.829  0.1566 -0.2602 -0.0586
11496W        W29020  10.187   5.659   1.765 -0.0652  0.0158  0.0385
11497W        W29021  10.425   4.008  16.519 -0.0585 -0.2478  0.1000
11498W        W29022  10.757  15.197   2.575 -0.0442  0.0156 -0.0376
11499W        W29023   7.872   9.140   1.457  0.0111 -0.1666  0.0055
11500W        W29024  14.774   6.298  13.274 -0.2166  0.0711  0.1496
11501W        W29025   8.629  10.002   0.664 -0.1731  0.0343  0.1779
11502W        W29026  12.449  14.695  13.509  0.0868 -0.0592  0.3616
11503W        W29027   0.043  14.433  12.924 -0.2433  0.1491  0.0034
11504W        W29028   2.934  16.263   1.533  0.1760 -0.1099  0.2493
11505W        W29029  12.000  13.128   4.059  0.0807 -0.2334 -0.0862
11506W        W29030   9.614  12.209  12.470 -0.2282 -0.0227 -0.0920
11507W        W29031  17.233   1.924   2.036 -0.2147 -0.0932 -0.0444
11508W        W29032   3.511  16.930   4.427 -0.0199  0.2216 -0.1367
11509W        W29033   1.569   0.206   1.584  0.1955 -0.2766  0.0412
11510W        W29034   1.029   4.915   5.187  0.0777  0.1273  0.4019
11511W        W29035   9.683   6.795  17.655  0.0353  0.1060  0.1083
11512W        W29036   1.776  12.365   4.049 -0.0272  0.3054  0.0797
11513W        W29037  10.095  15.663  12.657  0.1464 -0.0538  0.1669
11514W        W29038   9.335   4.793  12.307 -0.0620 -0.1326 -0.0849
11515W        W29039  13.859   0.351   4.231 -0.0918 -0.0792 -0.2811
11516W        W29040  12.271  10.374   3.322 -0.1865  0.2910  0.1204
11517W        W29041   1.483   8.279  15.624  0.1949 -0.2460 -0.0536
11518W        W29042  13.107   3.936   0.570 -0.0520 -0.0648  0.1168
11519W        W29043   1.605   5.757  12.349  0.0176  0.1591  0.1270
11520W        W29044   9.284   2.502  12.149  0.3104  0.1181  0.0816
11521W        W29045   6.175   9.107  14.276  0.0936 -0.5360  0.0059
11522W        W29046  10.361  12.243  13.683  0.0486 -0.2160  0.0691
11523W        W29047   7.803   0.764  15.426 -0.2855 -0.1200 -0.2123
11524W        W29048   8.790  10.436  16.117  0.0720 -0.3809  0.1005
11525W        W29049   5.216   0.323  14.123 -0.1579  0.2928 -0.1857
11526W        W29050  13.257  15.248  13.593 -0.1095  0.1941 -0.0757
11527W        W29051  10.402  15.257  14.938 -0.0610 -0.0224 -0.1049
11528W        W29052   6.460  16.561  14.573 -0.0258  0.1742 -0.4848
11529W        W29053  13.170   6.910   4.016 -0.3766  0.0409  0.0773
11530W        W29054   4.917  12.138   5.346  0.3782  0.1046  0.5380
11531W        W29055   7.943   2.591   1.645 -0.0283  0.0080  0.0779
11532W        W29056  11.822   8.242   3.684  0.1254 -0.0974 -0.1289
11533W        W29057   7.325  11.209  17.198  0.1937  0.2689  0.3454
11534W        W29058   4.443   3.336   0.666 -0.0513  0.0834  0.0196
11535W        W29059  12.828  16.677  15.900  0.1076 -0.2084 -0.0547
11536W        W29060   2.854   9.931   2.927 -0.1192 -0.3335 -0.0108
11537W        W29061   0.673   5.150  12.187 -0.1425  0.1347 -0.1733
11538W        W29062   6.120  10.985  15.904 -0.1171 -0.1070 -0.1039
11539W        W29063  12.786  10.077  12.046 -0.3442 -0.3504  0.4105
11540W        W29064   7.059   1.583  15.557 -0.1583  0.0329  0.0812
11541W        W29065   8.292  12.002   2.460  0.3918 -0.1853  0.1253
11542W        W29066   3.078   7.480  17.337  0.0265  0.0179 -0.4152
11543W        W29067  11.912   6.558   5.182  0.0239  0.0902  0.0251
11544W        W29068   1.367   4.893   0.634 -0.2640  0.2144 -0.1567
11545W        W29069  16.917   9.095  12.653 -0.1252 -0.0541 -0.0126
11546W        W29070  10.094   9.125  17.242  0.0383 -0.1347 -0.2833
11547W        W29071  16.045  14.140   3.133 -0.0850  0.0790  0.1685
11548W        W29072  11.463   5.098  13.424  0.3162 -0.0767 -0.1054
11549W        W29073  15.477   3.047   1.655  0.3365 -0.0798  0.2891
11550W        W29074  12.699   1.137   3.760  0.0515  0.0565 -0.0948
11551W        W29075  10.416  16.060   2.838 -0.0446  0.0854 -0.3150
11552W        W29076   4.086  16.966  15.833  0.0424 -0.1968 -0.0775
11553W        W29077  12.424  11.884  15.855  0.3172  0.1482 -0.1678
11554W        W29078   1.023  14.599   3.517  0.4312 -0.1000  0.2056
11555W        W29079   5.513   2.217   0.102  0.0642 -0.0829 -0.1218
11556W        W29080   0.742   4.652  11.931 -0.2294  0.1845  0.2962
11557W        W29081   6.518   2.238  15.032 -0.0328 -0.0411  0.1764
11558W        W29082  14.907  11.552   0.682  0.1062 -0.2010 -0.0892
11559W        W29083  11.807   8.932   2.343 -0.1361 -0.1923 -0.3530
11560W        W29084  15.459  12.243   4.349  0.0573  0.0271 -0.1145
11561W        W29085   2.143   6.384   0.618  0.1601 -0.3275  0.1705
11562W        W29086   1.481  11.268   2.806  0.0804  0.1598  0.2026
11563W        W29087  10.664   9.066  11.847 -0.0224  0.0129  0.3144
11564W        W29088   1.931   5.192   5.034  0.2326 -0.2290  0.1154
11565W        W29089   0.119  12.936  17.164  0.2640  0.2777  0.0628
11566W        W29090  10.637   8.562  15.584 -0.3052 -0.0204 -0.0311
11567W        W29091   0.654  17.069  15.404 -0.1620 -0.0469 -0.2246
11568W        W29092  14.025   2.981  17.228 -0.0095  0.0457  0.0868
11569W        W29093   3.361  15.244  15.098 -0.0139 -0.0289 -0.0673
11570W        W29094  10.347   4.483   5.665 -0.1264 -0.1908 -0.0342
11571W        W29095   5.810   3.942   4.318 -0.2552  0.0308  0.2278
11572W        W29096   8.806  15.514   5.584  0.2001 -0.2718  0.3111
11573W        W29097  12.564   7.768   1.681 -0.1979 -0.2213 -0.1944
11574W        W29098   6.136  12.549   0.038 -0.0713 -0.2641 -0.0261
11575W        W29099  15.720   4.526  13.406 -0.1168  0.0742  0.1347
11576W        W29100  11.958   6.763  14.642  0.1102  0.3166 -0.4561
11577W        W29101  10.505   1.843   0.412  0.0071 -0.1119 -0.0866
11578W        W29102   9.548  15.260   3.420 -0.0302 -0.1907 -0.2114
11579W        W29103   3.176  12.752   2.740  0.2471  0.2674 -0.0281
11580W        W29104   0.954  14.298  14.358  0.2487  0.0734 -0.0486
11581W        W29105   1.470  14.395  16.352  0.4045  0.0406  0.0484
11582W        W29106   9.912  13.550  15.352  0.2441 -0.1524 -0.0526
11583W        W29107   7.059   3.088   1.164  0.1441 -0.0091 -0.0059
11584W        W29108  17.037   4.772   4.594  0.1525  0.1384  0.0866
11585W        W29109  16.250   6.915  13.566  0.0136  0.0198 -0.2137
11586W        W29110  14.054  17.172   2.049 -0.3207 -0.1738 -0.1560
11587W        W29111   0.976   9.777  12.518  0.2710  0.0082  0.0980
11588W        W29112  13.978  17.166   4.420  0.4119  0.0338  0.3312
11589W        W29113   3.578   6.290   1.312  0.1663  0.1494 -0.0464
11590W        W29114  14.653  15.239   1.450  0.0750 -0.0173  0.1765
11591W        W29115   1.354   6.449  12.250  0.0093 -0.1393 -0.1857
11592W        W29116   0.660   2.302   1.494 -0.3771 -0.1336 -0.0775
11593W        W29117  16.886  12.147   3.557 -0.1295  0.1681 -0.0417
11594W        W29118  14.230  12.330   4.741 -0.1726 -0.0146  0.0367
11595W        W29119  15.724   9.438  15.845 -0.1572 -0.0341 -0.2194
11596W        W29120  13.968   3.175  13.287 -0.2691  0.1326  0.1707
11597W        W29121  13.815   0.780   5.641  0.0822  0.0117 -0.4047
11598W        W29122   8.164   7.647  13.897  0.0939  0.1475  0.2473
11599W        W29123  16.311   7.669   0.427  0.2384 -0.3366  0.0585
11600W        W29124  15.473   2.335  15.280  0.1603  0.0013  0.0293
11601W        W29125   0.118  14.866  15.879  0.0259  0.3977 -0.1427
11602W        W29126   8.769   9.759  13.591  0.0512 -0.3318 -0.0246
11603W        W29127   7.087  15.791  14.971 -0.2898  0.0625 -0.0652
11604W        W29128   6.032   4.420   4.304  0.0666 -0.0583 -0.1108
11605W        W29129   5.991  12.124   3.676 -0.3654 -0.0728 -0.0993
11606W        W29130  14.286  16.575   3.634  0.0950  0.0773  0.1609
11607W        W29131   7.979   5.772   4.183  0.0157  0.3375 -0.2906
11608W        W29132  12.819  11.908  15.010  0.2184  0.1791  0.0891
11609W        W29133   5.023  16.653   0.132  0.0143 -0.1788  0.1374
11610W        W29134   0.957  14.777   6.335  0.1076 -0.1482  0.2305
11611W        W29135  16.320   3.899   4.855  0.2538 -0.3402  0.1250
11612W        W29136   2.416   1.220  15.518  0.1860 -0.0702 -0.0525
11613W        W29137  16.254   7.074   4.654  0.1309  0.3216 -0.4498
11614W        W29138  14.930   5.928  15.896  0.2678  0.1478  0.0772
11615W        W29139  10.232   0.241  16.044 -0.0931 -0.1575 -0.0750
11616W        W29140   0.240   0.486  14.967 -0.4294  0.1515  0.0124
11617W        W29141   2.837   3.678  13.360  0.0100  0.0535  0.1033
11618W        W29142   9.868  16.365  17.380 -0.1601  0.2770 -0.1006
11619W        W29143  14.580   4.158   0.056 -0.5081 -0.0743 -0.0727
11620W        W29144  15.825   1.044   3.714 -0.0223 -0.0264  0.0949
11621W        W29145  14.836  10.885   1.638  0.0190  0.0951  0.0761
11622W        W29146  14.843  11.579   1.222  0.2132  0.0425 -0.0501
11623W        W29147   3.415  16.141   1.344  0.0659  0.2957 -0.0176
11624W        W29148  14.285   2.694   4.915 -0.0486  0.2806 -0.0617
11625W        W29149  15.660  16.078   4.530 -0.0302 -0.0983 -0.1005
11626W        W29150   2.369   1.163  13.647 -0.2986 -0.2323 -0.1315
11627W        W29151  10.324   9.867  12.341 -0.0717 -0.0522 -0.0619
11628W        W29152   8.796   5.980  15.400 -0.4312  0.0455  0.1552
11629W        W29153  16.840   2.435   0.698  0.1065  0.1180  0.0715
11630W        W29154   4.886   3.801  17.183  0.4224  0.0678 -0.2564
11631W        W29155  16.555  13.323  12.803 -0.0219 -0.0123 -0.0880
11632W        W29156   7.871   9.336  14.700 -0.0102  0.0655 -0.4652
11633W        W29157   0.804   4.759   3.390  0.0968  0.1015 -0.2216
11634W        W29158  10.740   3.095  14.976 -0.2062 -0.2615  0.1567
11635W        W29159   2.703  15.944  17.408  0.1161  0.0517  0.3794
11636W        W29160  15.724   7.176  11.384  0.1976 -0.0929  0.1976
11637W        W29161  16.519   4.945  13.400  0.2202 -0.1587 -0.2933
11638W        W29162   5.141   1.441   2.126  0.0901  0.2407 -0.0303
11639W        W29163   0.363  13.544  14.375 -0.2547  0.0111  0.1017
11640W        W29164   9.623   7.460   2.558  0.2428 -0.2098 -0.1192
11641W        W29165   8.532  15.989  14.060  0.0785  0.1262  0.0650
11642W        W29166   8.230  10.892   1.641  0.1747 -0.1860 -0.0211
11643W        W29167   5.333   6.210   5.431 -0.0389  0.2227  0.2460
11644W        W29168   7.660  13.016  13.374 -0.1578 -0.2220 -0.0548
11645W        W29169   5.211   6.351   6.166 -0.0971  0.0684 -0.0869
11646W        W29170   6.017  13.350  13.323  0.0959  0.2380  0.2072
11647W        W29171   4.840  11.973  16.763  0.2110  0.0449 -0.1914
11648W        W29172  10.641  12.257   1.739  0.1163 -0.1426  0.0787
11649W        W29173  12.056   3.874   5.132 -0.1369 -0.2101 -0.0097
11650W        W29174  10.105   0.812  13.885 -0.1098 -0.1185 -0.0870
11651W        W29175  15.391   5.985   2.633  0.1714 -0.1431  0.3823
11652W        W29176  11.307  15.042   3.257  0.0605  0.0209 -0.0267
11653W        W29177  13.200  16.039   4.069  0.1059  0.4098 -0.2787
11654W        W29178   4.434   7.002  15.862 -0.4534 -0.1199 -0.0377
11655W        W29179  15.978  13.952   0.930  0.0426 -0.0080  0.2957
11656W        W29180   3.621  14.227   3.623 -0.4147 -0.0507  0.2276
11657W        W29181   7.548  10.715   0.195 -0.2547  0.0008  0.3133
11658W        W29182  12.907  13.938  13.206 -0.1777 -0.0221 -0.2553
11659W        W29183   0.590  16.927  15.875  0.4260 -0.2670 -0.1128
11660W        W29184   8.675  15.219  16.923  0.0534  0.2012  0.0382
11661W        W29185  11.180  15.238   2.347  0.1021 -0.1282 -0.2720
11662W        W29186  10.933  13.698   5.574 -0.0921 -0.2890  0.1017
11663W        W29187  15.739   0.017   0.781 -0.1353 -0.0084 -0.0715
11664W        W29188   7.592   7.636   3.414 -0.1156  0.1000  0.0090
11665W        W29189  14.778  13.566   0.904 -0.0373  0.1472  0.2974
11666W        W29190  14.592   6.904   4.980 -0.0860 -0.1389  0.4735
11667W        W29191  15.517  16.072   1.413 -0.1866 -0.1711  0.0232
11668W        W29192   9.410   9.898   2.764  0.1660 -0.0136  0.1258
11669W        W29193   7.166   2.066  13.268  0.5302  0.1021  0.0397
11670W        W29194   3.133   8.495   3.186 -0.0688 -0.0721  0.1002
11671W        W29195   7.542  10.240  16.182 -0.2041 -0.3023 -0.0509
11672W        W29196  15.161  12.436  13.685  0.1301 -0.1623  0.3048
11673W        W29197   1.319  12.101  16.590 -0.0434 -0.1051  0.0975
11674W        W29198   4.210   1.691  17.373  0.0929  0.3395  0.1073
11675W        W29199  11.220  16.609   3.357 -0.0917 -0.1778 -0.1257
11676W        W29200   7.030   9.549   1.713  0.0126  0.0650 -0.0465
11677W        W29201  11.373   3.129   1.798  0.1496  0.0352 -0.1540
11678W        W29202   9.055   1.760   1.238  0.0403  0.2107 -0.0424
11679W        W29203   6.809  14.654   5.170  0.0476  0.0704  0.1829
11680W        W29204   1.236  13.697   0.471  0.0803 -0.2916  0.1769
11681W        W29205   8.771   1.467  16.639 -0.2877  0.0763 -0.1140
11682W        W29206  16.769   1.771  16.609  0.0845  0.0167  0.0958
11683W        W29207  14.406   2.066   2.602 -0.1916 -0.1343 -0.3015
11684W        W29208   9.154  14.957   1.512 -0.1801 -0.2210  0.0375
11685W        W29209  15.691  10.895   2.370  0.1784 -0.0493 -0.0571
11686W        W29210  16.702   1.477   4.794 -0.2545 -0.0055  0.2339
11687W        W29211   2.659   7.900  17.493  0.0547 -0.1354 -0.3624
11688W        W29212   5.750   8.296   5.018 -0.0136 -0.0112  0.0286
11689W        W29213  10.041  12.562  13.557 -0.1416  0.2161 -0.0811
11690W        W29214   7.761   7.053   1.304 -0.2182 -0.2721  0.1578
11691W        W29215  12.005   4.936   1.067 -0.1854 -0.2298  0.0734
11692W        W29216  10.454   0.506  13.640  0.0779 -0.2185  0.1935
11693W        W29217   8.884   3.003  14.811 -0.0089  0.2831  0.0094
11694W        W29218  15.345  17.212   2.125 -0.0740  0.1314 -0.1822
11695W        W29219   6.114   4.308   3.155  0.0763  0.0945 -0.0520
11696W        W29220   0.567  13.332  15.790 -0.0224 -0.1270  0.1367
11697W        W29221  13.372   2.370   4.796  0.1245  0.1361  0.0674
11698W        W29222   5.438   2.909   2.398  0.0009 -0.2877 -0.1624
11699W        W29223   6.698   4.143   2.796  0.2510  0.1579  0.1200
11700W        W29224  15.344   5.033  12.853 -0.0009  0.0668  0.4819
11701W        W29225   3.539   4.949   5.337  0.2120 -0.3501 -0.1725
11702W        W29226   4.329   7.168   4.123 -0.0113 -0.0594 -0.0187
11703W        W29227   7.347   8.743   3.207 -0.0443  0.1595 -0.2945
11704W        W29228  14.422   8.758  15.168  0.0156  0.1819  0.1286
11705W        W29229  11.205   6.399  14.419 -0.0869  0.0856  0.0965
11706W        W29230   7.211   2.387   4.657  0.0694 -0.2889 -0.2987
11707W        W29231   5.947   0.787  13.407 -0.0847  0.0801  0.0569
11708W        W29232   3.185   7.264   5.844  0.0371  0.3043 -0.1080
11709W        W29233  16.719   3.157   5.265  0.3734 -0.1209  0.3244
11710W        W29234   8.499   6.673  16.691  0.0865  0.1615  0.1933
11711W        W29235   8.597  13.038   4.051  0.0943  0.0924  0.1625
11712W        W29236   3.321   4.597  16.326 -0.3174  0.2957  0.5738
11713W        W29237   9.572   8.115   4.473 -0.3247  0.1867 -0.1668
11714W        W29238   0.875  10.131   1.383  0.1531  0.0253  0.1032
11715W        W29239  14.415  17.048   3.358  0.1577 -0.2903  0.1617
11716W        W29240   6.764   9.931  14.969  0.2789 -0.0227  0.1448
11717W        W29241  16.349   4.144  15.270  0.1247 -0.1415 -0.1368
11718W        W29242   8.022   6.556  16.485  0.2484  0.2255 -0.2386
11719W        W29243  11.700   1.349   1.619  0.2248  0.0340  0.2145
11720W        W29244  16.868   4.049   5.001  0.1169 -0.0956  0.0084
11721W        W29245   7.777   8.695   2.899 -0.0175 -0.0094  0.2229
11722W        W29246   3.772   8.956  16.731 -0.0661 -0.0563  0.1563
11723W        W29247  10.658   4.250   1.333  0.1473 -0.1916  0.3572
11724W        W29248  10.442   8.446  13.422  0.0016 -0.2003 -0.1009
11725W        W29249   4.706   8.860   3.748  0.0084 -0.0279  0.1390
11726W        W29250   2.782   6.933   3.669  0.1197  0.1728 -0.1667
11727W        W29251  11.957  10.219   3.932 -0.1507 -0.2366 -0.0519
11728W        W29252  16.700   0.989   3.211 -0.0571  0.0847  0.1206
11729W        W29253   3.665   9.420  14.046  0.0057  0.3706  0.1840
11730W        W29254  16.015   6.820   3.963 -0.2192  0.0668  0.0487
11731W        W29255  13.230  16.140   4.946  0.2013 -0.2435  0.2358
11732W        W29256   5.613   9.284   1.335  0.1731 -0.2309 -0.2770
11733W        W29257  11.248  10.906   4.068  0.0613  0.1581 -0.1003
11734W        W29258   8.181  17.104   5.417  0.2573 -0.0708 -0.0477
11735W        W29259   8.904  15.937   5.097  0.0543 -0.0123  0.1438
11736W        W29260  10.595   2.970  13.963 -0.1870  0.2135  0.0889
11737W        W29261   6.726   6.267   3.259  0.0737 -0.2951  0.1019
11738W        W29262   0.928  12.956  13.779  0.0091  0.1529  0.0024
11739W        W29263  16.045  13.206  14.561 -0.0075 -0.1423  0.0903
11740W        W29264   1.512  10.897   1.889 -0.0057 -0.0250 -0.0105
11741W        W29265  10.315   7.993  13.128  0.2481 -0.1783  0.1823
11742W        W29266  15.832   7.333  17.436  0.0035  0.0720 -0.6324
11743W        W29267   9.538  12.277   1.761 -0.0306 -0.1168 -0.2301
11744W        W29268   7.101   4.930  13.698  0.0136 -0.2601  0.0247
11745W        W29269   4.595  14.091  13.857 -0.2841  0.3184 -0.3328
11746W        W29270   8.600  12.487   3.189  0.2289  0.2717 -0.4776
11747W        W29271   5.451   7.701   0.912  0.2435 -0.2204  0.1336
11748W        W29272   0.122  10.399   4.228  0.1385  0.1470  0.1315
11749W        W29273   1.034  15.829   0.130 -0.2543  0.1516  0.0279
11750W        W29274  14.138   5.904   0.308  0.0217  0.3129  0.0691
11751W        W29275   8.827  11.754  13.304  0.2032 -0.1560 -0.2093
11752W        W29276   4.928  17.237  13.325 -0.1250  0.2129 -0.2248
11753W        W29277   1.398  13.781  13.709  0.1437 -0.2556 -0.1767
11754W        W29278  16.842  10.598   0.441  0.2555  0.3223  0.1347
11755W        W29279  11.975   2.351  12.636 -0.0223  0.1626 -0.1288
11756W        W29280   8.803   1.496  14.164  0.2178  0.0428  0.0221
11757W        W29281   6.000  15.594   1.091  0.0754 -0.0334 -0.0724
11758W        W29282  11.423  12.565   1.260 -0.1389  0.1625 -0.3086
11759W        W29283  10.241   9.214  15.993  0.1295  0.0037 -0.0017
11760W        W29284  16.952   3.446  15.240  0.2539  0.1339 -0.0629
11761W        W29285  12.394   5.419   0.300 -0.1593 -0.1411  0.0307
11762W        W29286  15.034  12.880  13.534  0.0169  0.0506  0.1478
11763W        W29287   8.078  14.074  12.259  0.0751 -0.4712  0.0643
11764W        W29288  10.417   1.237  12.793 -0.0140  0.4058  0.0747
11765W        W29289   8.201  10.039  14.930 -0.1341 -0.0222  0.1681
11766W        W29290  11.381   3.355   5.515  0.2287  0.1654 -0.2110
11767W        W29291  17.028  13.310  13.600 -0.3483  0.0049  0.0137
11768W        W29292   4.587  15.737  12.433 -0.4417 -0.0519 -0.0657
11769W        W29293   0.477  10.740   1.728  0.0336  0.1986 -0.1552
11770W        W29294  11.311   8.076   2.285 -0.0676 -0.2138 -0.0318
11771W        W29295   0.942  17.048  16.224 -0.0981  0.0017  0.2891
11772W        W29296   8.613   6.176  12.413  0.0650 -0.1852  0.0965
11773W        W29297   7.297  13.781   0.620 -0.2456  0.2721 -0.2567
11774W        W29298   0.717   6.803   1.488 -0.0662  0.0020  0.1216
11775W        W29299   2.841  10.931   0.481 -0.3828  0.0371 -0.0044
11776W        W29300   2.304   4.743  15.708 -0.0610 -0.0740  0.0982
11777W        W29301   5.571   8.344  13.004 -0.1585 -0.3226  0.2322
11778W        W29302  10.366  11.628  12.427  0.2828 -0.0253 -0.1015
11779W        W29303   5.665  15.286   1.290  0.1061 -0.0891 -0.1085
11780W        W29304   3.831  15.435   1.081 -0.3009 -0.0883 -0.3305
11781W        W29305  16.759  14.258  14.326  0.1342 -0.1858  0.0409
11782W        W29306  14.309   7.619   4.233  0.3646 -0.1310 -0.0109
11783W        W29307   5.641   5.810  15.589 -0.1742  0.1872 -0.2035
11784W        W29308  12.656  12.760  15.062  0.0238  0.2272 -0.1805
11785W        W29309   7.159  13.672   3.495 -0.3859 -0.0909  0.0695
11786W        W29310   6.284  15.831  17.137 -0.0229 -0.0779 -0.0532
11787W        W29311   5.970   0.777   3.304 -0.5070  0.1568 -0.0639
11788W        W29312  10.016   4.195  15.646  0.2135  0.0139  0.0946
11789W        W29313   8.217   4.709  16.031 -0.0660  0.1867  0.0736
11790W        W29314  16.338   0.696  12.914 -0.0226 -0.4049  0.3348
11791W        W29315   5.981   2.199   3.450 -0.2298  0.1426 -0.1705
11792W        W29316   7.380   6.335   4.078 -0.2601 -0.2029  0.2803
11793W        W29317   6.917   1.211   0.943  0.1229  0.0894 -0.2138
11794W        W29318  10.085   8.328   3.459 -0.1514  0.0760 -0.1046
11795W        W29319  16.426   8.038   2.666 -0.2003  0.0170 -0.0567
11796W        W29320  11.307   3.451   3.960  0.1635 -0.1478 -0.1709
11797W        W29321  12.918  15.251   1.607  0.0026  0.0786 -0.1534
11798W        W29322  13.807   2.181  12.742  0.1339  0.4635 -0.0647
11799W        W29323  15.794  12.407   2.661 -0.1411  0.1221  0.0168
11800W        W29324   5.330  14.312  12.161  0.2995 -0.0310 -0.0166
11801W        W29325   9.747   8.793   1.728 -0.0406 -0.0869  0.1197
11802W        W29326  14.704   1.154  16.690 -0.2967 -0.0484 -0.1813
11803W        W29327   8.545  15.697  16.688 -0.0415 -0.0929 -0.1406
11804W        W29328   1.250  11.262   1.625 -0.2380  0.0666 -0.4769
11805W        W29329   8.569   7.309  15.592 -0.3048  0.1042  0.1335
11806W        W29330  10.518  11.276   3.825 -0.0647 -0.0449 -0.1613
11807W        W29331   7.515  11.691   5.536 -0.2184  0.0355 -0.0503
11808W        W29332   9.817  16.396   6.161  0.0669 -0.2953 -0.1339
11809W        W29333   8.825   8.537  14.251 -0.0837 -0.0609 -0.1841
11810W        W29334  12.419  15.219  12.071 -0.0171 -0.1123 -0.0316
11811W        W29335   7.796  13.539   3.448  0.3096 -0.0244 -0.2240
11812W        W29336   5.799   6.087  16.596 -0.0524 -0.0850  0.1144
11813W        W29337  15.225  11.206  15.301 -0.1622 -0.1608 -0.0635
11814W        W29338   4.451  10.521   3.108 -0.0536  0.1409 -0.2452
11815W        W29339  11.702  16.373  17.515  0.0237  0.1058 -0.0518
11816W        W29340   0.137  15.052  16.913  0.2111  0.2314  0.2286
11817W        W29341  10.606  14.744  17.522  0.0536 -0.0406  0.1166
11818W        W29342   3.657  12.090  13.398  0.2303 -0.2056  0.1337
11819W        W29343  10.006  14.944   2.779 -0.2662  0.2580 -0.2360
11820W        W29344   9.937   9.252   0.043  0.0907  0.3705 -0.1734
11821W        W29345   8.662   3.801  16.718  0.2234 -0.0372 -0.0679
11822W        W29346  14.129   5.844   4.963 -0.2049  0.0726  0.3146
11823W        W29347   7.919  13.654  16.801 -0.2038 -0.0745 -0.3717
11824W        W29348   1.146  16.282  16.050 -0.3325 -0.0215  0.2250
11825W        W29349  12.846  12.201  16.632  0.3532 -0.0681 -0.0006
11826W        W29350  11.085  15.280  13.193 -0.1303  0.0268  0.1015
11827W        W29351   7.874   9.552   5.407 -0.1474  0.1030 -0.0937
11828W        W29352  14.628  14.464   0.628 -0.1405 -0.0202 -0.0871
11829W        W29353   8.431   8.688  12.819  0.0621 -0.0738  0.0941
11830W        W29354   2.471   6.587   4.693 -0.2120  0.4671 -0.2092
11831W        W29355   6.979  11.718  15.496 -0.1669  0.1075  0.1836
11832W        W29356  15.192   4.461  14.595  0.0275 -0.2946  0.2462
11833W        W29357  17.080   4.851   1.502 -0.2166 -0.1292  0.0885
11834W        W29358   0.609   9.171   2.073  0.1991  0.0012  0.0733
11835W        W29359  12.576   4.358   4.457 -0.0785  0.1488  0.0431
11836W        W29360   5.529   3.057  14.717  0.0329 -0.2044 -0.2526
11837W        W29361  12.622   7.963  17.194  0.0680  0.0122 -0.1341
11838W        W29362  13.057   2.030   6.493  0.0799 -0.2495 -0.2846
11839W        W29363  13.251  12.350  13.415  0.1346 -0.1191  0.0329
11840W        W29364  15.749   5.446  15.242  0.0295 -0.0092 -0.2124
11841W        W29365   6.363   7.207   1.719  0.1112 -0.1692  0.1818
11842W        W29366   0.549  15.739  15.641  0.1316 -0.0215 -0.2025
11843W        W29367  16.084   9.335  17.360  0.1693 -0.2431  0.0654
11844W        W29368  13.915   7.935   3.746 -0.0695  0.0498  0.2603
11845W        W29369  13.897   0.613  14.696 -0.3526  0.0048 -0.1305
11846W        W29370  15.295   1.065   0.422 -0.0790  0.1673 -0.1315
11847W        W29371  11.895  13.800  17.552  0.3965 -0.2901 -0.2719
11848W        W29372  13.192  15.570  16.500  0.0920 -0.1521 -0.0878
11849W        W29373  12.914  16.365  14.152 -0.1812 -0.2166  0.0594
11850W        W29374  13.617   0.445   5.308  0.1112  0.0199  0.0416
11851W        W29375  13.861   4.580  15.168 -0.2601  0.0289 -0.1491
11852W        W29376   7.944   9.346  13.192  0.0359 -0.0486 -0.2630
11853W        W29377  11.832   6.080  15.713  0.2276 -0.2827  0.1074
11854W        W29378  16.564   8.822  14.820 -0.3871  0.0304 -0.1408
11855W        W29379   7.721   5.680  12.803 -0.2571  0.1266 -0.4026
11856W        W29380   3.363  11.557  14.967  0.1377 -0.0906 -0.2011
11857W        W29381   4.177   6.917   1.591 -0.3743  0.1626 -0.0293
11858W        W29382  14.985  13.545   4.992  0.3978 -0.0711 -0.1917
11859W        W29383   9.341   0.232  15.500 -0.1923  0.0977  0.0569
11860W        W29384  13.368   8.544  17.500 -0.2573  0.1980  0.2073
11861W        W29385  16.661   3.194  13.258 -0.2602 -0.0521 -0.1198
11862W        W29386  15.659   2.887   1.185 -0.1455 -0.2903 -0.3719
11863W        W29387   9.960   5.849   4.469 -0.0852  0.1559  0.1352
11864W        W29388   7.881  11.988   2.214  0.0381 -0.0254  0.3686
11865W        W29389   3.645   6.883  14.359 -0.0639  0.2322 -0.1736
11866W        W29390  10.950  15.086  16.529 -0.4073  0.1121 -0.0298
11867W        W29391  13.049  12.036   0.459  0.0610  0.0889  0.1452
11868W        W29392  16.245   7.886  15.058 -0.0589 -0.0219 -0.0484
11869W        W29393   2.864  10.790   3.703  0.0963  0.0707  0.0180
11870W        W29394   5.608   7.638  12.298  0.0614  0.1179 -0.1560
11871W        W29395   5.973   5.113  12.516  0.2319  0.0488  0.3187
11872W        W29396  10.275   2.249  13.848 -0.1897  0.1040  0.2388
11873W        W29397   8.461  15.463   1.151  0.2304  0.2197 -0.1690
11874W        W29398   5.629   0.468  13.197 -0.2380  0.1812  0.0821
11875W        W29399  14.576   9.136  14.278  0.5204 -0.2448  0.4599
11876W        W29400   7.078  13.089  17.047 -0.0335  0.0834 -0.1239
11877W        W29401   3.877   8.691   2.670 -0.3174 -0.0559  0.0910
11878W        W29402  16.971  10.568  12.642  0.5480 -0.0907 -0.1173
11879W        W29403   6.280  12.855  15.139  0.2042 -0.0374 -0.0927
11880W        W29404  13.638  11.260   0.502 -0.3030  0.3860  0.1889
11881W        W29405   4.663   6.792  17.398  0.0996 -0.3107  0.0362
11882W        W29406  15.497   8.437  11.706 -0.1237  0.0647  0.0674
11883W        W29407   3.945  16.058   3.289  0.1206  0.1973 -0.0564
11884W        W29408   5.445   6.815   3.265 -0.4142 -0.2792 -0.3710
11885W        W29409  15.210   2.047  14.349  0.1898 -0.2631 -0.0282
11886W        W29410  11.750   8.716  16.742 -0.1286 -0.0551 -0.0732
11887W        W29411   0.438  14.277  14.577 -0.0493 -0.1220  0.1654
11888W        W29412  10.533   9.577   1.771 -0.3360 -0.0002  0.2845
11889W        W29413   1.531  11.993   1.175  0.0740  0.1392 -0.1336
11890W        W29414   4.945   8.519  14.134  0.2974  0.0725 -0.2187
11891W        W29415   4.296   2.115   2.081 -0.0242  0.0582  0.0094
11892W        W29416  16.721   2.450  14.274 -0.4062  0.3574 -0.1577
11893W        W29417  11.658  14.536   4.202 -0.2193  0.1658 -0.0050
11894W        W29418   6.932   3.447  13.517 -0.1288  0.0767  0.0105
11895W        W29419  16.481  12.410  15.763  0.0608  0.0108  0.1475
11896W        W29420   4.451  15.741   2.441  0.2719 -0.0349  0.1081
11897W        W29421  16.317  15.742   0.745  0.2876 -0.0085 -0.0260
11898W        W29422  13.935  10.869  13.010 -0.1228  0.1580  0.0518
11899W        W29423  16.645  14.378   0.123 -0.1475 -0.1878 -0.3611
11900W        W29424  12.656  12.863  15.569 -0.2077 -0.3365  0.1440
11901W        W29425   1.454  15.357  15.625 -0.0290  0.2801 -0.2236
11902W        W29426  16.027   9.634   2.835 -0.0218  0.2082 -0.2651
11903W        W29427   0.704   0.788  13.684  0.0111 -0.0803 -0.1774
11904W        W29428   5.198  14.238   2.714  0.0917 -0.2424 -0.0735
11905W        W29429  13.147  10.540  15.551 -0.1853 -0.3872 -0.0639
11906W        W29430   0.373   1.306   3.700  0.1697 -0.3539  0.1390
11907W        W29431   3.980   5.971   4.214  0.0578 -0.1560  0.1833
11908W        W29432  11.384   2.035  17.229  0.1245  0.1418  0.3174
11909W        W29433  11.072   4.872   2.061  0.2200  0.0615  0.0319
11910W        W29434   7.597   6.282  14.995  0.0550  0.2541  0.1333
11911W        W29435   0.458   2.518  13.309 -0.2724  0.2180 -0.2851
11912W        W29436  15.014  13.700  15.275  0.0292  0.1493  0.1762
11913W        W29437   1.162   5.626   3.715  0.1066  0.1585  0.0168
11914W        W29438  10.357  14.961   5.828 -0.1991  0.1971 -0.0232
11915W        W29439  14.480   1.493   3.358 -0.1492  0.1629  0.1795
11916W        W29440  16.017   4.024   4.440  0.1493  0.0805 -0.3450
11917W        W29441   9.056   0.041  12.986 -0.0073 -0.3045 -0.1715
11918W        W29442   6.674   0.500   2.833  0.1021 -0.1508  0.1999
11919W        W29443  10.534   9.127   0.438 -0.0407 -0.0182 -0.1987
11920W        W29444  11.341  10.644   0.534  0.0356 -0.0086 -0.1874
11921W        W29445   4.142  15.652  17.206 -0.2122  0.1913 -0.4173
11922W        W29446   5.144  13.400  13.691 -0.2220 -0.3210 -0.1115
11923W        W29447   6.796  14.013  14.680 -0.0359  0.0298 -0.2026
11924W        W29448  16.861   2.050  13.510 -0.0031 -0.0089  0.3432
11925W        W29449   0.017   1.873  14.471  0.1127 -0.3278 -0.1684
11926W        W29450   8.266   4.109  15.049 -0.2450  0.1506  0.1557
11927W        W29451  12.455  14.059   0.833  0.0451 -0.0704 -0.0027
11928W        W29452   5.063   9.221  13.611  0.0266  0.1197 -0.0497
11929W        W29453  17.056   7.744  13.462 -0.1321 -0.2107 -0.0165
11930W        W29454   5.258  15.007   0.141  0.0952 -0.0073 -0.0485
11931W        W29455   2.193  14.831  13.387 -0.0746  0.0218  0.1549
11932W        W29456   8.996  13.653   5.559  0.1808 -0.1942  0.2706
11933W        W29457   1.140   5.236   0.993 -0.1609  0.0172 -0.1433
11934W        W29458  13.173  11.206  16.994 -0.0333 -0.0111 -0.1191
11935W        W29459  15.570   8.830  14.548  0.1095 -0.0800 -0.2542
11936W        W29460   7.106   5.604  16.399 -0.2697 -0.2570 -0.1998
11937W        W29461   5.263  13.145  15.117  0.5284  0.1446  0.0670
11938W        W29462  10.283  10.742   2.491  0.0743  0.0913  0.1813
11939W        W29463  12.929   8.039  16.811  0.0598  0.1097 -0.2412
11940W        W29464   3.177   7.148   2.063  0.0239  0.0200  0.2410
11941W        W29465   5.376   7.252  17.416 -0.1329 -0.0798 -0.1643
11942W        W29466   2.863  10.635   4.944 -0.2253 -0.2299 -0.0427
11943W        W29467   0.681  13.616   4.297 -0.0292  0.2335 -0.0500
11944W        W29468   3.908   7.495  13.970 -0.0794  0.0510 -0.1054
11945W        W29469   8.708   3.768   2.160  0.4713  0.4600 -0.0618
11946W        W29470  13.191  15.256   3.974 -0.1889 -0.2130  0.2998
11947W        W29471   2.524   5.659  15.208  0.2391  0.0474 -0.0645
11948W        W29472   0.422  15.056  12.588  0.3382 -0.1441  0.3938
11949W        W29473   3.586   2.291   1.183 -0.1682 -0.1078  0.0290
11950W        W29474  15.297  14.895   6.074 -0.1475 -0.2847 -0.0813
11951W        W29475   7.003  14.270   4.895  0.1055  0.1531 -0.1539
11952W        W29476   3.181  10.972   4.371  0.2342 -0.6026  0.0653
11953W        W29477   0.393   2.825  15.878 -0.0035 -0.1280 -0.0214
11954W        W29478   9.110   5.407  17.441  0.1061  0.0495 -0.0149
11955W        W29479   4.057  16.212  13.741  0.2995 -0.1299 -0.3189
11956W        W29480   8.237   7.941  14.822  0.0427 -0.2010  0.1821
11957W        W29481   5.983   8.228  13.338  0.1720  0.0132  0.0688
11958W        W29482  13.424  11.928   0.922 -0.4421  0.0418 -0.1695
11959W        W29483   7.629   9.960   2.813 -0.4224 -0.1389 -0.0881
11960W        W29484  15.706  10.805  17.510  0.0618 -0.0936 -0.2104
11961W        W29485  11.453   2.209  16.731 -0.1891 -0.1174 -0.2327
11962W        W29486  11.560   2.292   3.554  0.1297  0.0875  0.0003
11963W        W29487   4.275  16.452  15.889 -0.0116  0.0601  0.0999
11964W        W29488   6.723   4.485   1.544  0.0753  0.0792 -0.0818
11965W        W29489   7.092  16.541  13.814  0.0694 -0.3914  0.1371
11966W        W29490   0.564   2.545  15.365  0.1887  0.0724  0.1667
11967W        W29491  15.300  12.387  15.583  0.0711 -0.2783 -0.2814
11968W        W29492   1.637   5.889   3.808  0.0217  0.0053  0.1369
11969W        W29493   9.063   0.523   2.726  0.0318  0.0568  0.1235
11970W        W29494   7.120  14.850   2.590  0.1344 -0.1261 -0.0999
11971W        W29495  15.150   4.241  16.998  0.0088  0.0057  0.1079
11972W        W29496   9.025   0.965  13.555  0.0147 -0.0492  0.0443
11973W        W29497   0.035  10.369   5.608  0.3231 -0.1436 -0.0757
11974W        W29498   7.909   9.018  12.729  0.1958 -0.1321 -0.2684
11975W        W29499   8.925  14.059   1.162  0.2401 -0.2186  0.0571
11976W        W29500  15.710  12.141  15.786  0.2379 -0.0413 -0.1047
11977W        W29501   4.892   4.110   4.727  0.0469  0.2892  0.0707
11978W        W29502   8.250  15.059  15.233  0.3135 -0.1887  0.0158
11979W        W29503   8.872  15.187  14.402  0.0160  0.0988 -0.0756
11980W        W29504  13.355  10.234  14.690  0.0352 -0.1519 -0.1989
11981W        W29505  15.334   5.295  17.375 -0.1174 -0.1511  0.1169
11982W        W29506  10.024   0.110  14.491 -0.1778 -0.2264  0.0035
11983W        W29507  10.566  15.486   2.180 -0.0622  0.0750  0.0045
11984W        W29508   6.518  10.547  15.097 -0.3055  0.2702 -0.1171
11985W        W29509   7.816  15.026   5.600 -0.0945 -0.2834  0.1978
11986W        W29510   5.774   2.425  13.317  0.0153  0.1609 -0.3359
11987W        W29511  14.647  10.747   0.769  0.0461 -0.2519  0.2803
11988W        W29512   4.924   0.168   2.654 -0.1174  0.2575  0.2097
11989W        W29513   9.763  15.190  12.749  0.0628 -0.1664 -0.4042
11990W        W29514  16.982   1.800   0.080  0.1196 -0.1023  0.1442
11991W        W29515   3.729  10.168   2.802  0.0255 -0.1201 -0.0756
11992W        W29516   4.801   0.800  15.244 -0.3370  0.3433 -0.1855
11993W        W29517   6.203  12.772  14.194 -0.1882 -0.3946 -0.0532
11994W        W29518   7.255   0.641   2.903  0.0314 -0.1377 -0.6075
11995W        W29519   4.581  14.155   5.194  0.1615 -0.0727 -0.0027
11996W        W29520  13.917  11.966  14.138  0.1287  0.1438 -0.0748
11997W        W29521   1.370  13.119   0.436 -0.2315 -0.0605 -0.0378
11998W        W29522   1.612   5.789  16.975  0.0196 -0.3041 -0.0703
11999W        W29523   3.198  11.905   1.367  0.0590  0.4932  0.0553
12000W        W29524  11.491  11.437   2.635  0.1587 -0.2252 -0.1086
12001W        W29525  15.222   6.556  15.399  0.2589 -0.1170  0.2849
12002W        W29526   1.790   3.068   5.100 -0.2090 -0.1222 -0.0401
12003W        W29527  10.824   9.354   3.165  0.1465 -0.3982  0.5018
12004W        W29528   4.305   5.522   2.368 -0.1990  0.0311  0.3880
12005W        W29529   8.675   8.544  17.347 -0.0242  0.0075  0.0394
12006W        W29530  16.574   3.299   2.961 -0.1317 -0.0063 -0.1305
12007W        W29531   1.425   4.067   1.250  0.0558  0.0639 -0.0157
12008W        W29532  16.975  15.809   0.617  0.1444  0.1972  0.0939
12009W        W29533   5.106  10.810  15.213  0.0032  0.2436 -0.0818
12010W        W29534   8.611   2.523   2.408  0.1378  0.0922 -0.0860
12011W        W29535   0.189  16.742  12.983 -0.2252  0.4517 -0.0075
12012W        W29536  11.526  11.184  16.394 -0.0941 -0.1385 -0.1550
12013W        W29537  14.815   0.426  14.778 -0.2618  0.0187  0.0723
12014W        W29538   2.825   5.897   3.943 -0.1342  0.0886  0.0053
12015W        W29539  10.328   1.252   5.998  0.3236  0.0178  0.1362
12016W        W29540  11.741   7.215  14.692 -0.0519 -0.0144 -0.0865
12017W        W29541   6.282  16.071  13.666 -0.1800  0.1294 -0.0783
12018W        W29542  16.103  16.819   1.023  0.0191 -0.0539  0.3038
12019W        W29543   5.812   4.622   2.913  0.1068 -0.0413  0.0788
12020W        W29544  13.030   7.548   5.165  0.0921 -0.3565  0.1007
12021W        W29545   9.086   8.879  13.979  0.1014  0.2777  0.1306
12022W        W29546  13.914  13.732  16.845 -0.1086  0.1497  0.1562
12023W        W29547   8.594  14.774  16.679 -0.2766  0.0852  0.1308
12024W        W29548   6.772   1.423  14.954 -0.2169 -0.0170  0.1342
12025W        W29549  10.361   9.203   5.070  0.1896 -0.4260  0.3553
12026W        W29550  14.892   9.717  16.991 -0.0630 -0.2017 -0.2048
12027W        W29551  14.468   7.787   3.033 -0.0958 -0.0528 -0.0428
12028W        W29552  10.187   4.041  14.199  0.2781 -0.0079 -0.0376
12029W        W29553  12.209   4.719   4.364 -0.3018 -0.2459 -0.0123
12030W        W29554   0.094   1.605  16.821 -0.1684 -0.1576  0.0961
12031W        W29555   4.869  11.241   0.632 -0.0824  0.2355  0.0367
12032W        W29556  15.188   9.017  16.614  0.2651  0.1264 -0.1511
12033W        W29557  12.765   7.300  16.052 -0.0574 -0.0745  0.1295
12034W        W29558   0.438   5.928  12.881  0.1461  0.1390 -0.2093
12035W        W29559  12.098   8.404   1.945  0.0437  0.0627 -0.2496
12036W        W29560   3.827  13.447   1.620 -0.3094 -0.0443  0.0277
12037W        W29561   4.946  11.600   5.249  0.2239 -0.2304 -0.0322
12038W        W29562  12.955  14.544  16.635  0.1331 -0.0575 -0.0183
12039W        W29563  12.461   7.077   1.014  0.1726  0.0559 -0.0753
12040W        W29564   0.862   6.887  15.800  0.0418 -0.1316  0.0836
12041W        W29565  15.895   2.921  16.157 -0.0962  0.0066  0.1727
12042W        W29566  13.483   0.507   2.735 -0.0735 -0.1833  0.1778
12043W        W29567  15.218   5.375  13.660 -0.0824 -0.1889  0.2991
12044W        W29568   8.101   6.210  12.215 -0.0992 -0.1280 -0.2032
12045W        W29569   1.938   3.898  17.097  0.2007  0.2228  0.4172
12046W        W29570   4.057  16.163  12.432  0.1372  0.3064 -0.0839
12047W        W29571   6.933   7.817   3.632  0.0993 -0.0211 -0.0008
12048W        W29572   0.148   6.442   1.749 -0.0838  0.1504 -0.1433
12049W        W29573   6.194   7.481   1.185 -0.1911 -0.0710 -0.5214
12050W        W29574  12.288   7.385   3.988 -0.2819  0.4465  0.2468
12051W        W29575  10.805  11.273   3.319 -0.0311  0.1548  0.0688
12052W        W29576   7.267   4.254   3.729  0.3222  0.1403  0.1006
12053W        W29577   3.106   0.347   0.999 -0.1612  0.1614 -0.0262
12054W        W29578   9.315  12.358  14.114 -0.3121  0.0527  0.2276
12055W        W29579  15.280   5.876  13.825  0.3020 -0.1960 -0.1802
12056W        W29580   7.969   0.657  13.568  0.0772  0.0187  0.0784
12057W        W29581   2.721  13.248   2.140 -0.1187  0.0392 -0.2161
12058W        W29582   9.771  11.661  15.586  0.2941  0.2107 -0.3323
12059W        W29583   5.411  13.506   2.144  0.0006 -0.0839 -0.2398
12060W        W29584  15.063   3.408  14.733  0.1994  0.0617  0.0840
12061W        W29585   4.568   0.663  11.978 -0.0351 -0.1645  0.0924
12062W        W29586   1.563  16.666  14.969 -0.1877  0.1036  0.2464
12063W        W29587   7.331   3.221  15.511 -0.2707 -0.0044 -0.1200
12064W        W29588   9.029   6.981   1.067 -0.0578  0.0500  0.0856
12065W        W29589  12.254   2.500   3.427 -0.0011  0.2528 -0.2722
12066W        W29590   7.535  11.630  15.542  0.1134  0.2464 -0.0732
12067W        W29591  13.697  15.130  12.747 -0.0085 -0.2950  0.1885
12068W        W29592   4.530   4.702   0.401 -0.0671 -0.2286  0.2345
12069W        W29593   9.735  15.709  16.810  0.3309  0.3931 -0.0259
12070W        W29594   9.327  17.055  15.909 -0.0276 -0.1437 -0.3824
12071W        W29595   8.816  14.877  14.769  0.0381  0.2069  0.0658
12072W        W29596   5.417  15.247   0.700  0.0788  0.2439  0.2476
12073W        W29597  16.147  11.195   5.254 -0.1264  0.0133 -0.2928
12074W        W29598   9.344   0.570   3.131  0.1409 -0.0931 -0.2853
12075W        W29599  13.587   8.648   1.738  0.2041 -0.1281  0.0485
12076W        W29600  14.602   5.255   5.665 -0.0285 -0.3172 -0.0006
12077W        W29601   5.178  12.544  14.122 -0.0983  0.1546 -0.0566
12078W        W29602   5.514   9.812  11.971  0.1591 -0.1801 -0.0064
12079W        W29603   4.460   1.731  15.402 -0.0417 -0.0787  0.0217
12080W        W29604   6.120   5.202   0.022  0.0715 -0.4428  0.0870
12081W        W29605  15.106   7.748   1.878 -0.0331  0.0239 -0.1097
12082W        W29606   3.066  14.973  12.899 -0.1261 -0.0925  0.1058
12083W        W29607  11.421   1.503  17.242  0.0008  0.1098  0.1495
12084W        W29608  10.826   3.176  12.815  0.0189 -0.0390 -0.0571
12085W        W29609   8.232   7.063  16.495  0.0569 -0.1663 -0.1643
12086W        W29610  15.729  11.418   4.026 -0.1015 -0.1185  0.1582
12087W        W29611   7.327   4.199  16.354  0.0412 -0.0655 -0.0906
12088W        W29612   9.232  12.747  13.713  0.0605  0.0760 -0.1519
12089W        W29613   0.420  11.008  15.432  0.1370  0.1534  0.1230
12090W        W29614   0.846   9.112  15.389 -0.1069  0.1422  0.2630
12091W        W29615  13.906   1.241   4.816 -0.2872 -0.0868 -0.2239
12092W        W29616  13.771  16.739   3.717  0.2630  0.0082 -0.3423
12093W        W29617   6.908   8.020   5.557 -0.0104  0.0937  0.1281
12094W        W29618  13.840   7.215  16.715 -0.5050 -0.0835  0.3581
12095W        W29619   8.791  11.420  12.592  0.1129  0.0007  0.1787
12096W        W29620  17.130   4.600  16.716  0.0600 -0.0522  0.1387
12097W        W29621   2.080   9.739   3.722 -0.0191 -0.0977  0.2951
12098W        W29622  16.568   5.675  12.337  0.1392  0.3067  0.1534
12099W        W29623  15.403   0.470   1.894  0.0982  0.1191 -0.1757
12100W        W29624  11.353   7.471  16.111 -0.0338  0.1103  0.2693
12101W        W29625   0.347  10.910  12.889  0.2116 -0.3663 -0.0269
12102W        W29626   3.935   3.328  14.085  0.0918  0.0224 -0.1186
12103W        W29627  12.132  16.608  15.298  0.0744 -0.0219  0.0976
12104W        W29628   8.253  16.722  13.913 -0.0302  0.0965 -0.5432
12105W        W29629   2.180  14.347   1.145 -0.1036  0.1793  0.0555
12106W        W29630  14.688  13.378  16.433 -0.0462 -0.1306 -0.0033
12107W        W29631  11.497   8.969   0.617 -0.1160  0.0422 -0.1212
12108W        W29632   6.941   8.085  17.066  0.2007 -0.1946  0.0606
12109W        W29633  15.357  16.912  12.978  0.1153 -0.2013 -0.2347
12110W        W29634  10.974   2.278  17.344  0.0582  0.0471 -0.4025
12111W        W29635  15.470  13.689   1.510 -0.0123 -0.1357  0.1238
12112W        W29636  15.054  12.994  14.756  0.0463 -0.0582 -0.1378
12113W        W29637   4.402  16.862   0.986 -0.0582 -0.1574  0.2816
12114W        W29638  11.552   9.816   1.005 -0.0134  0.2911 -0.0743
12115W        W29639  15.102  14.316   1.603  0.1650  0.0226  0.2418
12116W        W29640  15.573  15.069  13.988  0.2149 -0.1908 -0.0999
12117W        W29641   1.418  11.670  16.361  0.0624 -0.0473  0.2106
12118W        W29642   2.252  12.736  14.189 -0.1801  0.2137  0.0202
12119W        W29643  14.419  10.240   2.192 -0.0401 -0.1325 -0.0769
12120W        W29644   1.238   3.875   4.796  0.1760  0.4127 -0.2077
12121W        W29645   3.814   5.005   2.804  0.3035  0.5201 -0.0347
12122W        W29646  11.969   9.963  14.916 -0.0816  0.0771  0.3803
12123W        W29647   1.869   3.671  14.484  0.1970 -0.1161  0.0963
12124W        W29648   8.571   8.189   1.103  0.1201 -0.1591  0.0571
12125W        W29649  10.172   3.414   0.009 -0.0864 -0.1271  0.0671
12126W        W29650   9.571   9.213   0.355 -0.1102 -0.0254 -0.0367
12127W        W29651  13.189   0.551  11.498  0.0598  0.2430  0.2626
12128W        W29652  14.309  14.446   1.040 -0.1555  0.0157  0.2339
12129W        W29653   3.883   4.686  12.784 -0.0219  0.4196  0.1405
12130W        W29654   6.697  14.362  17.398 -0.0724 -0.3317 -0.0322
12131W        W29655  14.829   5.545  12.565  0.1010 -0.0879  0.0270
12132W        W29656  11.362  15.205  14.466  0.2158 -0.1396 -0.2064
12133W        W29657  11.873  10.770   3.433 -0.0916  0.0489  0.0209
12134W        W29658   2.040   0.663  14.966  0.1765 -0.2425  0.0271
12135W        W29659   7.811   3.339   4.864 -0.1075  0.1299  0.4284
12136W        W29660  13.573   6.600   2.738 -0.1612 -0.0069  0.2766
12137W        W29661  16.704  11.729   3.832  0.1404  0.1500 -0.0507
12138W        W29662   8.840   5.969   1.477 -0.1167  0.1061 -0.1102
12139W        W29663   7.590   6.562   3.604  0.2509  0.2354 -0.0515
12140W        W29664  10.409   5.782  16.137 -0.3055 -0.0440  0.3461
12141W        W29665   6.431   9.099  14.810 -0.0899  0.1057  0.3403
12142W        W29666   4.894  10.512   1.311 -0.0333 -0.1336 -0.0769
12143W        W29667  10.530   5.310   1.669  0.0271 -0.2232  0.1735
12144W        W29668  11.199  12.995   5.135 -0.1751 -0.1084  0.0653
12145W        W29669  14.308   1.795   6.077  0.3063 -0.0148  0.1612
12146W        W29670  13.450  13.574   4.240  0.1328 -0.0175 -0.1764
12147W        W29671   5.742   9.665  15.885 -0.0988 -0.3475 -0.0702
12148W        W29672   8.395   8.425   0.707 -0.0229  0.2200  0.3777
12149W        W29673   7.509   4.307  14.369  0.2796 -0.0774 -0.1358
12150W        W29674   6.017  13.420   4.067  0.1808 -0.0588 -0.1098
12151W        W29675   5.459  15.603  12.713 -0.1806  0.0046  0.0853
12152W        W29676   9.362   1.856  13.127  0.0790 -0.0728  0.1545
12153W        W29677  14.738   3.167  12.589 -0.0475  0.0438 -0.5141
12154W        W29678  11.855   1.480   2.413  0.0165  0.2641  0.0319
12155W        W29679   3.623   9.852   4.196  0.1863  0.3187 -0.1942
12156W        W29680  12.981   1.029  12.886  0.2916 -0.3663  0.1366
12157W        W29681  11.000  14.294   0.535 -0.0217 -0.1571 -0.1789
12158W        W29682   7.800  10.986   4.350  0.2462 -0.0876 -0.0371
12159W        W29683   5.049   8.138  16.629  0.2332  0.1650 -0.1166
12160W        W29684   6.037   6.157  15.533 -0.1786  0.1009  0.1180
12161W        W29685   3.085  15.965  16.261  0.0545  0.0037  0.1733
12162W        W29686   2.049  13.508  12.896  0.1841 -0.2621 -0.0913
12163W        W29687   1.596   2.136  12.272 -0.0498 -0.1605  0.1691
12164W        W29688  15.777   0.650  13.202 -0.1398 -0.1918 -0.3300
12165W        W29689   6.383   5.651  14.683 -0.0522 -0.1830  0.1491
12166W        W29690  15.263   9.791   4.363  0.2293 -0.1863 -0.1791
12167W        W29691  12.867  12.307  15.782 -0.0568  0.0967  0.0128
12168W        W29692   4.109   2.439  17.286  0.0629 -0.2874 -0.0296
12169W        W29693  10.117   3.567   6.688  0.1551 -0.0724 -0.2051
12170W        W29694  15.936  13.692   2.435  0.1525  0.1335  0.0088
12171W        W29695   4.450   8.134   1.484  0.0854 -0.2062 -0.2028
12172W        W29696  12.646   1.428  16.136  0.1628 -0.0149 -0.0513
12173W        W29697   3.595   0.037  15.740 -0.2722  0.0099  0.3437
12174W        W29698  13.507  14.732  14.740  0.0718  0.2023  0.1036
12175W        W29699  12.371  12.490   5.159  0.3909  0.1178 -0.0578
12176W        W29700  15.715   3.222   0.121 -0.1086  0.0185 -0.2282
12177W        W29701  13.396   8.239  13.621  0.2136 -0.1753 -0.0727
12178W        W29702   9.045   0.327   0.244 -0.3370 -0.1109  0.0997
12179W        W29703  15.962   0.274  16.204  0.1550  0.0013 -0.0595
12180W        W29704  11.909  13.191  14.994 -0.0180 -0.0783 -0.2280
12181W        W29705  10.661   1.955  13.117  0.0101 -0.2141 -0.1769
12182W        W29706   0.981   2.072  17.409  0.1832 -0.3291 -0.0793
12183W        W29707  10.870  14.474   4.410 -0.0695  0.0427  0.1718
12184W        W29708   2.126  16.572  17.342 -0.1362 -0.2263  0.3097
12185W        W29709   7.139   8.467   5.373 -0.3569  0.1625 -0.1067
12186W        W29710   3.416  16.942  14.894 -0.0563  0.0531  0.1528
12187W        W29711   7.387   8.764   3.713 -0.1161  0.0729  0.1713
12188W        W29712   8.717   4.181  13.830  0.0041 -0.2556 -0.0433
12189W        W29713  10.945   2.398   1.967 -0.0987 -0.0459 -0.0457
12190W        W29714   7.222   1.208  13.762  0.0429 -0.0083  0.1900
12191W        W29715   1.061  15.326  17.193 -0.0370 -0.1620  0.1345
12192W        W29716   3.380  10.088  12.374 -0.1807  0.3746  0.0387
12193W        W29717   6.297   9.545  14.548  0.1047  0.0535 -0.1681
12194W        W29718   4.086   4.757  13.819 -0.2671 -0.2693 -0.1330
12195W        W29719  11.619  13.961   3.224  0.0080 -0.0528 -0.1569
12196W        W29720   5.355  10.210  13.633 -0.0626 -0.2858 -0.1730
12197W        W29721   1.489   2.268  14.488  0.0908  0.0577 -0.0594
12198W        W29722   7.706  10.662  14.488 -0.3848  0.0269 -0.2183
12199W        W29723   9.998   5.648   0.968 -0.1720 -0.3891 -0.5005
12200W        W29724   1.102  11.723   3.623 -0.0009  0.2696 -0.1404
12201W        W29725   8.824  15.466   0.335 -0.3836  0.3584  0.0821
12202W        W29726  15.005  15.936  17.423 -0.1923 -0.1036 -0.1750
12203W        W29727  10.970  10.061   4.372 -0.1104  0.0640 -0.2726
12204W        W29728  15.905  12.331   1.585 -0.2242 -0.0657  0.0295
12205W        W29729   5.997   0.836   0.934 -0.2624 -0.2030  0.2239
12206W        W29730  16.064  12.041   5.232  0.1463  0.1829 -0.0902
12207W        W29731   7.090   7.884   0.433 -0.1489  0.2198  0.1093
12208W        W29732  13.037   2.518   3.206  0.4077 -0.1582 -0.0233
12209W        W29733  15.173   5.787  12.283  0.0816  0.2599  0.0973
12210W        W29734   4.853   1.746  14.021 -0.0156 -0.0746 -0.1361
12211W        W29735  15.143   1.001  17.608 -0.0784  0.1378  0.1233
12212W        W29736   4.259   7.477  11.808 -0.2873 -0.0347 -0.1926
12213W        W29737  13.038  11.753  17.650  0.1487  0.2311  0.2117
12214W        W29738   1.812  13.451   0.422  0.0201 -0.2129  0.2883
12215W        W29739  16.343   8.278  16.040 -0.4333 -0.2136 -0.0737
12216W        W29740  15.880   8.085   4.667  0.0158 -0.0224 -0.1237
12217W        W29741   4.584   1.023   3.717  0.3377  0.0907 -0.1415
12218W        W29742   5.629   2.130  16.761 -0.2358  0.3780  0.1617
12219W        W29743  14.278  15.012  15.340 -0.2395 -0.1143  0.0583
12220W        W29744  10.013   0.828  17.167 -0.1795 -0.3867 -0.0128
12221W        W29745  13.331  14.713   2.833 -0.0149  0.3954 -0.1394
12222W        W29746  12.889  14.254   1.729 -0.3902 -0.0458  0.0106
12223W        W29747  11.247   8.908  13.995 -0.0189  0.2006  0.3181
12224W        W29748   1.458  11.933   2.078  0.1156  0.1050  0.2531
12225W        W29749   3.896  17.004  12.816 -0.1159 -0.0437  0.1547
12226W        W29750  11.388   2.036   5.717 -0.0010  0.3380  0.2015
12227W        W29751   5.661  12.589   4.491  0.1989  0.4653 -0.1860
12228W        W29752   9.804  13.665   5.488  0.1607 -0.2508  0.0939
12229W        W29753   6.024  16.510   0.977 -0.2167 -0.0752 -0.0685
12230W        W29754  13.767   0.465  17.363  0.1933 -0.2815  0.1083
12231W        W29755   1.458   8.072  14.857  0.2000 -0.2492  0.1457
12232W        W29756   0.100   0.698  17.491  0.2568 -0.0807  0.0161
12233W        W29757   8.194   1.782   2.786  0.1381  0.0900 -0.2934
12234W        W29758   9.876   3.061  17.527 -0.0426 -0.0120  0.1319
12235W        W29759  16.773  13.255   1.532 -0.2615  0.0023 -0.1424
12236W        W29760  13.877  12.999   3.866  0.1412  0.2774 -0.2415
12237W        W29761  17.064   4.648  12.199  0.0156  0.2868 -0.0782
12238W        W29762  13.613   2.426  17.125 -0.0195  0.1181  0.1876
12239W        W29763  14.646  13.552   0.357 -0.1885  0.3245  0.0427
12240W        W29764   1.044  17.116   2.279 -0.0235 -0.0497 -0.1973
12241W        W29765  10.491   1.726   5.880 -0.0965 -0.0130 -0.1798
12242W        W29766  13.626  16.115  16.950  0.1706 -0.2742 -0.2715
12243W        W29767   0.688   7.206   0.605 -0.0256 -0.1087  0.3840
12244W        W29768   1.446  15.094   2.502  0.2051  0.2254 -0.0176
12245W        W29769   9.890   3.348  11.360 -0.3829  0.1751 -0.0464
12246W        W29770   3.876   9.946  12.429  0.1685 -0.3743  0.1726
12247W        W29771   8.827  16.715  13.182 -0.0724 -0.2400 -0.1143
12248W        W29772   3.424  14.673   6.605  0.0423 -0.0843 -0.2281
12249W        W29773   8.104   4.153  13.205  0.0844  0.1585  0.0539
12250W        W29774   1.853   2.130  13.026  0.1480  0.1548  0.1784
12251W        W29775   8.914   5.979   2.027  0.0395  0.0292  0.0127
12252W        W29776  11.801  14.229  13.386 -0.1543  0.3914  0.3382
12253W        W29777   9.457  16.277  14.127 -0.0061  0.1156 -0.3310
12254W        W29778  12.530   9.867  15.380 -0.0580  0.0686 -0.3642
12255W        W29779   1.645   3.155   1.575 -0.0398 -0.0285 -0.1442
12256W        W29780   1.310   9.831   3.327 -0.0724 -0.0014  0.0981
12257W        W29781   2.352  10.739  13.798 -0.1410 -0.1351 -0.0085
12258W        W29782  10.584  16.453  16.728  0.1236 -0.1375 -0.0764
12259W        W29783  16.440  13.936   0.138 -0.0732  0.0535 -0.3358
12260W        W29784   8.512   3.930  11.812  0.0039 -0.0857 -0.3364
12261W        W29785   7.563  13.291  17.537 -0.1188 -0.0594 -0.0038
12262W        W29786  12.563  10.205  13.089  0.2573 -0.1115 -0.0255
12263W        W29787   1.197  12.562  12.060 -0.0671  0.0451  0.2890
12264W        W29788  11.559   7.276   0.003  0.0711 -0.1437  0.1434
12265W        W29789  12.564   2.038   5.174  0.0369 -0.2321 -0.0386
12266W        W29790   7.659   6.757   2.702 -0.0573 -0.1567 -0.1258
12267W        W29791  10.164   2.841   1.347  0.2866 -0.0750 -0.3635
12268W        W29792   8.868   6.393  15.841  0.1923  0.0743 -0.0184
12269W        W29793  13.439  16.407  14.717  0.0221 -0.1135 -0.0593
12270W        W29794  12.382   9.538  15.859  0.1039  0.0177 -0.0817
12271W        W29795   4.088   8.463   3.471 -0.1479 -0.0147 -0.1529
12272W        W29796   4.896  10.123  13.689 -0.1511 -0.0774 -0.0264
12273W        W29797  11.213   9.795   2.435  0.2324 -0.2920  0.1104
12274W        W29798   8.687  11.340  17.178  0.3709  0.1933  0.0248
12275W        W29799  11.353   4.503  16.050  0.0398  0.0119 -0.0853
12276W        W29800   4.459   0.696  13.805 -0.3798  0.0095 -0.0787
12277W        W29801  11.326   4.252   3.497  0.0123  0.0667 -0.3493
12278W        W29802   8.650  12.439  14.627 -0.0942  0.0284  0.1259
12279W        W29803   8.465  16.982  12.911 -0.0386 -0.1845  0.1575
12280W        W29804  15.027  13.866   1.321  0.1481  0.0171 -0.1464
12281W        W29805   5.306   5.580  15.963  0.3350  0.1818  0.1878
12282W        W29806   8.443   0.431  17.233  0.0951  0.1927 -0.1060
12283W        W29807   9.699   9.789  16.764  0.1342  0.1699 -0.2095
12284W        W29808   5.504  15.901  15.543  0.1004  0.1145  0.0217
12285W        W29809   3.177  13.740   5.501  0.1690 -0.2668  0.2018
12286W        W29810   9.019  14.384  17.402 -0.0673  0.4545 -0.1639
12287W        W29811   8.501   1.086  14.317 -0.1237 -0.0926 -0.1780
12288W        W29812   0.265   6.358   0.836 -0.1208  0.1171 -0.1098
12289W        W29813   1.818  13.903  15.901  0.0709  0.2784  0.0362
12290W        W29814   0.285   7.457   0.691  0.1401 -0.2890  0.1106
12291W        W29815   8.561  13.352   5.575  0.2840  0.1882  0.0341
12292W        W29816   7.705   3.056  17.277  0.0483  0.0191 -0.1704
12293W        W29817   7.163   6.699  16.673  0.1241  0.2323  0.1498
12294W        W29818   5.286   9.480  16.013  0.0472  0.4729 -0.2523
12295W        W29819   9.677   7.692  17.096  0.0923 -0.1332 -0.0446
12296W        W29820   3.629   8.283   0.333 -0.1894 -0.2672 -0.0776
12297W        W29821   7.193   2.580  14.496  0.2037  0.1602 -0.0578
12298W        W29822   9.891   5.865  12.757  0.1738 -0.0102 -0.2378
12299W        W29823   9.565  14.526  13.380 -0.3060  0.1903  0.1139
12300W        W29824  12.152  10.452   5.567 -0.0412 -0.2090  0.0741
12301W        W29825   1.454  11.961  14.623  0.1635 -0.1341 -0.0921
12302W        W29826  16.100  15.740  12.330 -0.1479 -0.2576 -0.0332
12303W        W29827   2.727   9.279  16.530  0.4168  0.1276 -0.0114
12304W        W29828  12.922   9.674  15.171  0.0289 -0.2645 -0.5314
12305W        W29829   5.567  11.761   3.728 -0.1458  0.1141  0.1077
12306W        W29830   5.249   7.918   3.172  0.1692  0.1100  0.0397
12307W        W29831   6.340  11.528   0.689  0.0155 -0.2646  0.0329
12308W        W29832   9.727   6.501  13.400 -0.2089 -0.1555  0.1746
12309W        W29833   0.815  15.015   3.692  0.3095  0.0151 -0.1283
12310W        W29834   4.435  10.403  13.496 -0.5402 -0.0752 -0.1948
12311W        W29835  10.554   3.668   5.280  0.6608  0.3709 -0.0066
12312W        W29836  12.601  11.190   3.005 -0.1086 -0.0132  0.0062
12313W        W29837  12.333   8.455   3.723 -0.0236 -0.0723 -0.3017
12314W        W29838   5.640   1.380   2.505 -0.1686 -0.1918 -0.4266
12315W        W29839  15.217   7.143  11.606 -0.4589  0.4132  0.1295
12316W        W29840   7.681  16.123  12.810 -0.1255  0.2476 -0.0265
12317W        W29841  16.982   4.803  15.296  0.2217  0.2688  0.1570
12318W        W29842   9.738   1.323   4.740  0.1546 -0.0381 -0.4250
12319W        W29843  16.799   6.442   1.046  0.0911  0.0510 -0.1098
12320W        W29844  11.042   3.385  15.310  0.1462  0.4017 -0.0939
12321W        W29845   4.371   6.449   4.541  0.1072 -0.1972  0.0422
12322W        W29846  10.435   5.733   4.218 -0.1704 -0.1139  0.3259
12323W        W29847   9.273   5.286   3.484 -0.3399 -0.0394  0.4121
12324W        W29848  13.190   4.359   2.277 -0.0917  0.0004  0.0888
12325W        W29849   8.070  16.418  12.682  0.0503  0.2862 -0.2338
12326W        W29850   8.190  16.155  15.028 -0.0678  0.0129 -0.1186
12327W        W29851   6.087  14.530  14.523 -0.1060 -0.0439 -0.2339
12328W        W29852   9.985   1.209  13.619 -0.1494  0.2034 -0.0630
12329W        W29853  13.063   9.112  13.889  0.0404  0.0524 -0.1273
12330W        W29854  11.541   4.470   1.182 -0.1048 -0.0733  0.0483
12331W        W29855  10.893  11.396  14.010 -0.0341  0.0770  0.4194
12332W        W29856  13.466   8.029  14.938 -0.2105  0.3065 -0.0836
12333W        W29857  10.418   1.668   1.656  0.0214 -0.0986 -0.0677
12334W        W29858   1.803   2.580   3.127  0.0338  0.0389  0.2618
12335W        W29859  11.370   9.077  17.185  0.0616  0.0757 -0.0111
12336W        W29860   0.129   1.644  13.080  0.1504  0.0326 -0.2699
12337W        W29861  17.194  12.634   4.403 -0.2222 -0.0210  0.4161
12338W        W29862  16.692  10.175  17.366 -0.0950 -0.1304  0.0817
12339W        W29863   9.025  11.723  17.220 -0.1030 -0.0722 -0.0281
12340W        W29864  11.975  14.443  15.100 -0.2745  0.2102  0.0273
12341W        W29865   8.372   6.332  14.111  0.1017  0.0361 -0.1705
12342W        W29866  17.131   0.303  13.302  0.0294  0.2399  0.0376
12343W        W29867  11.526   9.947   1.460 -0.0045 -0.2429  0.3460
12344W        W29868  14.442   8.015  16.532 -0.0910 -0.0664 -0.2173
12345W        W29869   3.897   1.060   5.039  0.1504 -0.2590 -0.2634
12346W        W29870   5.067  10.174  15.391 -0.2770 -0.0068  0.1416
12347W        W29871   4.418   3.496   1.470 -0.3123  0.0283 -0.1689
12348W        W29872  15.800  12.685  16.947  0.0126  0.1668 -0.0641
12349W        W29873   0.300   4.609  13.990 -0.0670 -0.1752 -0.0063
12350W        W29874  15.406   6.653  16.988 -0.0507  0.0900  0.3052
12351W        W29875   0.885  14.562  13.254 -0.2923  0.2787  0.0463
12352W        W29876  13.044   4.736  14.155  0.1971  0.0604 -0.2114
12353W        W29877   2.643  12.784   5.085  0.0913 -0.1610  0.1187
12354W        W29878  13.031   6.544  12.348  0.1718 -0.0447 -0.3437
12355W        W29879   0.483  11.778  12.290 -0.2474  0.3652 -0.1766
12356W        W29880   2.344  14.420  15.107 -0.1005  0.1285  0.2612
12357W        W29881  15.238  10.051  13.667  0.1420 -0.1745  0.0308
12358W        W29882   5.145  11.324   2.290 -0.1754 -0.1212  0.0511
12359W        W29883  16.009   8.759  14.820  0.0927 -0.2459 -0.0868
12360W        W29884  14.029  13.847   4.599 -0.1063  0.0173  0.0633
12361W        W29885  12.845  14.927   0.037  0.2078 -0.0623 -0.5388
12362W        W29886   0.859   1.751   5.129 -0.0856  0.1378  0.2229
12363W        W29887   8.190   8.322   3.860 -0.1282  0.0069 -0.1779
12364W        W29888   8.942   9.985  17.327  0.3225 -0.1260  0.1092
12365W        W29889   7.878   6.114  13.914 -0.1340 -0.1913  0.0580
12366W        W29890   2.717  11.181  16.300  0.1138 -0.1385  0.4069
12367W        W29891   8.310  14.353  16.631  0.2455 -0.0925 -0.3141
12368W        W29892  10.034  13.783   4.998  0.2135 -0.0178  0.2713
12369W        W29893  14.117  17.125   0.796  0.0865 -0.1465 -0.2135
12370W        W29894   4.653  16.436  12.788 -0.1951  0.4449 -0.0930
12371W        W29895   2.626  13.927   3.944  0.2286 -0.0880 -0.2818
12372W        W29896  15.496  14.351  12.415 -0.1143 -0.0586 -0.2186
12373W        W29897   3.203   0.952   5.553 -0.1666 -0.1001  0.0116
12374W        W29898   1.446  12.198  14.027  0.0552  0.0974  0.1129
12375W        W29899  14.354  12.355  14.777  0.2798  0.2880  0.1267
12376W        W29900   0.468  12.227  13.558 -0.2106 -0.3793  0.3440
12377W        W29901   4.807   1.298   1.808  0.1921 -0.1425  0.0036
12378W        W29902   2.584   7.149  16.730  0.2536 -0.2206 -0.0958
12379W        W29903   3.880   6.622   4.893  0.0424 -0.0172 -0.4036
12380W        W29904  10.540  15.254  13.282  0.2933 -0.2045  0.0474
12381W        W29905  12.236  11.600   3.882 -0.0177  0.1020 -0.2234
12382W        W29906  17.199  11.612  16.726 -0.1368 -0.0303 -0.0139
12383W        W29907  12.634   1.994   4.226 -0.1136 -0.3221 -0.0826
12384W        W29908   5.531   1.542  12.956 -0.1846 -0.2764  0.1598
12385W        W29909   6.608   5.719  17.139  0.0228 -0.1466 -0.1852
12386W        W29910   6.436  16.652   5.732  0.2415  0.1803 -0.0161
12387W        W29911  17.139   6.487  13.527  0.1195  0.0661 -0.0274
12388W        W29912  13.700   6.715   0.516  0.0789  0.0679  0.1205
12389W        W29913   6.079   4.400   5.290  0.1258  0.0961 -0.0422
12390W        W29914   4.908   3.155   3.665  0.1192 -0.1809  0.2564
12391W        W29915   3.856   2.660  13.666 -0.3711 -0.0178 -0.0958
12392W        W29916   2.601  10.392  15.089  0.2869 -0.1457 -0.2876
12393W        W29917  16.993   5.154  12.562 -0.4980  0.2001 -0.1356
12394W        W29918   0.730  17.045  13.531 -0.3730  0.1878 -0.2389
12395W        W29919   4.811  11.843   3.324 -0.1966  0.2757  0.3310
12396W        W29920  13.256  14.985   1.285 -0.2255 -0.1537 -0.0715
12397W        W29921  12.906  16.457   4.043  0.0170  0.0280 -0.2089
12398W        W29922   0.223   6.944  13.260  0.1072  0.1450  0.2095
12399W        W29923  16.006  11.911   1.888  0.1919 -0.0415  0.2835
12400W        W29924   7.266  12.343   6.205 -0.0441 -0.0100 -0.0581
12401W        W29925   6.189   3.074   3.038  0.0762  0.1657 -0.0868
12402W        W29926   8.871   9.394   2.122  0.0124 -0.0266 -0.3348
12403W        W29927  13.953   2.750  13.042  0.0943  0.1907 -0.0483
12404W        W29928   5.213   0.346   0.957  0.2617 -0.0708  0.1600
12405W        W29929  14.616   2.682  16.277 -0.2783  0.0090 -0.1922
12406W        W29930   4.969   5.137  12.429 -0.0471  0.1922  0.1287
12407W        W29931   3.464   2.315   5.163 -0.0756 -0.0227 -0.0588
12408W        W29932   3.539  12.945   1.380 -0.3179  0.0066  0.0877
12409W        W29933   7.789  14.197   2.338 -0.0626  0.1254  0.2067
12410W        W29934  14.013   6.295  14.934  0.1575 -0.2127 -0.1382
12411W        W29935  13.243  11.766   2.813  0.0119 -0.7028  0.2865
12412W        W29936  12.395  15.072   0.121  0.0430 -0.1355  0.2771
12413W        W29937  17.103   1.806   3.312  0.2281 -0.3270  0.0453
12414W        W29938  15.457   6.722  13.965 -0.0108 -0.1252  0.2125
12415W        W29939   4.147  11.602   2.461  0.1084  0.4206 -0.1006
12416W        W29940   2.057  17.232  13.489 -0.0544 -0.0626  0.2872
12417W        W29941   8.030  15.828  17.445  0.3287 -0.1806 -0.4350
12418W        W29942   6.473   0.735  13.246  0.2459 -0.0486  0.1818
12419W        W29943   7.732   0.982  12.323  0.2187  0.2372  0.4834
12420W        W29944  15.022   3.734  13.252 -0.0511 -0.0946  0.1008
12421W        W29945   1.718  16.981  13.728 -0.2262 -0.1108 -0.1576
12422W        W29946   4.486   8.759   0.459 -0.0783  0.0238 -0.5576
12423W        W29947   0.186   1.066  14.947  0.1238 -0.2720  0.3071
12424W        W29948  10.291   0.389   2.127  0.0459  0.1760 -0.1756
12425W        W29949  15.204  17.165   4.033  0.0704  0.1504  0.0522
12426W        W29950  13.883   2.426  16.392  0.0159 -0.0768  0.4123
12427W        W29951   6.459   6.315   1.180 -0.0183 -0.0809 -0.1769
12428W        W29952   2.332   5.176  14.515  0.0301 -0.1341  0.0747
12429W        W29953  14.524  13.497  15.360  0.1303  0.1858  0.4134
12430W        W29954   4.002  16.274   4.100 -0.0741 -0.3277  0.1312
12431W        W29955   3.354   3.374  14.900 -0.2136  0.0444  0.3479
12432W        W29956  14.694   8.263   1.129  0.0499  0.5738 -0.0233
12433W        W29957  14.580  13.210  15.843 -0.1346  0.0154 -0.1391
12434W        W29958   7.151  13.382  16.594  0.2922 -0.4470  0.2264
12435W        W29959   7.223   6.465   2.721  0.2291  0.3451  0.2517
12436W        W29960   8.716  10.947   3.320  0.0031 -0.0250 -0.1477
12437W        W29961  10.800   8.413  16.886 -0.2788  0.0119 -0.0993
12438W        W29962  12.708  15.621  14.797  0.1843 -0.0997  0.2266
12439W        W29963  14.880  15.494   0.178 -0.1168 -0.1553  0.1419
12440W        W29964   8.408   6.065  17.607  0.1063 -0.0895  0.2584
12441W        W29965  15.099   3.614   3.700  0.2848 -0.2317  0.0705
12442W        W29966   7.479  14.408  17.534 -0.0101 -0.1387  0.1419
12443W        W29967  14.975   8.027  15.118  0.2468  0.2060 -0.1095
12444W        W29968   7.707   0.858  17.261 -0.1550  0.1851 -0.0596
12445W        W29969  10.646  14.232  16.407 -0.0662 -0.0216 -0.2614
12446W        W29970   9.680   7.535   0.939 -0.0345 -0.2772 -0.0201
12447W        W29971  17.090  16.966  17.216  0.3238 -0.3873  0.0653
12448W        W29972   6.553   3.233   4.678  0.1288  0.1049 -0.0382
12449W        W29973   1.990   3.518  15.624  0.0719  0.0097  0.0852
12450W        W29974   9.620   8.336   3.735 -0.2464  0.1061 -0.0237
12451W        W29975  10.509   7.972  13.604  0.0140  0.0509  0.3278
12452W        W29976   0.123  14.880  16.441  0.1764  0.2175 -0.4404
12453W        W29977   8.086   5.744   5.207 -0.0326  0.0114  0.2138
12454W        W29978   0.480  10.519  15.711 -0.0503 -0.1796 -0.1835
12455W        W29979  16.944  13.026   1.939  0.1079 -0.1839 -0.1135
12456W        W29980   2.552   4.098  13.925 -0.0739  0.0161  0.1642
12457W        W29981  16.225   7.168  16.908  0.0186 -0.2487 -0.2271
12458W        W29982  14.287  13.468  11.661  0.0879 -0.2413 -0.2298
12459W        W29983  12.492   3.650  12.832 -0.2778 -0.0134 -0.3295
12460W        W29984   1.769   1.949   0.289  0.1423 -0.3200  0.1747
12461W        W29985  13.967  16.154   2.822  0.4346 -0.2451  0.3039
12462W        W29986  15.887   2.969  17.413  0.0482 -0.0743  0.0688
12463W        W29987   7.194   2.912  14.877  0.0346  0.0175  0.0929
12464W        W29988   4.590   3.188  16.777  0.1795  0.0806  0.2491
12465W        W29989  10.950  11.144   1.223 -0.5241 -0.1698  0.0484
12466W        W29990  13.479   3.196   0.947 -0.0152 -0.2034  0.0105
12467W        W29991   1.196   8.179  15.239 -0.0713  0.2482  0.1555
12468W        W29992   7.284   6.665  17.517  0.2158 -0.0238  0.1022
12469W        W29993  11.369  15.731   4.871  0.3776  0.2335 -0.0294
12470W        W29994   6.842  16.973   4.197 -0.2608  0.1632 -0.0171
12471W        W29995   2.724   4.221   4.586  0.3205  0.0352  0.6071
12472W        W29996  15.467   3.110   0.739  0.1763 -0.0467  0.0130
12473W        W29997  15.962   8.422   3.503  0.0787 -0.2816 -0.1126
12474W        W29998   4.222   3.319   5.821 -0.2519 -0.0123 -0.0670
12475W        W29999   9.318  14.005   1.962 -0.2003 -0.2750 -0.0580
12476W        W30000   3.560  15.895   0.873  0.2651  0.0345  0.1211
12477W        W30001   8.652  13.859  15.396  0.0103 -0.2359  0.1364
12478W        W30002  16.809   1.964   4.620 -0.0741 -0.0821 -0.2048
12479W        W30003   7.105  15.100   4.014  0.0385 -0.0227 -0.0738
12480W        W30004   9.043  10.581  12.540  0.2520  0.1604 -0.0865
12481W        W30005  15.755  12.068   4.721 -0.0865  0.2115 -0.4411
12482W        W30006   1.897  10.819  15.637  0.0367 -0.2855  0.0192
12483W        W30007   6.331  12.267  16.425  0.3973 -0.2248  0.3065
12484W        W30008  11.407  14.542  13.284 -0.0713 -0.1752  0.0162
12485W        W30009   8.104  10.139  12.624  0.0979  0.1370  0.0102
12486W        W30010   9.676   0.001   1.524 -0.1208  0.0332 -0.1018
12487W        W30011   7.694   8.557  16.525  0.0106 -0.2512  0.0978
12488W        W30012   6.739   2.904  16.805  0.2493  0.2476 -0.1707
12489W        W30013   3.065  15.809   0.706 -0.3442 -0.1186 -0.2361
12490W        W30014   5.092  16.392  12.241  0.0624  0.0706 -0.3184
12491W        W30015   0.228   7.783   1.574  0.2298  0.2825  0.0896
12492W        W30016  13.406   9.586  15.047  0.2800  0.3049  0.1709
12493W        W30017  16.605  14.991  13.870 -0.3569  0.0267 -0.1000
12494W        W30018   6.205  10.491  15.919  0.0847 -0.0228  0.1352
12495W        W30019   6.602  14.389  16.025 -0.0220  0.1958 -0.2325
12496W        W30020  14.359  16.216   0.880  0.1159 -0.0225 -0.0126
12497W        W30021   0.080  16.896  15.082  0.3021  0.2306 -0.0132
12498W        W30022  16.590   1.684   2.290  0.0290  0.0622 -0.1384
12499W        W30023  11.144   5.782  12.305  0.0968  0.3531  0.0085
12500W        W30024  15.032   1.753  14.773 -0.0714 -0.0297 -0.1030
12501W        W30025   6.602   7.801  12.351 -0.0086  0.0844  0.5247
12502W        W30026   9.244   4.026  13.776 -0.0417 -0.1702  0.1211
12503W        W30027  10.417   9.296   4.538  0.1099  0.1517 -0.1629
12504W        W30028   0.915   1.101   2.756 -0.2478  0.0928 -0.1417
12505W        W30029   6.813  17.037  15.316 -0.1018 -0.1802 -0.1611
12506W        W30030  10.920   4.661   1.209 -0.5710 -0.1560 -0.0902
12507W        W30031   4.393  15.832  13.872 -0.0822 -0.1468  0.0804
12508W        W30032   0.720   5.491   5.824  0.0563  0.0844 -0.1265
12509W        W30033   1.413   8.660  16.015  0.0115 -0.1102  0.1940
12510W        W30034   9.412   6.985   3.294  0.0859 -0.0716 -0.1435
12511W        W30035   9.292  12.777   4.159  0.0174 -0.0711 -0.1152
12512W        W30036   2.846   7.570   1.112  0.2609 -0.1383  0.0058
12513W        W30037  10.752   7.284  13.201 -0.1484 -0.1494  0.0376
12514W        W30038  11.543   2.929  13.256  0.1547  0.0878 -0.0448
12515W        W30039   0.200  14.774   4.565  0.1016  0.0234 -0.2108
12516W        W30040   9.205  14.287   6.739 -0.1325  0.3094  0.0089
12517W        W30041   2.064   3.819  16.051 -0.3408  0.1898  0.3539
12518W        W30042  14.658   4.801  17.185 -0.1410 -0.0270 -0.0116
12519W        W30043   7.059   1.353  16.437  0.1110  0.0187 -0.2219
12520W        W30044  16.342   1.546  14.169 -0.1804 -0.0759  0.2620
12521W        W30045  16.600   6.755  14.335  0.0560 -0.2112  0.0269
12522W        W30046   4.802   4.019   3.980 -0.1199  0.1075 -0.2446
12523W        W30047   3.265   4.242  16.696  0.1442  0.1463 -0.4151
12524W        W30048  13.957  10.153  16.133  0.0551 -0.1587 -0.0632
12525W        W30049   5.534   7.381  13.429 -0.0986  0.0251 -0.1910
12526W        W30050   6.742   0.904  14.977 -0.0779 -0.0535  0.0888
12527W        W30051   1.784   5.788  12.947  0.0878 -0.2436 -0.0496
12528W        W30052   9.831   0.975   2.634  0.3192  0.1659 -0.0585
12529W        W30053   0.265   9.929   4.084 -0.0823 -0.0038  0.0284
12530W        W30054   7.711   7.422  13.793  0.1147  0.0342 -0.0712
12531W        W30055  16.790   9.436  16.665 -0.5019  0.1979 -0.1766
12532W        W30056   9.092   9.347   0.401 -0.1764 -0.0814 -0.1766
12533W        W30057   6.800  16.179  14.753 -0.2398 -0.0371 -0.0477
12534W        W30058  14.661  13.741  12.330  0.0525  0.2511  0.0500
12535W        W30059  11.089  15.029  14.091 -0.1186 -0.1315  0.3883
12536W        W30060  14.373  15.035   2.806 -0.1868 -0.0708  0.1779
12537W        W30061  11.660  14.366  16.249  0.1016 -0.2115  0.0903
12538W        W30062   6.683   6.724  15.373 -0.3279  0.0658 -0.1896
12539W        W30063   0.339   0.152   1.531  0.0628  0.3687  0.1037
12540W        W30064   4.694   3.365  14.814  0.3624 -0.2612  0.2565
12541W        W30065   7.017   3.290   3.443  0.2012 -0.2843 -0.1208
12542W        W30066   5.056   3.743  13.017  0.1641  0.3330 -0.2061
12543W        W30067  16.372   7.952  12.624 -0.0914 -0.0334  0.2652
12544W        W30068   8.385   7.746   1.356 -0.1290  0.2352 -0.0273
12545W        W30069   1.887   2.986   3.435 -0.0766 -0.0355 -0.1441
12546W        W30070  14.165   7.027  14.681 -0.0787 -0.2587  0.0384
12547W        W30071   5.628   3.031   5.759 -0.2654 -0.2191  0.0696
12548W        W30072  13.129  14.792   4.201  0.0112  0.2740 -0.2031
12549W        W30073  17.227  13.448   6.163 -0.3572  0.0106  0.0349
12550W        W30074  16.799  12.854  16.984 -0.2334  0.1700  0.3113
12551W        W30075  10.587  14.426   0.303 -0.0621 -0.0782  0.0974
12552W        W30076   5.199   3.863   6.613  0.1030  0.3922 -0.0825
12553W        W30077   2.573  15.837   4.525  0.2786 -0.0585  0.2197
12554W        W30078  14.220  11.904  15.596 -0.3528 -0.3628 -0.1381
12555W        W30079  15.421  13.736   4.239 -0.1209  0.3628  0.2154
12556W        W30080  14.087   3.763  12.268  0.2703  0.0917 -0.1508
12557W        W30081   2.941  10.736   0.933 -0.0767 -0.0119 -0.1117
12558W        W30082   5.680   8.407  15.384 -0.1690  0.0889  0.0025
12559W        W30083  15.664  14.405  14.559  0.1069  0.1549 -0.0274
12560W        W30084   3.723  11.906  14.888  0.1157  0.1794 -0.0997
12561W        W30085  14.860   2.169   5.460  0.1008  0.2064 -0.0759
12562W        W30086   6.631   4.590   3.004 -0.5992  0.1508  0.3183
12563W        W30087  12.520   1.057   0.353  0.0205 -0.2021  0.0099
12564W        W30088   6.555  16.127   2.094  0.1916  0.0109 -0.2100
12565W        W30089  14.986   1.514   2.099  0.1061  0.1590 -0.2512
12566W        W30090  11.849  10.837  16.639 -0.1769 -0.2215 -0.0439
12567W        W30091   1.026   1.232  16.491  0.0187 -0.0118 -0.0839
12568W        W30092   3.094  14.823  15.582 -0.0681  0.0932 -0.0897
12569W        W30093   0.805  10.432  17.126 -0.1917 -0.1568  0.0171
12570W        W30094   1.100   5.543   3.182 -0.2029  0.1510 -0.3507
12571W        W30095  15.255   0.354  17.322  0.1496  0.2219  0.1809
12572W        W30096  15.467  10.544  13.262  0.0595 -0.1466 -0.1033
12573W        W30097   4.829  12.737   4.217  0.0952 -0.0787  0.1602
12574W        W30098   3.348   1.838   2.025  0.1245 -0.1184  0.4016
12575W        W30099  17.130   5.265  15.158  0.0972 -0.0591  0.1466
12576W        W30100   6.364   3.138  15.067  0.2087 -0.2181  0.2020
12577W        W30101  14.354  12.987  13.057 -0.2183 -0.0427  0.0945
12578W        W30102  14.328   0.987  15.766 -0.2255  0.0186  0.0341
12579W        W30103  16.265   4.838  11.619  0.2974  0.1205  0.0094
12580W        W30104   8.963  11.713  13.787  0.2275  0.0935 -0.0816
12581W        W30105  10.304   1.491   0.908  0.2254 -0.0475  0.1563
12582W        W30106   9.336  15.099  14.217  0.4594 -0.1547 -0.2130
12583W        W30107   0.029   3.469   1.902 -0.1573  0.3696  0.0021
12584W        W30108  15.171   1.272  14.805  0.0840  0.1042  0.0667
12585W        W30109   7.847  14.866  17.307 -0.2101  0.0402  0.1257
12586W        W30110   8.233   3.265   3.559 -0.0651 -0.2878  0.4874
12587W        W30111  11.094   6.497  17.290  0.1779  0.0239  0.0693
12588W        W30112  10.815   4.953  15.418  0.1375  0.0346  0.1742
12589W        W30113   5.840   0.060   2.786  0.1313 -0.0406 -0.0462
12590W        W30114  11.798   4.930   2.467  0.1047  0.3384 -0.0746
12591W        W30115   6.866   1.740  13.587 -0.2140  0.2795 -0.2594
12592W        W30116   6.075  12.238  12.845 -0.5117 -0.2559 -0.1011
12593W        W30117  14.723  16.011  15.363 -0.1280  0.0200  0.0784
12594W        W30118  16.781  15.410   4.433 -0.2319  0.2329 -0.1832
12595W        W30119  12.908  13.361   1.486  0.2439  0.0952 -0.2523
12596W        W30120   5.886  14.274   2.194 -0.3388  0.0039  0.1136
12597W        W30121   3.857   7.520  17.140 -0.0202 -0.1325 -0.2901
12598W        W30122   4.716  16.431  16.876  0.1798 -0.0585 -0.3533
12599W        W30123  12.248  11.831   2.418 -0.1316 -0.0902 -0.0635
12600W        W30124   9.638   1.444  17.043  0.1049 -0.1739  0.0714
12601W        W30125   4.073   0.067   3.206 -0.0999  0.0967 -0.1064
12602W        W30126   1.816   1.955   3.869 -0.0037  0.2979 -0.0338
12603W        W30127   6.754   5.010  14.151 -0.1699  0.0732  0.0150
12604W        W30128  17.022  14.404   2.275  0.1159  0.1193  0.1447
12605W        W30129   1.654   9.947  11.829  0.3145  0.3011  0.0036
12606W        W30130  11.979   3.640   1.558 -0.2853 -0.0146  0.0140
12607W        W30131   6.856   1.231   3.696 -0.2284 -0.0126  0.0276
12608W        W30132   7.160   0.029   1.601  0.1610 -0.2168 -0.1621
12609W        W30133  15.576   3.860   4.234 -0.0198  0.1945  0.1257
12610W        W30134   2.932   1.370  15.745 -0.0632 -0.1033  0.0441
12611W        W30135  14.847  14.875  17.303 -0.5708 -0.2712 -0.0380
12612W        W30136   6.228  10.612   3.546  0.3952 -0.0216 -0.0458
12613W        W30137   7.428  15.171   5.904 -0.4972  0.0311 -0.2326
12614W        W30138   0.211   5.137  14.626  0.0151  0.1231  0.0379
12615W        W30139  11.484  17.162   2.464 -0.0322  0.1198 -0.1668
12616W        W30140   0.585  13.887   2.240 -0.4283  0.0059  0.0889
12617W        W30141  16.927  13.413  13.139 -0.1361 -0.0143  0.0915
12618W        W30142   5.760   3.778  14.229  0.1492 -0.3590  0.3877
12619W        W30143  16.660  13.310  14.583  0.0622  0.1513  0.1187
12620W        W30144   5.242   7.544  14.343 -0.0417  0.0530 -0.0455
12621W        W30145   7.387   7.511   2.257  0.3189  0.2511 -0.1251
12622W        W30146   8.694  16.340  15.425 -0.3324  0.0046 -0.2252
12623W        W30147  11.424   6.062   1.439  0.2345  0.0624  0.1230
12624W        W30148   3.782   7.569  13.297  0.3799  0.4548 -0.3330
12625W        W30149   3.332  12.571   0.628  0.2972  0.0474 -0.1177
12626W        W30150  16.040   1.069   2.861 -0.1315  0.2443  0.2205
12627W        W30151   8.897   0.855   4.550  0.1110 -0.1195  0.3042
12628W        W30152  10.497  16.607  12.540 -0.0326  0.2223 -0.2704
12629W        W30153   7.579  15.104  16.899  0.1540  0.3130  0.2768
12630W        W30154   7.458  12.083  16.088 -0.3294  0.1009 -0.3495
12631W        W30155   3.999   4.260  12.493 -0.0740  0.1119 -0.1208
12632W        W30156  15.008   5.689   0.068  0.2320 -0.2057  0.5090
12633W        W30157   2.178   1.829   5.207 -0.0871  0.3317 -0.0913
12634W        W30158  11.583   2.245   0.976 -0.0891  0.0520  0.2211
12635W        W30159   9.818   0.240   3.428 -0.1907 -0.0260 -0.1079
12636W        W30160  11.823   0.915  14.375  0.2231  0.0982  0.0672
12637W        W30161   6.104   2.613  16.199  0.0189 -0.1491  0.2241
12638W        W30162  10.002  14.595  14.531  0.2424 -0.0242  0.1301
12639W        W30163   3.849  13.262  17.440 -0.2313 -0.0625  0.1456
12640W        W30164  15.688  12.467   0.387 -0.5091 -0.0083 -0.0141
12641W        W30165  11.653  10.339   1.097 -0.1113 -0.2140 -0.2299
12642W        W30166  13.336  10.051   2.424  0.2492 -0.0201  0.0383
12643W        W30167   1.155  10.287  16.828  0.0042 -0.0346 -0.1646
12644W        W30168   3.602   8.795  15.092 -0.6170  0.0532  0.0903
12645W        W30169  13.748  15.588  14.782  0.0920 -0.0579 -0.2763
12646W        W30170   4.926  14.752  13.264 -0.2510  0.0630  0.0327
12647W        W30171  16.948  17.068  14.490  0.0162 -0.0912 -0.0269
12648W        W30172   7.309  14.350  15.190  0.0676  0.2192 -0.3481
12649W        W30173  13.018  11.598  11.868 -0.2250 -0.4849  0.1323
12650W        W30174   8.999   2.482   5.192 -0.3831  0.0006 -0.1074
12651W        W30175  11.902  16.769   2.891  0.2124  0.3789  0.3264
12652W        W30176  13.475   1.911  16.620 -0.0178  0.2732 -0.2030
12653W        W30177   1.934   0.019  14.116 -0.0387 -0.2665  0.0176
12654W        W30178   2.985   7.374   2.883  0.0675 -0.0628  0.0090
12655W        W30179  16.219  14.969   0.216  0.0013 -0.2151  0.0729
12656W        W30180   0.386  12.872  15.883  0.2898  0.1563 -0.0493
12657W        W30181   9.340   5.522   2.701 -0.1856  0.2141 -0.0637
12658W        W30182  10.378   2.996   4.007 -0.0424  0.0634  0.1056
12659W        W30183   0.175  16.437   1.165  0.0407 -0.0044  0.0171
12660W        W30184  14.755   2.721  13.842  0.0916 -0.1346  0.0590
12661W        W30185   0.280   8.208   1.829  0.1018  0.0701 -0.0083
12662W        W30186   1.372   1.104  12.139  0.2718  0.1950 -0.1797
12663W        W30187   1.589  12.452   5.851  0.1371  0.2245 -0.0184
12664W        W30188   4.910   4.403  15.268 -0.0161 -0.1437 -0.0149
12665W        W30189   0.197   5.509  13.368 -0.2640  0.0388 -0.0612
12666W        W30190   2.694   6.248   5.311 -0.1475 -0.0010  0.0611
12667W        W30191   2.144   1.398   6.203  0.1901  0.2349 -0.1210
12668W        W30192  10.134  16.835  11.480 -0.0354  0.1071 -0.0520
12669W        W30193   1.288  12.170  12.362  0.0630  0.2399 -0.0032
12670W        W30194   7.866   4.296   4.955  0.2622 -0.0661 -0.0822
12671W        W30195   9.300  16.291   1.497 -0.4166  0.0333 -0.0189
12672W        W30196  14.783   7.348  11.426  0.3199 -0.1215  0.0630
12673W        W30197   0.467  16.334  15.785 -0.1247  0.0380 -0.1453
12674W        W30198  16.692   7.126   2.226  0.4499  0.0789 -0.0505
12675W        W30199   4.455  10.520   2.156  0.0098 -0.2241  0.1635
12676W        W30200  13.921   1.163   5.314 -0.1362 -0.0934  0.1024
12677W        W30201  15.328  12.274   0.764  0.0439 -0.1911  0.0402
12678W        W30202  16.552   0.186   2.140  0.3518  0.3481 -0.0658
12679W        W30203  11.538  10.563  13.864 -0.1163 -0.0265  0.1346
12680W        W30204   6.464  13.104  15.599  0.0181  0.0575 -0.1070
12681W        W30205   3.959   3.232   0.609 -0.0448 -0.4530  0.0760
12682W        W30206  16.737   7.303  14.402  0.1528  0.0492 -0.1097
12683W        W30207   0.724  14.140  16.072  0.3090  0.2246 -0.0895
12684W        W30208   1.710   9.426  11.966 -0.2211 -0.1382 -0.0964
12685W        W30209   8.401  16.260   4.929  0.0401 -0.1739 -0.0952
12686W        W30210   3.972   0.595  17.406 -0.2239 -0.1079  0.1789
12687W        W30211   7.027  14.310  15.734  0.3132  0.0048 -0.0981
12688W        W30212   0.737   1.096   5.075 -0.2053 -0.0947 -0.0687
12689W        W30213  12.803   0.742   0.683 -0.4026  0.0394  0.1539
12690W        W30214   9.934  12.944   2.181 -0.0803  0.1978 -0.2375
12691W        W30215   6.291   8.485   1.911 -0.2515  0.1031  0.0803
12692W        W30216   6.288   0.065   2.549 -0.2028 -0.1437  0.0413
12693W        W30217  11.834  10.556   0.562  0.1782  0.0121 -0.1323
12694W        W30218   7.224   5.422   2.492  0.2804  0.2580  0.1226
12695W        W30219  12.568   5.940  17.155  0.1425  0.0488  0.1192
12696W        W30220   7.990   2.978  12.651 -0.1036  0.0118 -0.1985
12697W        W30221   0.371   8.407  14.188  0.0932  0.0555  0.0224
12698W        W30222  12.895   7.384   1.883 -0.2988 -0.0545 -0.3508
12699W        W30223  12.206   4.780   2.169  0.0690 -0.2947  0.2106
12700W        W30224   7.876   6.630  17.392 -0.4752  0.3187 -0.0356
12701W        W30225  12.257  16.187   1.094  0.1684 -0.1023 -0.0881
12702W        W30226   9.175   0.532  14.729 -0.0093  0.0130  0.0447
12703W        W30227   7.270   6.880   1.994 -0.1064 -0.0440 -0.0474
12704W        W30228  16.256  14.476  13.837 -0.1126 -0.0620  0.0823
12705W        W30229   9.942   6.808   3.984  0.3592  0.1117 -0.1612
12706W        W30230   4.846   4.705  14.065  0.0995  0.0200 -0.3329
12707W        W30231  14.736  10.914   3.352  0.1492  0.0694 -0.1752
12708W        W30232   1.348  11.138   0.728 -0.2058 -0.0335 -0.3653
12709W        W30233   1.020   8.558  16.791 -0.1093 -0.1926  0.1257
12710W        W30234  13.284  10.688  12.064 -0.2168 -0.2766 -0.1444
12711W        W30235   1.449   1.593  13.854 -0.1405 -0.0676  0.2709
12712W        W30236  10.967  12.112  16.950  0.1890 -0.1071 -0.0045
12713W        W30237   8.741  15.756   2.028 -0.1620  0.0685 -0.4497
12714W        W30238   5.452  11.161  14.646  0.2460 -0.0436  0.2937
12715W        W30239  13.555  12.039   3.570  0.3007  0.0017 -0.3988
12716W        W30240   8.414  10.761   4.261  0.0145  0.3842 -0.3473
12717W        W30241  10.449   8.329   1.862  0.2350  0.1844 -0.1013
12718W        W30242  12.044  15.056   2.759  0.1797  0.1029  0.0726
12719W        W30243   9.021  14.170   2.330  0.4300 -0.1999  0.0897
12720W        W30244   5.680   5.606  16.654  0.1327 -0.2039  0.0265
12721W        W30245  11.055  10.538  16.859 -0.0305  0.1051  0.0526
12722W        W30246  14.562  11.563   3.642  0.0624 -0.0777  0.2167
12723W        W30247   1.975   7.531  15.537  0.3337  0.4680 -0.0258
12724W        W30248  10.305   4.119   5.326  0.0882  0.0466 -0.3384
12725W        W30249   2.361  13.406  17.491  0.2319 -0.1417  0.2114
12726W        W30250   7.964  14.628   2.797 -0.1189  0.4598 -0.2476
12727W        W30251  12.601   7.196  12.199  0.1778  0.2251  0.0299
12728W        W30252   6.261   2.155  15.543 -0.0939 -0.1985  0.3147
12729W        W30253   7.164   9.888   2.491 -0.0775  0.1302 -0.3501
12730W        W30254   7.612   6.972  14.288  0.3924 -0.0330 -0.2761
12731W        W30255   8.367  16.074   1.123 -0.1802  0.0637  0.1222
12732W        W30256  10.985  17.049   1.249  0.0665  0.0786  0.1414
12733W        W30257  15.424  12.498   5.049  0.1483  0.1271 -0.0619
12734W        W30258   1.385   7.701  13.538  0.1372  0.0612 -0.0047
12735W        W30259  11.225   5.393   0.887  0.0535 -0.1662 -0.1689
12736W        W30260   9.622  11.940  16.870 -0.2520  0.3547 -0.0705
12737W        W30261  10.311   9.732   2.760  0.0913  0.4239  0.2348
12738W        W30262   2.300   8.647   0.499  0.0303  0.2687 -0.1682
12739W        W30263  14.392   6.837  15.996  0.1548  0.5950 -0.0510
12740W        W30264  16.129  14.927  15.188 -0.2287 -0.1608  0.1624
12741W        W30265   2.401  13.763   2.326  0.0097  0.2864 -0.2342
12742W        W30266  15.182   3.387   0.413 -0.0712  0.5298  0.0320
12743W        W30267  15.329  15.939   0.537 -0.2404 -0.1825 -0.0271
12744W        W30268   3.358   1.145  12.857 -0.0906 -0.0649  0.0501
12745W        W30269   4.534   2.114  17.330 -0.2322 -0.1105 -0.2482
12746W        W30270  13.252  15.532   1.330 -0.0482 -0.3654  0.0766
12747W        W30271  13.188  14.469   1.350 -0.1723 -0.0730  0.1794
12748W        W30272   9.123  15.796  15.947 -0.0274 -0.2151 -0.1611
12749W        W30273   2.257   3.769   4.093  0.1863 -0.1805  0.3212
12750W        W30274   3.252   5.354   1.918  0.3732  0.1259 -0.1819
12751W        W30275   7.737  16.985   0.382  0.3079 -0.0037  0.0093
12752W        W30276   0.597  11.202  16.160 -0.0763 -0.2346 -0.2325
12753W        W30277   5.153   6.762  17.544  0.0888 -0.3201  0.0763
12754W        W30278  15.475   1.684   0.453 -0.1066  0.1587 -0.1089
12755W        W30279   0.524   3.939  17.034  0.1996 -0.2178 -0.0838
12756W        W30280   5.577   3.265  15.608 -0.0925 -0.3508  0.3742
12757W        W30281  13.834  14.589  16.054 -0.0392  0.2594 -0.0320
12758W        W30282   2.108   3.255   3.790  0.0573 -0.0791  0.1065
12759W        W30283  11.793   3.029   1.028 -0.3127 -0.5287 -0.2949
12760W        W30284   1.559   6.780  13.204  0.1565  0.0941  0.5964
12761W        W30285  11.068   4.454  13.719  0.1290  0.0148 -0.1037
12762W        W30286   1.401   4.672  14.626 -0.1447 -0.0037  0.2926
12763W        W30287   2.503  11.538  15.945 -0.1267  0.1229 -0.1809
12764W        W30288   4.073   0.837  14.631 -0.3041  0.1559 -0.0196
12765W        W30289  10.685  14.911   3.411  0.1922  0.0061  0.1081
12766W        W30290   2.509  10.189   3.149  0.0637  0.0680  0.0123
12767W        W30291   7.046   6.857   3.708 -0.1537 -0.1995 -0.2305
12768W        W30292  14.342   3.590  14.085 -0.0009 -0.1704 -0.3085
12769W        W30293   4.028   5.997  16.892  0.1816  0.2084 -0.0071
12770W        W30294  15.591   0.630  17.571  0.1918 -0.0178 -0.1018
12771W        W30295   2.935   5.113   4.873 -0.0941  0.0743  0.2094
12772W        W30296   6.213   2.491  14.462 -0.1612 -0.1059 -0.0545
12773W        W30297  11.324   3.600  16.410 -0.0775 -0.3434  0.0375
12774W        W30298   5.850  11.847   4.103 -0.2118  0.0629  0.0176
12775W        W30299  14.463  15.949   4.335 -0.0308  0.3015  0.5254
12776W        W30300  11.887  16.169  15.649  0.1361  0.3445  0.0648
12777W        W30301   8.115   6.700  13.236  0.1289  0.2389  0.2251
12778W        W30302   4.782  12.577  15.424 -0.2146  0.3174  0.0838
12779W        W30303  11.539   9.557  12.451  0.2756 -0.0135  0.1177
12780W        W30304   4.421  13.735  14.686 -0.1502 -0.1942  0.0534
12781W        W30305   5.479  13.845   0.920 -0.0889 -0.0271  0.1661
12782W        W30306  12.239   9.348  14.275  0.0301  0.3489  0.1277
12783W        W30307   7.059   4.796   1.372 -0.2418 -0.2223  0.1248
12784W        W30308   1.564   0.603   3.949 -0.2035 -0.1011  0.1531
12785W        W30309   6.470   8.555  15.671 -0.0140  0.0176 -0.1858
12786W        W30310   3.062   3.249   3.791  0.2037  0.1417 -0.2286
12787W        W30311  11.147  14.235  16.403 -0.5610  0.1039 -0.0478
12788W        W30312  10.944   7.541  17.562  0.2525 -0.3721 -0.1812
12789W        W30313   1.985   3.054   2.441  0.0504 -0.0487  0.3759
12790W        W30314   5.493  14.568   2.369  0.2816  0.0964  0.2914
12791W        W30315   9.653  14.195   5.385 -0.1057 -0.0265  0.0128
12792W        W30316   6.266   5.515  13.791  0.1455 -0.0941  0.1792
12793W        W30317   9.653   7.603   4.448  0.3895  0.1037  0.2603
12794W        W30318   6.660   8.858  12.644 -0.1061 -0.1276  0.0775
12795W        W30319  14.559  15.727  17.194  0.2583 -0.2212 -0.3526
12796W        W30320   0.166  11.226   5.724 -0.1487  0.1051 -0.0641
12797W        W30321   5.346   3.282  13.391 -0.2901 -0.0302 -0.0761
12798W        W30322   5.392  16.988   5.089 -0.0616  0.1163  0.1559
12799W        W30323   9.984   4.564   3.410  0.0230 -0.1427 -0.0441
12800W        W30324  11.248  12.589   0.112 -0.0437  0.0016 -0.0735
12801W        W30325  13.890   3.181  16.075 -0.1909 -0.2888  0.0767
12802W        W30326  12.209   0.586  15.185  0.1436 -0.0498 -0.0981
12803W        W30327   9.925  16.642  12.321  0.1614 -0.0466 -0.1887
12804W        W30328   8.230  11.753  15.820 -0.3227  0.1434  0.0409
12805W        W30329   5.350  15.988   5.014 -0.2101  0.2997  0.0467
12806W        W30330   9.911  14.754   4.282  0.0082 -0.1657 -0.0313
12807W        W30331   9.908   3.606  14.295  0.2623  0.0533 -0.3593
12808W        W30332  16.850   0.526  13.649 -0.0005 -0.0231  0.0449
12809W        W30333   5.319  14.369  17.327 -0.2924  0.0618  0.0178
12810W        W30334   8.540   6.820   0.366 -0.1660 -0.1293  0.1561
12811W        W30335   0.273   3.823  12.454  0.0332 -0.0845  0.0350
12812W        W30336   3.651  11.658   5.079 -0.1080  0.3049  0.0860
12813W        W30337   4.359  12.054   5.740 -0.2027  0.0852 -0.0012
12814W        W30338  13.423   3.625  17.340 -0.2684  0.2145  0.1395
12815W        W30339  10.128   5.763  12.349 -0.0426 -0.2977 -0.0291
12816W        W30340   4.375  17.243  16.246 -0.0085  0.4501 -0.0742
12817W        W30341   1.006  10.171   3.470  0.0621  0.0856 -0.2143
12818W        W30342  12.390  12.923   3.738  0.2391 -0.1160 -0.1315
12819W        W30343   1.067  11.974   1.055  0.0172  0.2738  0.0475
12820W        W30344   4.210  11.344   1.463  0.1195 -0.1537 -0.1078
12821W        W30345  12.317   5.304   2.790 -0.4233 -0.0763 -0.0999
12822W        W30346  16.285   0.177  15.709 -0.2910 -0.1189  0.0987
12823W        W30347   8.569  16.314  13.571  0.0013  0.0007 -0.2907
12824W        W30348   2.953  13.724  13.138 -0.2891 -0.0787  0.1782
12825W        W30349  11.475  15.113   0.877 -0.2729  0.0738 -0.0607
12826W        W30350  13.046   8.733  11.939 -0.0766  0.2397 -0.0302
12827W        W30351   3.522  13.039   2.598  0.0181  0.1210 -0.0424
12828W        W30352  11.901   0.191   4.275  0.1968  0.1483 -0.0238
12829W        W30353   2.249  14.729  17.037 -0.0102 -0.0755 -0.1879
12830W        W30354   3.810   4.326  14.099  0.0756 -0.2836  0.0702
12831W        W30355   3.305  10.507   3.515  0.0173 -0.1105 -0.0243
12832W        W30356   7.139   3.076  17.424  0.2458 -0.1464  0.0919
12833W        W30357   2.680   5.501   3.534  0.1353  0.0143 -0.3066
12834W        W30358   2.861  16.552   2.889 -0.0349  0.0105  0.2173
12835W        W30359   9.944  10.784   1.189 -0.3146 -0.1144 -0.0918
12836W        W30360   7.771   7.494   4.612 -0.1340 -0.1067 -0.1110
12837W        W30361   1.693   6.356   2.142  0.1060 -0.0675  0.1566
12838W        W30362   5.977  12.696  12.690 -0.2826 -0.0819 -0.1883
12839W        W30363  10.839   4.539  17.079 -0.0962 -0.3022  0.0221
12840W        W30364   2.713  10.003   5.814  0.0708  0.1070 -0.0422
12841W        W30365  10.995   6.666  15.523 -0.3516 -0.2060  0.0611
12842W        W30366  13.891   8.169  16.834 -0.2139 -0.0502  0.2787
12843W        W30367  16.167   9.629   1.875  0.0117 -0.0485  0.1240
12844W        W30368   5.259   5.055   4.775 -0.0953 -0.0896 -0.1789
12845W        W30369   2.058   3.971   0.155 -0.0473  0.0330  0.1604
12846W        W30370  14.102   0.333   5.172 -0.0206 -0.0378  0.1291
12847W        W30371   4.911   3.281  15.308  0.0008 -0.1377  0.3354
12848W        W30372  10.755  13.759   2.902  0.1252 -0.0809 -0.3818
12849W        W30373   9.173  16.072  12.548  0.2731 -0.2806  0.0500
12850W        W30374  14.771   2.904   4.870 -0.0063  0.2014  0.0255
12851W        W30375   1.130  11.827   4.641  0.1914  0.2492 -0.5795
12852W        W30376   7.450   7.613  12.036  0.1424  0.1566  0.1897
12853W        W30377  12.337  10.681   0.512  0.3202 -0.2853 -0.1604
12854W        W30378  14.823  15.020   4.695  0.0463  0.0178 -0.4348
12855W        W30379  15.998   8.279   2.938 -0.1198 -0.2347 -0.0099
12856W        W30380   4.844   1.807   3.135 -0.0038  0.0557 -0.1728
12857W        W30381  10.658   1.656  15.161  0.0582  0.2059 -0.0255
12858W        W30382   4.072   2.367   0.252  0.2117  0.6075 -0.0698
12859W        W30383  15.502   5.088  16.430  0.1324  0.1342  0.2442
12860W        W30384  13.523  12.530  12.039  0.2710  0.1100  0.1328
12861W        W30385  14.874   5.789  13.291 -0.1879 -0.2007 -0.0411
12862W        W30386   4.490  11.768  13.394 -0.3167  0.1518  0.2881
12863W        W30387  11.866   2.473  16.465  0.3247  0.4534  0.0288
12864W        W30388  14.621   2.218  15.185  0.1087  0.1274 -0.2481
12865W        W30389   0.384  15.873  17.518 -0.1923  0.0749  0.4474
12866W        W30390  14.964  13.395  12.885 -0.1254 -0.0986 -0.0682
12867W        W30391  16.003  13.680   0.189 -0.1980  0.1450 -0.0792
12868W        W30392  12.190   1.213   4.998  0.1521  0.0070  0.0028
12869W        W30393  12.799   4.814   5.510  0.0409  0.0784 -0.3717
12870W        W30394  16.354  11.435   0.778 -0.1569 -0.0419 -0.0180
12871W        W30395  14.564  13.897  15.036  0.0218  0.2201 -0.0066
12872W        W30396   5.799   5.219   3.656 -0.1523 -0.1315  0.1034
12873W        W30397  16.365  11.526  15.216  0.0645  0.1516  0.0530
12874W        W30398   9.331  15.631  17.530 -0.1534 -0.0088  0.1936
12875W        W30399   6.054   3.563   4.608 -0.0319 -0.0774 -0.4954
12876W        W30400  15.492   4.096   0.262  0.1220 -0.0073 -0.1900
12877W        W30401  10.312  10.392  14.615 -0.0445 -0.1851 -0.1237
12878W        W30402   7.680   7.186  15.240  0.1156  0.0840 -0.1615
12879W        W30403  11.836  15.768  13.377 -0.1128  0.0637  0.1610
12880W        W30404  14.422   6.642  11.893  0.1916 -0.2339 -0.0000
12881W        W30405   9.013   3.625   4.710 -0.0646 -0.3504  0.1058
12882W        W30406   0.666   8.102  16.836 -0.1986  0.1092  0.3668
12883W        W30407   6.101   9.176  12.748 -0.1024  0.0934  0.1577
12884W        W30408   4.256   2.270  12.583 -0.0098  0.0082 -0.2744
12885W        W30409   3.081  15.677   3.590 -0.0477  0.1726  0.0323
12886W        W30410   2.487   0.319  15.773  0.1831 -0.0746  0.1063
12887W        W30411   4.889   9.656   1.936 -0.3040  0.1849  0.1242
12888W        W30412   7.133   3.736   3.720 -0.2988 -0.1632  0.2046
12889W        W30413   2.747  16.610  14.148 -0.0602  0.0272  0.2360
12890W        W30414   4.304   7.555  17.605 -0.1520  0.2454  0.0576
12891W        W30415  10.995   9.403  12.369 -0.0746  0.0634 -0.0011
12892W        W30416  15.803   8.523   2.003 -0.1878  0.1276 -0.0442
12893W        W30417   3.133   2.501  14.698  0.4832 -0.2786  0.0316
12894W        W30418   5.942  13.623   5.918 -0.0674  0.1154  0.1016
12895W        W30419  15.027  15.931   2.002  0.0522  0.2238  0.1078
12896W        W30420   1.635   9.413   0.593 -0.0787  0.1019 -0.1188
12897W        W30421   0.392   6.269  13.759  0.5007 -0.0477 -0.2313
12898W        W30422  12.484   0.691  14.714 -0.1012  0.2778 -0.4712
12899W        W30423   9.879  12.216  13.927 -0.1832  0.0243 -0.2968
12900W        W30424  10.752   4.749   3.557 -0.0301  0.2113 -0.1317
12901W        W30425   0.432   5.736  13.886  0.2512  0.1636  0.2189
12902W        W30426   8.694   4.229   3.842  0.0357 -0.4991  0.1497
12903W        W30427   7.210   0.523   0.316 -0.1038  0.0178  0.2607
12904W        W30428  15.978   5.674  11.601 -0.0714  0.4461  0.1325
12905W        W30429   3.117  15.579  16.567 -0.1897 -0.2502  0.3982
12906W        W30430   3.302  12.158   0.988  0.1126  0.0317  0.1147
12907W        W30431   2.292   3.722   3.000  0.0797 -0.0944  0.0491
12908W        W30432   9.930   5.233   2.635 -0.0611  0.0262 -0.1909
12909W        W30433   9.702   6.855   1.733 -0.0615  0.0512  0.2949
12910W        W30434   2.522   2.334   1.319  0.3246 -0.3466  0.2346
12911W        W30435   2.986  11.681   3.973  0.0591  0.0492  0.1807
12912W        W30436  15.661  10.028  12.521  0.1299  0.1142  0.1013
12913W        W30437  10.584   6.970   1.414 -0.0214 -0.0472  0.0068
12914W        W30438  15.962   5.124   1.540 -0.1468  0.0548 -0.1729
12915W        W30439   9.175   3.457   5.172 -0.1279 -0.0282 -0.0085
12916W        W30440   4.252  12.815   5.344  0.0666 -0.2593  0.1483
12917W        W30441  12.577   8.538   2.077  0.2538 -0.2239  0.0690
12918W        W30442  13.557   7.844  12.313  0.2439  0.0976 -0.0757
12919W        W30443  15.068   4.641   2.159  0.1555  0.1109 -0.0476
12920W        W30444   9.133  14.099   4.589 -0.3531  0.1632 -0.2906
12921W        W30445   0.189   8.820   0.635 -0.2317  0.3657  0.1691
12922W        W30446  11.278  12.735   2.317  0.1515 -0.1438  0.1856
12923W        W30447   1.231   4.361  16.853  0.4294 -0.0862 -0.3233
12924W        W30448  13.876   4.910   0.672  0.1255 -0.2346 -0.1628
12925W        W30449  14.062   5.479  15.782 -0.0400 -0.0857 -0.0717
12926W        W30450  11.276   2.643   3.332  0.2283 -0.1227 -0.0911
12927W        W30451   7.982  10.247   0.742  0.2831 -0.0250 -0.2643
12928W        W30452   2.933  10.176   5.431  0.1324  0.1863  0.0923
12929W        W30453   7.981   5.978   2.867 -0.1861 -0.3050  0.0363
12930W        W30454  13.168  12.369   2.761 -0.1343  0.1098 -0.3137
12931W        W30455   1.369   7.373  17.519 -0.2838 -0.0105  0.1679
12932W        W30456  14.766   5.046   3.950 -0.2633 -0.3988  0.0540
12933W        W30457   0.524   6.020  12.093 -0.2562  0.1017 -0.3043
12934W        W30458   8.922  10.667   2.865  0.1347 -0.0925  0.0853
12935W        W30459  13.675  11.470   2.228  0.1692 -0.0763  0.2361
12936W        W30460   3.037   0.649   0.621  0.3569 -0.0163  0.0890
12937W        W30461  15.573   6.265  12.735 -0.2878  0.0245 -0.0859
12938W        W30462   8.610   1.561   6.144 -0.4051 -0.1801 -0.0359
12939W        W30463  10.667   6.628   1.762 -0.0354 -0.0918  0.2734
12940W        W30464   5.292   0.099   3.517 -0.2584  0.3107  0.1480
12941W        W30465  11.418   0.518  13.868  0.1078  0.0631  0.0627
12942W        W30466   9.703   0.743   3.458 -0.3039  0.0194 -0.1099
12943W        W30467   0.924   6.698  12.441 -0.2224 -0.1327  0.0605
12944W        W30468  16.057  12.513  14.916 -0.2588  0.4738 -0.2623
12945W        W30469   7.183   9.017  16.538 -0.4616 -0.4067 -0.0564
12946W        W30470   5.597   9.576   0.254 -0.0943  0.1523  0.2083
12947W        W30471  11.375  15.072   4.971  0.2859  0.0130 -0.0303
12948W        W30472   0.083   0.681  14.539 -0.0136 -0.2332 -0.1340
12949W        W30473   8.466  10.847  17.322  0.1450  0.1158 -0.0282
12950W        W30474   5.391   2.187   3.641 -0.2337  0.0238  0.0141
12951W        W30475   6.013  16.004   2.270  0.0950 -0.0120  0.0614
12952W        W30476  16.211   3.367   5.425 -0.2549 -0.0390 -0.3022
12953W        W30477  13.336   2.833   1.276  0.3285  0.0764 -0.0653
12954W        W30478   1.123   5.207  14.209  0.1991 -0.0471 -0.1651
12955W        W30479   5.922  16.774   4.574 -0.1907 -0.1244  0.0182
12956W        W30480   9.095  12.160  14.601 -0.0431  0.2639 -0.0753
12957W        W30481  15.747  14.418  15.838 -0.1176 -0.3114  0.1318
12958W        W30482   3.162   4.978   3.704  0.0164  0.0845 -0.2377
12959W        W30483   0.128  16.254   2.860 -0.1256  0.2131 -0.0306
12960W        W30484  10.370  14.948  13.614 -0.1819 -0.2530  0.1673
12961W        W30485   8.522   0.073   5.110  0.1916 -0.1919 -0.1332
12962W        W30486   2.603   3.274  13.226  0.0447  0.1006 -0.1131
12963W        W30487   9.816   6.771   5.077 -0.1640 -0.0077 -0.1656
12964W        W30488  13.474  16.634   3.321 -0.2887 -0.0042  0.1453
12965W        W30489  10.562   6.244   0.398  0.3022  0.0705  0.0788
12966W        W30490   9.246   8.968   0.800  0.2601 -0.1397  0.2542
12967W        W30491   9.210  15.249  16.080 -0.3587  0.2018 -0.1876
12968W        W30492  14.910   3.917   1.561  0.0366  0.0067 -0.0381
12969W        W30493   8.812   4.361  14.932  0.0566  0.0072  0.2416
12970W        W30494   4.422  14.393  12.250  0.0466 -0.2220  0.0483
12971W        W30495   9.275   8.592   4.547  0.1116  0.0065  0.2203
12972W        W30496   0.560   9.126  16.365 -0.1864  0.0289  0.1857
12973W        W30497  14.555  14.186  12.171 -0.0294  0.1415 -0.0659
12974W        W30498   9.237  16.967  14.822  0.0299 -0.0783 -0.0486
12975W        W30499   4.176  14.584   0.220  0.2515  0.1824 -0.2321
12976W        W30500   2.848   9.517   0.521 -0.0608  0.1155  0.3457
12977W        W30501  16.954  12.152  17.592  0.2900  0.1172 -0.1024
12978W        W30502   9.021   5.074  14.308  0.0368 -0.0815  0.0057
12979W        W30503   6.879   5.009  13.191  0.0127  0.1950 -0.0089
12980W        W30504   6.174   8.099   2.835  0.0724  0.1828 -0.1587
12981W        W30505  17.085  12.523   4.873 -0.1564  0.1907  0.0251
12982W        W30506   5.183   7.761  15.883 -0.1442 -0.0001  0.2396
12983W        W30507  17.098  16.129  17.485 -0.1223 -0.3666 -0.0190
12984W        W30508   6.453  12.658   5.170 -0.0041 -0.0674 -0.3350
12985W        W30509   4.384   7.063   0.057 -0.2345  0.3489 -0.0779
12986W        W30510  10.727  13.887   0.380  0.1912 -0.1688 -0.1000
12987W        W30511   2.858  10.608   3.134 -0.2449 -0.1047  0.0094
12988W        W30512   9.514  12.370  14.914  0.0380 -0.0320  0.1554
12989W        W30513   9.999   5.737   5.577  0.1050 -0.0765  0.0324
12990W        W30514  12.964  10.704   0.510 -0.1195  0.0925  0.1441
12991W        W30515   2.735   6.601   1.272 -0.0913 -0.2484  0.1588
12992W        W30516  12.225   8.624  15.364  0.0926  0.1723  0.2135
12993W        W30517  16.837   6.966  12.658 -0.2728  0.0937  0.1414
12994W        W30518   4.509   0.577  14.837 -0.2633  0.0111  0.1098
12995W        W30519  14.655  14.165   4.085  0.1875  0.1376 -0.0076
12996W        W30520  15.113   3.027   4.411  0.2103  0.0510 -0.0694
12997W        W30521  13.270   8.903   0.521  0.4944  0.2752 -0.1574
12998W        W30522  14.280  13.525   2.066  0.2387  0.0973  0.2359
12999W        W30523  12.068   5.522  14.029  0.2700 -0.3263  0.1220
13000W        W30524   2.838   6.592  17.267  0.0417  0.0935 -0.1642
13001W        W30525   3.976  12.028  12.556 -0.1320  0.2351  0.0817
13002W        W30526  15.484  13.093  13.813  0.0777 -0.0593 -0.1094
13003W        W30527   7.324   9.016   1.155  0.0796  0.4455  0.0843
13004W        W30528   8.020  14.446  15.626  0.0178  0.0911 -0.1348
13005W        W30529  14.538  16.803  15.950 -0.1865 -0.1039  0.0578
13006W        W30530   2.192  14.064   3.690  0.1220  0.0363  0.2832
13007W        W30531   8.895  16.383   0.269 -0.1960  0.2223 -0.0591
13008W        W30532   7.151  15.793   1.956  0.4112  0.1656 -0.0261
13009W        W30533  14.746  11.292  15.256  0.0133 -0.1083 -0.2022
13010W        W30534   5.106  16.608   3.150  0.0496 -0.1245 -0.2805
13011W        W30535  10.139  16.089  15.756 -0.1296  0.1190 -0.0014
13012W        W30536  11.328   7.956  15.217 -0.0214 -0.0634 -0.0825
13013W        W30537   0.714  12.447   1.190  0.0313 -0.1012 -0.2168
13014W        W30538  10.957   5.664   3.447  0.1438 -0.2763  0.0259
13015W        W30539  12.836  15.446   2.618 -0.1148 -0.1254 -0.2069
13016W        W30540  16.410  10.572  16.241 -0.1425 -0.0784 -0.2324
13017W        W30541  15.965   8.453  13.809  0.2802  0.2115 -0.0316
13018W        W30542   2.668  14.962   2.838 -0.0168  0.0599  0.1134
13019W        W30543   3.022   1.966  15.501  0.2458 -0.0203  0.1060
13020W        W30544  16.878   9.306   5.524 -0.0092 -0.0969 -0.1025
13021W        W30545   1.705   2.153   2.845 -0.0477 -0.2936 -0.3877
13022W        W30546  17.060   5.018   2.306 -0.0504  0.0979 -0.2588
13023W        W30547  12.237  11.713  16.292  0.0070 -0.0510 -0.0930
13024W        W30548   8.067  15.642  16.626  0.0199 -0.2176  0.0480
13025W        W30549  17.139   6.106   0.062 -0.0972  0.3043 -0.0579
13026W        W30550  15.021  15.719  16.950 -0.0133 -0.0879  0.4076
13027W        W30551  14.258  16.866  15.508 -0.1037  0.2208 -0.3291
13028W        W30552   3.083  12.326  16.909  0.0758 -0.0215 -0.3057
13029W        W30553   2.672  11.865   2.752 -0.0867  0.0457  0.2360
13030W        W30554   7.070   3.083  14.471  0.3118 -0.1832 -0.0892
13031W        W30555   2.883   1.058  14.864 -0.4585  0.2255 -0.1143
13032W        W30556   8.827   3.706   5.838  0.1361 -0.0043 -0.1634
13033W        W30557  13.325   6.284  11.399 -0.1368 -0.0731 -0.0205
13034W        W30558   6.844  17.040  12.160  0.0409  0.0164 -0.3236
13035W        W30559   0.131  13.822  17.236  0.1152  0.1711  0.3337
13036W        W30560   9.531   1.718   2.148 -0.1332  0.0329  0.2247
13037W        W30561   0.856  16.510   4.568 -0.0144 -0.2179  0.0196
13038W        W30562   0.424  11.887  15.698  0.0422 -0.1405 -0.1168
13039W        W30563  13.538  15.219  15.013  0.1534  0.0833  0.2846
13040W        W30564   1.133   1.469  15.169 -0.1125 -0.0711  0.0110
13041W        W30565  17.033  15.819  15.198 -0.2118 -0.1164 -0.1599
13042W        W30566  16.790   5.770  11.896 -0.1080  0.2045  0.0744
13043W        W30567   9.217   7.697   4.699  0.0637 -0.0886  0.2389
13044W        W30568   9.313  15.804  15.349 -0.4760 -0.0674  0.0362
13045W        W30569  14.394  10.221   3.931 -0.0120 -0.0962 -0.3192
13046W        W30570   5.923  12.703   1.065  0.4074  0.1212  0.0404
13047W        W30571  13.997   9.542   4.246 -0.2389  0.0316 -0.1956
13048W        W30572  12.745  14.891   4.697 -0.2204 -0.0276 -0.0748
13049W        W30573   9.870  13.977  14.753  0.1227 -0.2319 -0.1955
13050W        W30574   5.718   0.488   3.672  0.2276  0.2143 -0.2471
13051W        W30575   2.675  10.624   4.335 -0.0393  0.0201 -0.3359
13052W        W30576   9.216   0.368   0.767 -0.1066  0.1099 -0.1077
13053W        W30577  13.535   5.222  16.268  0.1084 -0.3679 -0.3694
13054W        W30578  11.603   1.853   2.311  0.0165  0.1030  0.1567
13055W        W30579  10.770  10.117  13.471  0.1837  0.0103  0.2107
13056W        W30580  10.184   5.673  15.103  0.0782  0.0356  0.4460
13057W        W30581  10.803  12.873  16.543 -0.2825 -0.2555  0.0377
13058W        W30582   4.067   1.161   0.419 -0.0045  0.0217  0.3281
13059W        W30583   4.609  12.654   3.739 -0.0510  0.2783 -0.2969
13060W        W30584   0.177   7.785  16.776 -0.0711  0.2019 -0.1566
13061W        W30585   7.192  13.672  13.826  0.1443  0.1403 -0.2520
13062W        W30586   3.864   6.901  12.707  0.0254  0.0258 -0.0951
13063W        W30587  11.308  14.916   4.253 -0.0972  0.0685 -0.0542
13064W        W30588   0.530  12.692  12.703 -0.0079 -0.0271 -0.0437
13065W        W30589  12.172  16.499   3.310  0.1713 -0.2773  0.1791
13066W        W30590  10.039   9.356  13.593 -0.0435 -0.0533 -0.1903
13067W        W30591   4.088  13.611  14.301 -0.0973 -0.1920  0.0228
13068W        W30592  13.458   1.586   5.509 -0.5947  0.0245 -0.1329
13069W        W30593   0.674  11.465  15.614  0.0366  0.1318  0.2570
13070W        W30594   0.056  13.294   1.651  0.0410 -0.1749 -0.2971
13071W        W30595   0.936   6.317   0.134 -0.1810  0.2089 -0.2409
13072W        W30596  17.055  17.086  15.521 -0.0247 -0.0658  0.0516
13073W        W30597  16.332  14.350   1.052  0.0362 -0.1565  0.1289
13074W        W30598  14.508   7.573   0.135  0.0996 -0.0000  0.0718
13075W        W30599   9.167  15.539   3.566 -0.2466  0.0744  0.0707
13076W        W30600   4.596   0.093  17.440  0.2143  0.1740 -0.1190
13077W        W30601  16.938  14.718   2.782  0.0797 -0.2556 -0.1159
13078W        W30602   8.054   1.135   1.525  0.1284 -0.0772 -0.0302
13079W        W30603   2.811   7.990  15.300  0.2173 -0.0599 -0.0903
13080W        W30604   9.525  15.434  13.362  0.2403 -0.1989  0.0634
13081W        W30605   3.883  11.042   2.704 -0.2152 -0.0158 -0.2357
13082W        W30606   3.624   0.014   5.415 -0.1076  0.0660 -0.1309
13083W        W30607   9.449  16.690   3.894 -0.2527  0.1202  0.2995
13084W        W30608   3.378   6.066  12.148 -0.0154 -0.0101  0.0953
13085W        W30609  13.714  10.756   4.488 -0.4310 -0.0351  0.0833
13086W        W30610   8.582   6.706  13.436  0.2350  0.0169  0.0615
13087W        W30611   3.615   0.737   3.637  0.0422 -0.1997  0.0998
13088W        W30612   8.102  10.680   0.390  0.3782 -0.0882  0.2768
13089W        W30613   5.553   6.189   1.587  0.0713 -0.0854  0.2911
13090W        W30614  15.117  15.670  16.449 -0.0943 -0.1312 -0.2041
13091W        W30615   7.325   3.459   2.035 -0.2354 -0.1875 -0.2524
13092W        W30616   8.199   4.102  16.668 -0.2262 -0.0919 -0.1470
13093W        W30617   5.266  14.939   4.804  0.2986  0.0201  0.0037
13094W        W30618   4.469  12.846   2.343  0.1164  0.0897  0.0229
13095W        W30619   9.777  13.903  16.145 -0.0596  0.1426 -0.4023
13096W        W30620  13.231  15.678   3.746  0.1987 -0.0913  0.0248
13097W        W30621  15.118  11.902   0.423 -0.1006  0.0309 -0.2434
13098W        W30622  13.688  13.418   4.750 -0.2520 -0.1069  0.0135
13099W        W30623   4.537  12.456   5.493  0.2807 -0.1761  0.1846
13100W        W30624   7.803  16.551   1.684 -0.0711 -0.0229  0.0263
13101W        W30625  10.900  15.267   1.587  0.1796  0.1274 -0.3063
13102W        W30626   2.358  10.636   2.950  0.2239 -0.2552 -0.0165
13103W        W30627   3.547   3.417   3.662  0.0391  0.0132 -0.4627
13104W        W30628   6.494  12.326   5.560  0.1115  0.1066 -0.1557
13105W        W30629   1.849   6.720   0.360  0.0229 -0.0988 -0.1185
13106W        W30630   7.419  16.638  13.487 -0.0837  0.2348 -0.1646
13107W        W30631   5.833   5.056   0.476 -0.1944  0.0146 -0.4171
13108W        W30632  14.056   8.247   5.085 -0.0988  0.0868  0.2547
13109W        W30633   8.696  15.118   2.979 -0.0610  0.1618 -0.2555
13110W        W30634   2.918   9.335   3.939 -0.1949 -0.4709  0.1485
13111W        W30635   1.292   8.407   2.409 -0.0513  0.2516 -0.0983
13112W        W30636   2.930   1.895   0.728 -0.0690  0.0774 -0.3902
13113W        W30637   6.490  14.390   4.844 -0.0311 -0.0340 -0.0331
13114W        W30638  15.406  12.644  14.016  0.1592  0.0963 -0.2147
13115W        W30639   9.475   8.447   0.832  0.0027  0.2097 -0.1578
13116W        W30640   7.091  14.447   1.387  0.0742 -0.2315  0.2594
13117W        W30641   7.942   2.142   1.960  0.1523  0.1102  0.0638
13118W        W30642   0.581   7.651  15.425  0.0072  0.0015 -0.1770
13119W        W30643   0.502  16.466   1.665 -0.2308 -0.0245  0.1119
13120W        W30644   6.078  14.606   4.691  0.0164  0.1063 -0.0751
13121W        W30645   2.202   3.338  13.672 -0.3586  0.0630 -0.1147
13122W        W30646  13.196   5.601   4.708  0.0858  0.0021  0.1107
13123W        W30647  16.582   2.217   2.709  0.0860  0.0429  0.0098
13124W        W30648  13.677  12.587  13.511  0.0408  0.0407  0.4115
13125W        W30649   3.427  15.484   2.493  0.0200 -0.2340  0.2948
13126W        W30650  13.832   5.674   1.694  0.1849  0.1558 -0.0748
13127W        W30651   6.369  13.544   5.584  0.0170 -0.2001  0.1051
13128W        W30652  15.798   2.070  14.411  0.0441 -0.0202 -0.0550
13129W        W30653  12.025   2.445   5.117 -0.1796  0.2423  0.1640
13130W        W30654  15.904   3.581  14.615 -0.0714 -0.1510  0.1118
13131W        W30655  14.317  10.325   0.787  0.0198 -0.3241 -0.1503
13132W        W30656   8.178   3.159  13.151  0.0264  0.2253 -0.0215
13133W        W30657   3.169   0.999   0.947  0.0279  0.1572 -0.2852
13134W        W30658   9.020   1.732   5.902  0.1710 -0.1938 -0.0752
13135W        W30659  16.624  12.813   6.079  0.0716 -0.1361 -0.0412
13136W        W30660   0.334   8.480  15.159 -0.1327  0.1203  0.2539
13137W        W30661   6.786  12.056  16.952 -0.0923  0.1612  0.0170
13138W        W30662   4.490  12.239   1.285  0.4317 -0.3624  0.2428
13139W        W30663   4.536   8.279  12.394 -0.0849 -0.1062 -0.2353
13140W        W30664   7.625   3.002  15.144 -0.0136  0.0789 -0.3144
13141W        W30665   5.307   4.386   2.805  0.1169 -0.2032  0.1266
13142W        W30666  16.655   4.304  12.194 -0.1269  0.1043  0.3612
13143W        W30667   5.601   6.771  13.387 -0.1819  0.0210  0.1039
13144W        W30668  15.894   2.016   2.661  0.1266  0.0733 -0.2039
13145W        W30669  10.454   4.800  13.715  0.0837  0.0527 -0.1156
13146W        W30670   1.115   4.684   1.044  0.0850  0.0968  0.0261
13147W        W30671  13.847   6.300   5.009  0.0434 -0.2861  0.5786
13148W        W30672   8.364  11.381   0.718  0.0513  0.0338 -0.2055
13149W        W30673  16.521   4.289  15.731  0.0471  0.2713 -0.2715
13150W        W30674  14.344  10.838  15.932 -0.0036  0.1203  0.2839
13151W        W30675  16.402   0.735  13.828 -0.0930 -0.1628  0.3312
13152W        W30676   3.753  16.270  13.408 -0.0112 -0.0136 -0.1576
13153W        W30677  15.910   0.026   5.737 -0.0257 -0.0228  0.2702
13154W        W30678   5.505  12.121  16.041 -0.1656  0.1331  0.1230
13155W        W30679   5.015  12.527  16.679  0.0203  0.0606  0.1313
13156W        W30680   1.011   2.275   0.313  0.0430 -0.1396  0.1793
13157W        W30681  13.946  14.814  14.399 -0.1091 -0.0191 -0.2459
13158W        W30682   4.526  16.401   4.098 -0.0388  0.1150  0.0638
13159W        W30683   6.490   5.727   1.931 -0.1981 -0.1747 -0.2859
13160W        W30684   2.122  14.157  17.163 -0.1780  0.1390 -0.1247
13161W        W30685  10.190   0.313   4.683  0.0036  0.1860  0.1081
13162W        W30686  14.823  12.028   0.781  0.2022 -0.4161  0.1003
13163W        W30687   4.276  13.171  12.914  0.2455 -0.1322 -0.3113
13164W        W30688  12.108  12.558   4.004  0.0222  0.1030  0.1107
13165W        W30689   0.858  11.019   0.595  0.1424  0.1009  0.2680
13166W        W30690   1.839   8.951   4.388 -0.1537  0.0816 -0.3346
13167W        W30691  15.632   3.228  13.814 -0.3988  0.2646 -0.3418
13168W        W30692   8.390  11.536   5.243 -0.0628  0.0565  0.2830
13169W        W30693   7.229  14.791   4.921 -0.0803 -0.1614  0.2826
13170W        W30694  13.431   8.953  16.215  0.0186  0.1170  0.3143
13171W        W30695   2.083   1.966  12.103  0.1885 -0.2223 -0.0637
13172W        W30696  14.434   0.747   1.803  0.0031 -0.2350 -0.0018
13173W        W30697   5.079  13.618   5.843  0.0157  0.0249  0.2620
13174W        W30698   2.864  15.212  13.726  0.1181 -0.1668 -0.1412
13175W        W30699   5.420   5.770   2.223 -0.0189 -0.0330 -0.1938
13176W        W30700  10.886   4.195   0.317 -0.2442  0.0926 -0.1246
13177W        W30701  14.192  10.298   6.301 -0.0314 -0.2721 -0.2534
13178W        W30702   2.196   6.430  17.226 -0.4761  0.1110  0.0464
13179W        W30703  15.525  13.524  12.922  0.3641  0.3285 -0.1082
13180W        W30704   6.709   7.599   1.576 -0.1064 -0.2045  0.1246
13181W        W30705   6.182  12.181   5.144 -0.1701  0.1429  0.2589
13182W        W30706   5.063  13.087   0.910  0.0129 -0.1255  0.1139
13183W        W30707   4.877   1.220   2.933 -0.1546  0.1226 -0.1678
13184W        W30708  16.260  14.721   1.390  0.1256  0.3225  0.0846
13185W        W30709   2.194   5.063   0.441 -0.0298 -0.0206 -0.1158
13186W        W30710  12.496   8.216   0.715 -0.1221  0.0228  0.0124
13187W        W30711   2.095   1.603   0.526  0.2922  0.1810  0.4096
13188W        W30712  11.758  12.462  17.483  0.1526 -0.0843 -0.1403
13189W        W30713   5.398   4.487   1.467  0.0007 -0.1638 -0.3109
13190W        W30714   6.671   8.367  12.478 -0.2542  0.1094 -0.1616
13191W        W30715   3.411   0.197  14.783 -0.0421  0.0210 -0.0988
13192W        W30716  11.645  13.259  14.056  0.1105  0.0592  0.0746
13193W        W30717   6.899   2.399  15.986  0.2305 -0.3974  0.2335
13194W        W30718   2.435  10.298  12.953  0.0154  0.1214 -0.0885
13195W        W30719   4.710  17.212   0.241  0.1233  0.0395 -0.1093
13196W        W30720  13.668   7.947  16.273  0.2580  0.0856  0.0888
13197W        W30721   8.176   8.372   2.829  0.1478 -0.1436 -0.2826
13198W        W30722   7.312   9.831  15.343 -0.0338 -0.0737  0.3288
13199W        W30723  12.636  12.732  14.099  0.0882  0.1569  0.0220
13200W        W30724  15.237   9.003  12.383 -0.2524 -0.2272 -0.2065
13201W        W30725  13.845   6.873  13.016  0.2768 -0.1409 -0.5135
13202W        W30726   8.105   6.766   2.099  0.0089  0.2309 -0.0921
13203W        W30727   8.166   9.615  12.593  0.0284  0.1708  0.1305
13204W        W30728   4.819  12.863  14.449 -0.1404 -0.0704  0.1613
13205W        W30729   4.563  16.244  12.365 -0.2904 -0.3055  0.1371
13206W        W30730   6.223  11.797  13.183 -0.0933  0.1166  0.0462
13207W        W30731  10.502   6.169  13.873 -0.0911  0.0215  0.2599
13208W        W30732   1.305  12.395  14.896 -0.4337 -0.0657  0.0350
13209W        W30733  16.143   0.274  16.780 -0.0494  0.3023 -0.0298
13210W        W30734   6.519   8.334   3.145 -0.3951  0.2166  0.0645
13211W        W30735   3.654  12.336   3.757 -0.0031 -0.4259  0.0626
13212W        W30736   3.645   4.190  14.625 -0.0980 -0.0083 -0.1414
13213W        W30737  10.059   6.728  12.999 -0.0927  0.0253  0.0297
13214W        W30738   7.302   5.125   5.277 -0.0349 -0.3256  0.1227
13215W        W30739   2.885   8.146  14.813  0.0968  0.2061  0.3205
13216W        W30740  10.542   7.833  14.708  0.1560 -0.1187  0.1135
13217W        W30741   8.724  11.171  16.697  0.2214  0.0589  0.0133
13218W        W30742  14.088  14.759   2.420  0.0886  0.1206 -0.0689
13219W        W30743   2.478   4.955  16.290 -0.0334  0.0312 -0.0060
13220W        W30744  16.758   3.539  12.849  0.3627 -0.0367  0.2035
13221W        W30745   6.588   3.563  15.307 -0.4094  0.1573 -0.2105
13222W        W30746  11.645   3.964   2.217  0.1813 -0.0482  0.1387
13223W        W30747  16.024   1.527  13.766  0.1156  0.0736 -0.1631
13224W        W30748  16.309  13.208  14.976  0.2265  0.1477 -0.0379
13225W        W30749   4.992  14.355  13.604  0.0458  0.0590 -0.0478
13226W        W30750   5.240   3.402  17.217 -0.1749 -0.0557  0.2176
13227W        W30751   8.496  12.985  12.815  0.2010 -0.1614 -0.2276
13228W        W30752   8.338   4.305   4.558 -0.1461 -0.0288  0.2351
13229W        W30753   9.864  15.714   0.011  0.0471 -0.0075  0.1934
13230W        W30754   5.272  16.392  16.950 -0.2155  0.1207  0.1726
13231W        W30755  15.132  12.961   2.267 -0.2425  0.0844 -0.0982
13232W        W30756  12.788  14.960  12.297 -0.1444  0.0678 -0.0372
13233W        W30757   8.968  10.593   0.738 -0.0675 -0.0812 -0.0471
13234W        W30758  15.237  11.174   3.156 -0.2720 -0.0124  0.0187
13235W        W30759  13.968  12.276   3.265  0.0544  0.0052  0.0259
13236W        W30760  13.341   0.520  14.678 -0.1286 -0.0174 -0.2418
13237W        W30761   9.098   3.128   4.584  0.1389  0.2805  0.0659
13238W        W30762   9.109   3.981   5.462 -0.2912 -0.1954 -0.0706
13239W        W30763  12.306   3.106  12.583  0.2004 -0.0512 -0.0696
13240W        W30764  13.434   1.834  15.128 -0.0569  0.1282  0.0454
13241W        W30765  11.045  14.024   3.995  0.0684 -0.0523 -0.2215
13242W        W30766  16.340   5.708   3.859  0.2016  0.1988  0.0156
13243W        W30767   6.567   9.113  13.796  0.0866  0.1204 -0.0209
13244W        W30768  10.906   8.397   1.565 -0.1121  0.0345 -0.0807
13245W        W30769   8.804  12.195  14.224 -0.0393 -0.0846  0.4191
13246W        W30770   9.929   9.679   5.289 -0.3586 -0.0816 -0.1531
13247W        W30771  10.151   5.323   5.792  0.1501 -0.2149 -0.0069
13248W        W30772  13.448  10.995  15.507 -0.0466  0.3046 -0.1454
13249W        W30773  12.004   2.203   1.182 -0.2035  0.3571  0.1444
13250W        W30774   4.130   0.819  16.691 -0.1411  0.0716 -0.2748
13251W        W30775   7.110  10.216   4.540 -0.0243 -0.1085  0.0170
13252W        W30776   2.346   7.122  15.587 -0.0037 -0.1529  0.1202
13253W        W30777   3.437   2.410  13.742  0.2971 -0.0439  0.0018
13254W        W30778  15.658   9.691  12.851 -0.1997  0.0931  0.0233
13255W        W30779  11.830   3.722  12.346  0.0276 -0.3510  0.1058
13256W        W30780  12.082   7.034   5.411 -0.0239  0.0904  0.1033
13257W        W30781   6.537   7.720   5.402  0.2968 -0.1006 -0.0000
13258W        W30782   8.752   3.439  14.421  0.0014 -0.2508  0.1871
13259W        W30783   0.678  12.022   1.687  0.0656  0.0146 -0.0057
13260W        W30784   5.323   2.674   5.023  0.2731 -0.0134 -0.3889
13261W        W30785   1.305  12.330   3.880  0.0187 -0.0287 -0.1939
13262W        W30786  10.731  14.725   0.739 -0.3068 -0.1971  0.0583
13263W        W30787  11.647   9.183  13.165 -0.0898 -0.1741  0.1472
13264W        W30788   3.978   1.294   2.295 -0.0352 -0.0742  0.2209
13265W        W30789   9.038  12.474  15.097  0.0947  0.3009 -0.1604
13266W        W30790  14.235   5.951   2.628 -0.3222  0.2119 -0.1132
13267W        W30791   7.225  15.226   2.930  0.0404  0.2108 -0.1494
13268W        W30792  11.634  12.914   5.335 -0.1097 -0.2364 -0.0395
13269W        W30793  10.418  11.341  13.811  0.2042  0.4335 -0.0280
13270W        W30794   1.856   6.088  12.013 -0.1743 -0.2067 -0.2404
13271W        W30795   0.948  15.306   6.268 -0.0534 -0.1618 -0.2042
13272W        W30796   5.751   1.556   3.016 -0.1442  0.0325  0.0467
13273W        W30797   2.496   9.102  13.880  0.1799 -0.0529 -0.2566
13274W        W30798   4.826  12.234  16.331  0.0793  0.0501  0.1390
13275W        W30799  16.185   5.291   0.196 -0.0181  0.1187  0.0225
13276W        W30800  15.991   0.343  12.617 -0.0175 -0.0564 -0.0398
13277W        W30801   5.486   8.689   2.114 -0.2067 -0.3583  0.0177
13278W        W30802   4.060   4.122  14.904  0.0323 -0.3692 -0.3100
13279W        W30803   4.025   2.741  15.009  0.2192 -0.1066 -0.0618
13280W        W30804   9.819  14.014  15.231  0.2464 -0.2097  0.2108
13281W        W30805   4.755  13.037   3.422  0.1310  0.1564 -0.0611
13282W        W30806   8.238   2.311   4.803 -0.0320  0.2120  0.0363
13283W        W30807  11.728   6.566  15.917  0.0453 -0.1726 -0.1487
13284W        W30808  13.946  16.588  14.706  0.3301  0.0201 -0.1280
13285W        W30809   9.350   3.748  12.365 -0.0626 -0.0153 -0.1123
13286W        W30810   5.094  13.541   5.313 -0.1494  0.1725 -0.2436
13287W        W30811   7.789   7.786   5.572  0.0330 -0.1075 -0.2035
13288W        W30812  11.654  15.736   2.976 -0.0225  0.1099  0.3239
13289W        W30813  10.404   1.697   6.844  0.1344 -0.0147  0.1667
13290W        W30814   6.389   0.273  16.218 -0.1072  0.0005 -0.0317
13291W        W30815   8.307  13.651   5.179  0.0571 -0.0864  0.1216
13292W        W30816   3.385   8.676  16.763 -0.1172 -0.1786 -0.0200
13293W        W30817   1.685  16.979  16.278 -0.2965  0.2594  0.0109
13294W        W30818   2.585  15.930  14.983  0.1311  0.4739  0.4164
13295W        W30819  13.491  10.523   2.103 -0.1461  0.1108 -0.1567
13296W        W30820  16.168  15.624   0.275  0.0252  0.2389  0.0764
13297W        W30821   3.327   9.453   2.561  0.1365 -0.1441  0.1213
13298W        W30822  11.688   0.559   1.210 -0.1647  0.0118  0.1679
13299W        W30823   4.409   1.807  13.352 -0.0159 -0.0312  0.2142
13300W        W30824  15.449  12.893   3.601  0.2489 -0.0997 -0.0247
13301W        W30825   1.478  12.141  15.931 -0.2829  0.0050  0.2872
13302W        W30826  13.379  11.521  17.350  0.2234 -0.1416  0.0726
13303W        W30827   1.259  10.369   0.290  0.1204 -0.0011  0.0723
13304W        W30828  13.997   2.936   0.111 -0.0931  0.0766 -0.3030
13305W        W30829   7.786   9.931  15.269 -0.1616 -0.0618  0.0905
13306W        W30830   6.191  13.132  12.873 -0.0642  0.0776 -0.3398
13307W        W30831  15.832   5.301  12.671 -0.2914 -0.0363  0.0050
13308W        W30832   7.027  15.370  14.750 -0.2358 -0.1809 -0.0532
13309W        W30833   3.701   7.708   0.045  0.2544 -0.1270 -0.0587
13310W        W30834   3.770   6.396   4.450  0.1328 -0.3339  0.0186
13311W        W30835  11.635   9.677  12.935 -0.0010  0.3001  0.0797
13312W        W30836  15.947  13.984  14.825  0.1611 -0.0494  0.2044
13313W        W30837  16.554   3.044  16.926 -0.3420 -0.4622 -0.2155
13314W        W30838   5.935  14.135  16.312 -0.0737 -0.1186 -0.4455
13315W        W30839   5.836   7.138  13.135  0.2115 -0.1239 -0.0262
13316W        W30840  16.045  14.516  16.716 -0.2278  0.1237 -0.0739
13317W        W30841  16.312   6.554  13.935 -0.4530  0.0419  0.1352
13318W        W30842  11.148   5.471  14.967 -0.1571 -0.2835  0.0252
13319W        W30843  13.894   7.401  14.059 -0.2039  0.0763  0.0255
13320W        W30844  14.221   6.411  14.514  0.0855 -0.1931  0.1202
13321W        W30845   3.187  11.902  12.656 -0.1527  0.1233  0.0597
13322W        W30846  16.306  16.025  16.961  0.0225  0.0366 -0.1886
13323W        W30847  14.558   8.828   1.366  0.3129 -0.3570  0.1426
13324W        W30848   0.286  16.306  14.756  0.1083 -0.0297 -0.0135
13325W        W30849  17.091  12.687   0.090 -0.1356 -0.1480  0.2405
13326W        W30850  13.955  13.469  13.812 -0.0471 -0.1300 -0.0296
13327W        W30851  12.680   9.098   2.554 -0.1157  0.1557  0.2515
13328W        W30852  10.307  16.364  14.368 -0.1947 -0.2842 -0.2682
13329W        W30853   1.999  16.234   2.871  0.0949 -0.2938  0.0486
13330W        W30854  10.169   2.931  16.264  0.1889  0.2837 -0.1365
13331W        W30855   5.846   2.432  12.443 -0.3574  0.0787 -0.2703
13332W        W30856   9.007  15.737  13.130 -0.1449 -0.0252  0.0434
13333W        W30857  11.194  15.338  12.652  0.0525  0.1816  0.0426
13334W        W30858   6.849  10.291   2.524  0.4014  0.0641  0.2126
13335W        W30859  16.625  12.083   2.135 -0.1075 -0.1968 -0.1786
13336W        W30860  13.541   4.352  17.093 -0.0419  0.0445 -0.4638
13337W        W30861   5.115   3.068  15.735 -0.0161 -0.1935 -0.0596
13338W        W30862   5.848  12.488  14.405  0.0825 -0.2211  0.0997
13339W        W30863  14.273  13.593  16.156 -0.0737 -0.0532 -0.0684
13340W        W30864   5.171  14.676  12.564  0.0654 -0.0460  0.2838
13341W        W30865   1.905  16.803  12.768 -0.2523  0.1991 -0.2458
13342W        W30866   6.078   9.218   3.278 -0.2229  0.0755  0.0415
13343W        W30867  10.789   1.751   0.835 -0.0361 -0.0953  0.0772
13344W        W30868   2.132  13.096  17.013  0.0814 -0.2057 -0.1665
13345W        W30869  10.716   0.493   4.547 -0.0230  0.3821  0.1544
13346W        W30870  15.578   5.856  16.565 -0.2850 -0.2039 -0.0779
13347W        W30871   2.890   9.729  17.657 -0.0299 -0.0094  0.0495
13348W        W30872   9.923   2.462  15.203  0.0323 -0.1452  0.0836
13349W        W30873   1.249  12.565   2.069 -0.0129  0.0472  0.0852
13350W        W30874  13.101  10.546   2.574  0.0276 -0.0452  0.0019
13351W        W30875   2.739  15.712   4.043  0.0651  0.0026 -0.0979
13352W        W30876   0.786  15.215   2.242  0.0022 -0.1128 -0.2876
13353W        W30877   2.617   3.484   5.480  0.0196  0.0804  0.1293
13354W        W30878   6.876  14.913   1.850 -0.4673 -0.0255  0.4166
13355W        W30879  11.990  11.460   0.638 -0.0262 -0.0177  0.0176
13356W        W30880   6.659  12.574  14.228  0.3351  0.3722 -0.0886
13357W        W30881   8.877  10.353  16.979  0.0009  0.1706  0.0181
13358W        W30882  12.868  13.051  12.973 -0.0228 -0.2589  0.0848
13359W        W30883  15.573   4.301  15.751 -0.2425  0.0090 -0.1008
13360W        W30884   4.061   7.925  15.351  0.2504 -0.2275  0.0887
13361W        W30885   1.545   0.080   4.653 -0.1988  0.1118  0.0485
13362W        W30886   8.530   2.544  14.262  0.0551 -0.1741  0.0547
13363W        W30887   1.922  14.735  17.412  0.0383 -0.1425 -0.2794
13364W        W30888  15.377  14.786  12.087 -0.0218 -0.3096 -0.1587
13365W        W30889   5.731  11.922  14.120 -0.0948  0.0148 -0.0396
13366W        W30890  14.983  14.796   0.694  0.2621 -0.1544 -0.1210
13367W        W30891   2.116   0.209  12.803  0.1203 -0.1415 -0.0193
13368W        W30892  16.483   8.252  11.729 -0.5075 -0.1161  0.0173
13369W        W30893   5.750  10.578   1.315  0.0281 -0.0566  0.3131
13370W        W30894   3.548   2.311   0.353 -0.1111  0.0068 -0.1883
13371W        W30895  17.149   7.103  14.802 -0.3000 -0.1643 -0.2321
13372W        W30896  11.111  13.866  12.744  0.2460 -0.0111 -0.0441
13373W        W30897  11.151  14.671  16.173 -0.0171 -0.2376 -0.0451
13374W        W30898  13.151  13.233   3.187  0.4295 -0.0947  0.1398
13375W        W30899  13.407  13.141  12.856  0.1338  0.0037 -0.1284
13376W        W30900   6.984  10.014  13.171  0.0647 -0.0547  0.2564
13377W        W30901   5.129   3.165   4.901  0.1450  0.1410 -0.1103
13378W        W30902  10.611   0.201  16.775  0.0179 -0.0886 -0.2000
13379W        W30903  14.705   1.186  13.431 -0.0896 -0.1016  0.1376
13380W        W30904  10.835   5.063   0.122  0.1237 -0.3848 -0.2345
13381W        W30905  11.332  17.096  12.575  0.1183  0.1168  0.0539
13382W        W30906  17.199  10.597  13.419  0.2224  0.0223  0.0837
13383W        W30907  11.029   7.961  13.597 -0.1591  0.0145  0.0695
13384W        W30908   9.438   4.970   2.470 -0.2195 -0.1625 -0.1801
13385W        W30909  10.938  15.168   3.707 -0.4065 -0.0801 -0.1008
13386W        W30910   4.625  10.063  14.937  0.0542 -0.2761 -0.2223
13387W        W30911   9.953   1.818   1.000  0.1568 -0.0450  0.0819
13388W        W30912  12.994   5.599  17.338 -0.0354  0.0937 -0.0399
13389W        W30913   0.528  10.150   2.829 -0.1166 -0.0456  0.1275
13390W        W30914   3.827  12.318  13.919 -0.3432 -0.1635 -0.1803
13391W        W30915  12.070  11.894  13.733 -0.0448 -0.0103 -0.0768
13392W        W30916  12.363   1.428   2.469  0.0807 -0.1272  0.0210
13393W        W30917  11.015   7.262   2.749  0.1357 -0.1283  0.2546
13394W        W30918  15.729   8.358  14.507  0.3488  0.2002 -0.1903
13395W        W30919  13.470   8.006   2.103  0.1461  0.0133  0.2378
13396W        W30920  14.693   0.335  15.679  0.0025 -0.0875  0.3884
13397W        W30921   0.629   3.559   5.624  0.1356  0.2775  0.0482
13398W        W30922  13.795   9.883  14.988 -0.1156  0.1160  0.2100
13399W        W30923   4.808   4.221   2.707 -0.1476 -0.0100 -0.2379
13400W        W30924  15.868   2.357  17.388  0.1680 -0.2192 -0.2707
13401W        W30925  15.067   1.717  17.305  0.0624 -0.2424  0.2588
13402W        W30926   1.463  14.328  15.223  0.2177 -0.3638  0.1556
13403W        W30927   6.363  14.831   0.846  0.3714  0.1992 -0.3166
13404W        W30928  14.808   3.407   5.146  0.1195  0.1755 -0.0692
13405W        W30929  10.281  12.765  15.844 -0.0037 -0.0961  0.1271
13406W        W30930   3.625  14.178   1.901 -0.1322  0.0527  0.0407
13407W        W30931   8.112  16.251   2.049  0.0732 -0.0512 -0.2487
13408W        W30932  12.117   1.993  15.000 -0.3117 -0.3738  0.0047
13409W        W30933   6.036   6.772   4.584  0.1284 -0.0036  0.0013
13410W        W30934   2.593   8.603   4.522 -0.1254 -0.0026  0.0297
13411W        W30935   6.250   1.419   0.385 -0.0543  0.1536 -0.0092
13412W        W30936   2.058  15.414   4.995 -0.0210  0.2381  0.0294
13413W        W30937   4.250  13.444  13.392  0.1806 -0.0535 -0.0435
13414W        W30938   3.628   5.892   5.124 -0.0294  0.2468  0.1885
13415W        W30939  13.015   5.853   2.251  0.2128  0.4172  0.1017
13416W        W30940   2.368  12.481  17.219  0.3605 -0.0880  0.1172
13417W        W30941   1.323  16.076   4.516  0.1348 -0.0120  0.0775
13418W        W30942   1.598  12.173   0.043 -0.0869 -0.4812 -0.1172
13419W        W30943  16.959   6.661  11.904  0.2647 -0.4793  0.0756
13420W        W30944   0.704  14.804   4.807  0.0919 -0.0984 -0.3291
13421W        W30945   2.581   5.989   1.718 -0.0991 -0.3388 -0.1037
13422W        W30946  11.600   8.106   4.204 -0.3765  0.1674  0.0477
13423W        W30947   7.818  12.307   1.788  0.0538 -0.0127 -0.0636
13424W        W30948  13.052  12.251  17.654  0.0885  0.0640 -0.0563
13425W        W30949  13.884   0.017  15.380 -0.1167 -0.0643  0.0590
13426W        W30950  11.361  16.815   4.265 -0.2612  0.2213  0.0349
13427W        W30951   0.960   3.402  14.702 -0.0074 -0.0122 -0.2398
13428W        W30952  12.264   3.574   2.043  0.2450 -0.0082  0.2782
13429W        W30953  11.458  10.971   1.537 -0.2624 -0.0445  0.0029
13430W        W30954  13.955  16.362  13.016  0.3258  0.1030  0.4420
13431W        W30955   7.303   7.560   0.077  0.1197 -0.2798  0.2035
13432W        W30956  14.864   6.780  17.510 -0.1547 -0.1812 -0.0856
13433W        W30957  13.560   9.266   0.342  0.2221 -0.0020 -0.1520
13434W        W30958  12.792   8.399   1.069 -0.0833 -0.0241 -0.1703
13435W        W30959  15.534   1.699   3.059  0.0852  0.2347 -0.2433
13436W        W30960  16.507  14.099   3.350  0.0868  0.0140  0.0460
13437W        W30961  12.334  14.814   2.474  0.0686  0.3593  0.2621
13438W        W30962   9.271   8.651   5.057  0.0166  0.0605  0.3627
13439W        W30963   3.382   7.708   3.055 -0.0021 -0.0812  0.1408
13440W        W30964   8.822  16.892  15.152 -0.1888  0.0433  0.2742
13441W        W30965  11.299  12.946  13.393 -0.2257 -0.0250 -0.0100
13442W        W30966  14.006   2.286   1.763 -0.3456  0.0243  0.0166
13443W        W30967   4.174   3.268   1.059 -0.1804  0.2060 -0.0812
13444W        W30968   4.143   3.549   3.339  0.1993  0.2334 -0.1040
13445W        W30969  13.705  14.316   1.518  0.1535 -0.0862 -0.0448
13446W        W30970   1.777   7.499   1.015 -0.3575  0.2225  0.1168
13447W        W30971   8.394   1.422   2.465 -0.0850 -0.0358 -0.1002
13448W        W30972  10.840  13.990   5.196 -0.0489 -0.0243  0.0063
13449W        W30973  15.212  11.472   4.076 -0.0431 -0.0044 -0.0782
13450W        W30974   4.604  13.718  14.166  0.2986  0.0640 -0.1974
13451W        W30975   5.698   9.160  15.962 -0.1336 -0.0534  0.1301
13452W        W30976   5.381   0.067   5.505 -0.0609 -0.1219  0.2889
13453W        W30977  17.097  14.588  17.646  0.1685 -0.1588 -0.2052
13454W        W30978  16.925   4.295  14.426 -0.1558 -0.0568  0.1956
13455W        W30979  16.256  13.937   2.755 -0.2789  0.1339  0.0772
13456W        W30980   0.609  15.186  14.361  0.0512  0.1042 -0.1601
13457W        W30981  16.461  13.000   0.655  0.2664 -0.0222 -0.0846
13458W        W30982   6.151   2.168  14.126  0.1498  0.0216  0.3371
13459W        W30983   8.199   6.645   0.657 -0.3102 -0.1268  0.0166
13460W        W30984   4.583   2.075  14.363  0.0624 -0.0233  0.3338
13461W        W30985   2.398  11.446   2.905  0.1000 -0.1712  0.1449
13462W        W30986   2.458   2.650  15.370  0.1613 -0.0433 -0.1303
13463W        W30987  14.263   4.263   0.771  0.0339 -0.1432 -0.2536
13464W        W30988   9.508   1.820  16.243  0.1738 -0.1888 -0.2167
13465W        W30989   7.101   3.831  17.247  0.3389 -0.0955  0.0799
13466W        W30990   3.207   1.915   1.318 -0.3191 -0.1934 -0.1321
13467W        W30991  13.351  11.410   0.876 -0.0120  0.1721  0.3803
13468W        W30992   0.698  12.324   0.665 -0.0208  0.1177 -0.0510
13469W        W30993  10.656  17.090   4.683 -0.2344 -0.2422 -0.1254
13470W        W30994  16.427  15.712  12.738 -0.0307  0.3441 -0.2394
13471W        W30995   0.234   7.842   0.979  0.0288 -0.3151  0.0226
13472W        W30996  15.634  17.072   4.408 -0.0399  0.0445  0.2018
13473W        W30997   4.150   8.991   3.349 -0.0167 -0.0422  0.1029
13474W        W30998   1.228  14.529  12.930 -0.2034 -0.0146  0.0132
13475W        W30999   8.991   1.729   4.936 -0.0069 -0.0760 -0.1654
13476W        W31000   3.812   8.780  13.883  0.0160  0.1952  0.0079
13477W        W31001   0.334   9.600  15.540 -0.0982 -0.2320  0.0010
13478W        W31002  15.651   6.829   1.374 -0.0066  0.4351 -0.1342
13479W        W31003  16.080   4.551  16.074 -0.4581  0.2208  0.0751
13480W        W31004  13.742   1.955  14.716 -0.0479  0.1035 -0.0410
13481W        W31005   7.340  11.964   3.185 -0.0436 -0.2373 -0.1717
13482W        W31006   5.518   0.927   3.479  0.1036  0.3254  0.0517
13483W        W31007  16.086   7.286  11.716 -0.1076 -0.2568 -0.0893
13484W        W31008  13.067  12.508  14.300  0.0990 -0.2160  0.0823
13485W        W31009   1.639  11.603  15.223 -0.0585 -0.0484  0.3257
13486W        W31010  17.198   0.394   4.582 -0.1934 -0.0734  0.0671
13487W        W31011   5.808   3.713   1.163 -0.1938 -0.1072 -0.0248
13488W        W31012   8.912  13.845   5.052  0.2297 -0.3283  0.0849
13489W        W31013   4.282  12.464   4.969  0.2062  0.0619  0.1260
13490W        W31014   9.622   7.097  15.581  0.0601 -0.2208  0.1418
13491W        W31015   4.848   9.857   0.571 -0.2676 -0.0233  0.2475
13492W        W31016  11.944  12.896  17.245  0.0785  0.2074 -0.1653
13493W        W31017   2.590  10.447  16.069  0.0237  0.1449  0.0610
13494W        W31018  11.786   3.131   1.501 -0.1234 -0.2750  0.0653
13495W        W31019   9.702  13.195   1.801  0.1060  0.1734 -0.4628
13496W        W31020   4.145  13.242   4.315 -0.1263  0.1394 -0.1498
13497W        W31021   1.305   3.049  17.469  0.3938  0.0197  0.2973
13498W        W31022  13.049   7.842   3.628 -0.0220 -0.0246 -0.4307
13499W        W31023   0.560   8.645  15.582  0.0490  0.1490 -0.0564
13500W        W31024   8.815  15.789   1.067 -0.0961 -0.0950  0.1819
13501W        W31025  11.224   3.657   3.474  0.1492 -0.0510 -0.2292
13502W        W31026   8.113   2.081   1.465  0.1400  0.1471 -0.2147
13503W        W31027  14.647   7.270   3.441 -0.1616  0.3040  0.2048
13504W        W31028  10.577   1.133   2.647 -0.0307 -0.1895 -0.0534
13505W        W31029   2.875   1.508  15.153 -0.0113  0.1778 -0.3863
13506W        W31030  13.736   2.751  13.598  0.1303  0.0747  0.2060
13507W        W31031  12.693   8.290  16.430 -0.2332 -0.1255  0.2149
13508W        W31032  16.670   5.799   3.534 -0.0941 -0.0604 -0.1334
13509W        W31033   6.634  11.315  14.759 -0.4475 -0.0974 -0.0225
13510W        W31034   0.270   1.322  12.600  0.1574  0.2203  0.1796
13511W        W31035   6.699  10.383  14.191 -0.0493 -0.0378  0.0666
13512W        W31036   4.440   3.517  16.281  0.0750 -0.0970  0.2672
13513W        W31037   3.734  11.093   1.652  0.1013  0.0465 -0.3843
13514W        W31038   0.223  12.365   0.817 -0.0481  0.1281 -0.3394
13515W        W31039   0.352  16.111  17.114  0.1769 -0.1607  0.0448
13516W        W31040  13.584  14.356  12.341  0.0119  0.2365 -0.0080
13517W        W31041   8.768   6.880  15.777 -0.1579 -0.0595 -0.1428
13518W        W31042  12.751   7.575  11.892  0.0291 -0.2486  0.5875
13519W        W31043   3.733  12.799   3.516 -0.0532 -0.1631 -0.0472
13520W        W31044   6.099   6.295   4.818  0.2010 -0.3731  0.3676
13521W        W31045  12.226   7.853  12.956 -0.0444 -0.3840 -0.0159
13522W        W31046   2.819   3.518  12.763  0.1685  0.0215  0.1061
13523W        W31047  12.531  15.551  16.960  0.0315 -0.2240 -0.0457
13524W        W31048   3.683   2.814   0.434  0.1870  0.2009 -0.3665
13525W        W31049   3.403   4.698  13.976 -0.1354 -0.1225 -0.3196
13526W        W31050  15.230   9.930   5.388 -0.2548  0.0882 -0.1862
13527W        W31051   6.278   1.203  15.924  0.2039  0.2333  0.1870
13528W        W31052  12.723   9.632   3.524  0.3279 -0.0932  0.2450
13529W        W31053   2.440  10.811   0.791  0.2075  0.0015 -0.1247
13530W        W31054   8.693  11.676  14.216 -0.1380  0.1742 -0.0721
13531W        W31055   1.670   0.973   5.070  0.1758  0.2135 -0.2075
13532W        W31056   2.685   3.873  11.513  0.0735  0.0950 -0.0611
13533W        W31057  14.424  11.380  13.748 -0.2014  0.1620 -0.1458
13534W        W31058   3.717   0.824   2.800 -0.0832 -0.0504 -0.0540
13535W        W31059  13.812  11.570   1.064 -0.1126  0.2486 -0.1644
13536W        W31060  12.334   9.201  11.674  0.0276 -0.4513 -0.1077
13537W        W31061   2.489  11.177  15.495  0.1184  0.0291  0.2859
13538W        W31062   7.548   0.358  13.855 -0.0756  0.1876 -0.1727
13539W        W31063  11.344  14.614   4.638  0.0380  0.1292  0.2018
13540W        W31064  12.620   7.810   4.987  0.1012 -0.2049  0.0564
13541W        W31065   5.886   0.398  16.386  0.2067  0.0356  0.0543
13542W        W31066   3.524  16.673  17.420  0.2072 -0.0688  0.1078
13543W        W31067   5.468  13.753  14.553 -0.2027 -0.0399  0.1358
13544W        W31068   3.853   1.006   3.289 -0.1530  0.1701 -0.1539
13545W        W31069  10.000  13.175  16.554  0.1333 -0.1540  0.4274
13546W        W31070  12.931   0.157   3.545 -0.0076 -0.4954  0.1174
13547W        W31071   8.251  14.733  17.087  0.1575 -0.1314 -0.2586
13548W        W31072   1.530  10.910  17.455 -0.0148 -0.0318  0.3526
13549W        W31073   2.848   3.491  14.777  0.1346  0.0761  0.1998
13550W        W31074   1.169   9.060   4.340 -0.0385 -0.2008  0.4621
13551W        W31075   6.529  13.751   2.625  0.4059  0.4510  0.1228
13552W        W31076   4.387  12.797  12.574  0.1852  0.1184  0.1115
13553W        W31077   3.835  17.134  14.746  0.0328  0.2541 -0.4734
13554W        W31078   5.830   0.906  13.948 -0.1346  0.0473  0.2322
13555W        W31079  15.197   5.432   1.617 -0.1374  0.0577 -0.3021
13556W        W31080  11.697   4.768  13.135 -0.0108 -0.0520  0.3682
13557W        W31081  13.740   8.837   0.167 -0.0421  0.0432 -0.0844
13558W        W31082   4.039  14.857  12.091 -0.1092  0.1716  0.0886
13559W        W31083  12.717  13.652   4.828  0.1073  0.1318 -0.3809
13560W        W31084  10.924  14.778   2.983 -0.0791 -0.1030 -0.1768
13561W        W31085   5.543  11.564  17.241  0.0166 -0.0926 -0.2567
13562W        W31086   1.995   9.899  13.832  0.0505  0.2221  0.0233
13563W        W31087   5.107  13.931  16.553  0.1574 -0.1522 -0.2110
13564W        W31088  14.712  10.353   4.450  0.2917 -0.1044  0.0827
13565W        W31089  14.099   8.303  15.106  0.2022  0.0651 -0.1227
13566W        W31090   4.188  13.349  11.989  0.0605  0.2546 -0.1115
13567W        W31091  14.631   8.417  13.473  0.0328  0.0698 -0.2572
13568W        W31092   2.750   2.454   4.634 -0.0283 -0.2076  0.1264
13569W        W31093  13.003  13.237   0.622  0.2031 -0.2311  0.0957
13570W        W31094   6.548   5.727   3.091  0.2959 -0.2644  0.1918
13571W        W31095  10.242  14.657  14.074 -0.0514 -0.2935  0.0219
13572W        W31096   0.748   8.669  13.930 -0.2478  0.2258  0.0998
13573W        W31097  11.663   9.926   4.877 -0.2244  0.4162  0.1181
13574W        W31098  13.491  12.315   0.621 -0.0258  0.3539 -0.0403
13575W        W31099   9.998   3.964   1.547 -0.0850 -0.1170 -0.0783
13576W        W31100  10.208   7.137   1.108  0.1547 -0.4140 -0.1297
13577W        W31101  11.188  10.414   3.114 -0.0010  0.3118  0.0134
13578W        W31102  13.024   4.177   4.621 -0.1405 -0.3047 -0.0176
13579W        W31103  10.406   0.172  17.428 -0.0170 -0.0802 -0.0806
13580W        W31104  10.151  16.944   1.443 -0.0645 -0.0396 -0.0172
13581W        W31105   9.152   9.973   0.827  0.2398  0.1093  0.4695
13582W        W31106   2.824  12.399  11.342 -0.3511 -0.3110  0.0155
13583W        W31107  10.860   8.395   5.183 -0.2126  0.0166 -0.1054
13584W        W31108  14.793   8.850   0.454 -0.0764  0.0381 -0.1723
13585W        W31109   3.183   2.583   4.418  0.0534 -0.1145  0.0405
13586W        W31110   7.534   3.975  14.021  0.1585  0.3601 -0.0910
13587W        W31111  15.571   3.564  16.600  0.2764 -0.0889  0.2308
13588W        W31112  16.613   0.664   2.293 -0.1027 -0.3660 -0.1550
13589W        W31113   9.303   1.285  15.460  0.0724 -0.2412 -0.0607
13590W        W31114   5.290   0.850  15.999  0.0371  0.1992 -0.1642
13591W        W31115  14.446  16.344  16.031 -0.0200  0.1177  0.0342
13592W        W31116  10.449   0.109   2.529  0.1524  0.1253  0.3117
13593W        W31117  16.462  13.591   3.256  0.4252  0.3365  0.1615
13594W        W31118   4.016  11.365   3.091  0.1269 -0.0284  0.2796
13595W        W31119   6.725   6.301   5.516 -0.1452 -0.0596  0.1560
13596W        W31120  10.094   8.878   0.318 -0.0485  0.0507 -0.0889
13597W        W31121  16.361   4.723   0.876  0.1671  0.1111 -0.1884
13598W        W31122   5.301   5.880  16.552  0.2726 -0.0038 -0.1400
13599W        W31123  11.958   8.106   1.242 -0.0460 -0.1427  0.2821
13600W        W31124   0.114  15.357  15.752  0.0600 -0.0111 -0.0439
13601W        W31125   4.993   0.579   4.400 -0.0110  0.3528 -0.0852
13602W        W31126   6.741  11.635   0.999 -0.2216 -0.0757  0.1765
13603W        W31127  15.824  11.756  13.992 -0.2446  0.3795  0.0154
13604W        W31128  10.571  10.797   4.627 -0.2700 -0.0849  0.1665
13605W        W31129  15.618  13.101   0.991 -0.1119 -0.0711  0.1476
13606W        W31130  10.100  15.868  14.505 -0.2704 -0.2008 -0.0884
13607W        W31131   8.406   7.077  16.968  0.1440 -0.1502 -0.1130
13608W        W31132   0.947  16.490   2.787  0.1049  0.2580  0.0384
13609W        W31133  17.184  13.349   2.190 -0.1831 -0.0993 -0.0587
13610W        W31134  10.149  11.447  12.896  0.1355 -0.0514 -0.2582
13611W        W31135   9.676   0.973  16.784 -0.0417 -0.1124  0.0301
13612W        W31136   4.180  16.743  13.204  0.0352 -0.0625 -0.3504
13613W        W31137  16.123   9.417  12.842 -0.0245  0.0110  0.2679
13614W        W31138   4.452  11.111   0.421 -0.2576  0.2166 -0.0620
13615W        W31139  13.587   2.426   3.174  0.2845  0.2670 -0.1977
13616W        W31140   6.258   6.482  16.641  0.2447 -0.1294 -0.2395
13617W        W31141  15.457   2.432   4.334  0.0466  0.0716  0.0518
13618W        W31142   7.587   9.067  14.110 -0.1157  0.1465 -0.1302
13619W        W31143  15.167  13.985   5.771  0.0654  0.0896 -0.2220
13620W        W31144   5.134   3.414  14.860 -0.3791 -0.0673 -0.2553
13621W        W31145   5.572   2.454   3.251 -0.0150 -0.0360 -0.1046
13622W        W31146  14.994   1.390   1.200  0.1388 -0.0709 -0.1626
13623W        W31147   7.042   7.120   0.270  0.1606 -0.1768  0.0085
13624W        W31148   6.716  12.192   5.097 -0.0183  0.0445  0.1056
13625W        W31149   5.543   8.856  17.642 -0.1587 -0.0545  0.0133
13626W        W31150  15.067   5.936   4.282  0.3134 -0.3670 -0.2748
13627W        W31151   1.994  11.460   3.384  0.2905 -0.0752  0.2386
13628W        W31152   1.259   5.622  13.959  0.1936  0.0372  0.0502
13629W        W31153   0.067   5.711   1.226  0.0099 -0.1171 -0.1184
13630W        W31154   6.140   9.250   2.109  0.1903 -0.2369  0.0935
13631W        W31155   2.866   3.663  12.165 -0.1660  0.1724  0.0124
13632W        W31156   8.338   1.302   1.941 -0.0136 -0.0137  0.2543
13633W        W31157   7.062  15.669  16.601  0.3156 -0.2249 -0.0489
13634W        W31158  16.726  13.899   2.875  0.1021  0.0062  0.0293
13635W        W31159  12.744  13.817  16.006 -0.2566  0.0274 -0.0743
13636W        W31160  10.261   8.021  16.472 -0.1163  0.0025  0.0974
13637W        W31161   4.280  11.773   3.321  0.0172  0.0004  0.1799
13638W        W31162   6.890   1.578  14.092  0.1070 -0.2136  0.3959
13639W        W31163   2.341   8.494   5.582  0.2388  0.0939  0.3205
13640W        W31164   1.945  12.756   2.391  0.2179 -0.0119  0.1694
13641W        W31165   1.783  15.246  16.118  0.2011  0.0166  0.1560
13642W        W31166   7.104  10.340  12.579 -0.1435  0.0538 -0.2393
13643W        W31167   9.077   9.143   1.281 -0.0445  0.1622 -0.2509
13644W        W31168  16.371  13.993   3.859  0.0385  0.0646 -0.0468
13645W        W31169   1.731   4.733   5.134  0.0480  0.3913  0.0097
13646W        W31170   4.105   5.941   3.226 -0.0728 -0.1294 -0.2086
13647W        W31171   5.957   7.736  11.793 -0.1763 -0.0413 -0.0781
13648W        W31172   8.918   1.907  13.935  0.1494  0.1107  0.3714
13649W        W31173  16.412  10.536  16.997  0.0226  0.1617  0.0560
13650W        W31174   1.910   0.453  12.423  0.0996 -0.2117 -0.1313
13651W        W31175   2.993  11.547  14.669 -0.3953  0.0898 -0.0207
13652W        W31176   2.546  14.996   2.309  0.0728  0.1080 -0.1028
13653W        W31177   0.730   9.770   4.133  0.0715  0.0556 -0.0048
13654W        W31178   0.968  13.851  12.228  0.0433  0.1308  0.1202
13655W        W31179   6.437   9.452   0.739 -0.1998 -0.0243 -0.1171
13656W        W31180   6.268   1.879   5.531  0.0623 -0.4001  0.2184
13657W        W31181  15.714   3.234  15.811 -0.3239  0.0944 -0.3502
13658W        W31182  13.768  14.294  13.496  0.0451 -0.0973  0.1508
13659W        W31183   7.483   6.867  12.615 -0.0980 -0.2138 -0.1974
13660W        W31184   6.275   7.064   6.287  0.1366  0.1320 -0.1811
13661W        W31185   1.151  11.486  15.430 -0.0685 -0.1405 -0.0925
13662W        W31186   4.893  15.941  16.948 -0.0723  0.1921  0.0505
13663W        W31187   0.512   8.814   0.234 -0.1824  0.1269  0.0846
13664W        W31188   3.270   8.081  14.543  0.0172  0.0675  0.1553
13665W        W31189  14.726   3.073  11.156 -0.1664  0.1230  0.0096
13666W        W31190   9.164   7.450  13.398 -0.1304 -0.5706 -0.0805
13667W        W31191  10.540  12.092  12.673  0.0597 -0.0036  0.1965
13668W        W31192   5.829  16.295   0.485  0.0517  0.2184  0.1851
13669W        W31193  15.882  16.796   3.537 -0.1357 -0.0965  0.0072
13670W        W31194   5.876  12.224   0.301  0.2822  0.1049  0.3459
13671W        W31195   9.592  13.000  15.668 -0.0278 -0.0036  0.1066
13672W        W31196  11.765  15.240  15.803  0.1034  0.4447 -0.1763
13673W        W31197   9.083  10.634   0.242  0.0727 -0.3821 -0.0907
13674W        W31198   6.524   2.602  14.053 -0.2912 -0.0755 -0.1457
13675W        W31199  13.588   1.786   3.024 -0.2487 -0.1348 -0.2853
13676W        W31200   0.300  12.196   1.349  0.3436  0.0783  0.0344
13677W        W31201   6.506  11.496  17.625 -0.0764  0.1338  0.0004
13678W        W31202   4.122  16.956   2.496 -0.0302  0.0458  0.0941
13679W        W31203  17.202  16.929   4.812  0.2223 -0.0696 -0.0153
13680W        W31204  15.574  16.793   5.336 -0.1507  0.1088 -0.0955
13681W        W31205   3.589  10.154   0.751 -0.0524 -0.1672 -0.0980
13682W        W31206   1.725   9.462  13.646  0.2120 -0.0154 -0.0049
13683W        W31207   4.703   3.844  15.669  0.2276  0.1435  0.0910
13684W        W31208  13.667   8.527  15.432  0.0257 -0.3274 -0.0630
13685W        W31209  14.547  12.256   5.520 -0.2931 -0.1451  0.0013
13686W        W31210  11.804  14.502  12.869 -0.0706 -0.0150  0.1102
13687W        W31211  16.561  14.589  12.549  0.0129 -0.1516  0.4222
13688W        W31212  10.274  11.428  11.979  0.4193 -0.2981  0.0397
13689W        W31213  11.939  14.297   0.223 -0.0800 -0.0047 -0.0286
13690W        W31214   4.811  14.471   3.779  0.1378 -0.0514  0.2172
13691W        W31215   2.773   7.590  13.368  0.1041 -0.0439 -0.0384
13692W        W31216   2.376   2.828  14.616 -0.2737  0.1000  0.0336
13693W        W31217   4.371  10.868  13.747 -0.0436  0.0661 -0.0597
13694W        W31218  11.619   4.454  14.677  0.1697  0.0204  0.2293
13695W        W31219  15.345  13.147   4.847 -0.0252  0.1146  0.1110
13696W        W31220   6.058   2.965  15.572 -0.0432 -0.0971 -0.0490
13697W        W31221  10.046   0.841  15.534 -0.2313  0.0911 -0.0550
13698W        W31222   9.584   6.317  12.855 -0.0780 -0.1330 -0.2265
13699W        W31223   1.338   7.648   1.493 -0.2339 -0.0718  0.1315
13700W        W31224  15.962   0.933  17.307 -0.2551 -0.1116  0.0126
13701W        W31225   6.883   2.523  14.980  0.3353 -0.2799  0.0664
13702W        W31226   0.210   2.136   3.276  0.1433 -0.3403  0.0845
13703W        W31227  12.182   3.147   4.237  0.0636  0.1101  0.0316
13704W        W31228   0.408  11.627   1.338 -0.2203 -0.2713 -0.3849
13705W        W31229   0.096  17.128   5.325 -0.1121 -0.1570 -0.1181
13706W        W31230   6.624  11.452   3.874 -0.0722 -0.0257 -0.0851
13707W        W31231  16.320  12.440   2.790  0.0519 -0.2421  0.0052
13708W        W31232  13.890   8.964  14.071 -0.2301  0.3111  0.0019
13709W        W31233   0.269  11.304  13.572  0.1506  0.0624  0.2337
13710W        W31234  15.872   4.639   0.657  0.0563  0.0761 -0.0128
13711W        W31235  16.017  14.204   4.575 -0.3244 -0.1008 -0.1449
13712W        W31236   5.918   2.235  15.145  0.0446 -0.0481 -0.1871
13713W        W31237  12.541   6.943  14.388  0.0494  0.0640 -0.1746
13714W        W31238   6.009   1.388   5.352 -0.0040 -0.1646  0.1765
13715W        W31239  13.535   9.710  11.442  0.1238 -0.1094  0.3068
13716W        W31240  10.359   0.754   4.817  0.2070 -0.2405  0.0353
13717W        W31241  11.232   2.506   3.881  0.0523 -0.1419  0.1515
13718W        W31242  15.600   3.512  12.314  0.3834  0.2226  0.1302
13719W        W31243  12.845   6.177  13.190 -0.0603  0.4825 -0.1807
13720W        W31244   4.099   8.379   0.446  0.0624  0.1259 -0.1164
13721W        W31245   6.624  14.145   3.008 -0.2203 -0.0665  0.3133
13722W        W31246   5.561   1.990   0.656 -0.0454 -0.2098  0.1266
13723W        W31247  15.294  10.552  16.677 -0.1094 -0.2843  0.0522
13724W        W31248  15.375  15.590  17.261 -0.1771 -0.0705 -0.0518
13725W        W31249   3.073  16.298   3.313  0.1378  0.1757  0.2260
13726W        W31250   7.861   2.843   5.581  0.0464  0.1627 -0.3511
13727W        W31251   6.702  11.201   1.271 -0.1145 -0.0191 -0.1837
13728W        W31252   3.708   8.016  17.236 -0.2658  0.1707  0.4618
13729W        W31253   8.005  11.476  15.509  0.2044 -0.2432 -0.0626
13730W        W31254   5.234   1.653   1.681  0.1148  0.2875  0.1589
13731W        W31255  11.422   5.621  13.236  0.1235 -0.2875  0.0486
13732W        W31256   3.840  12.669  17.469 -0.0675  0.4390 -0.1201
13733W        W31257   7.281   5.908   4.621  0.1432 -0.1404 -0.0677
13734W        W31258   6.238   5.826   4.150 -0.2634  0.1508  0.2367
13735W        W31259   2.509  12.900  15.256  0.1838  0.0295  0.0282
13736W        W31260   7.767   2.161   2.948 -0.0769 -0.0999 -0.1172
13737W        W31261  10.772   0.308   5.762  0.1949  0.2190 -0.0846
13738W        W31262   7.657  16.611  13.917 -0.0482 -0.1024 -0.1085
13739W        W31263   0.617   8.071  13.879  0.1759  0.0644 -0.0848
13740W        W31264  12.779   9.750   0.589  0.1834  0.1655  0.0854
13741W        W31265  13.617   7.169  14.460 -0.1549  0.0706  0.0402
13742W        W31266   0.059  12.067  14.550  0.0681  0.1272 -0.0524
13743W        W31267  14.924  16.145  13.753  0.0860 -0.0441  0.2585
13744W        W31268  15.186   4.116   1.147 -0.4560  0.0684  0.2541
13745W        W31269   3.971   5.226   3.925 -0.1679 -0.0183  0.0525
13746W        W31270  13.851   0.266  12.211  0.2901 -0.1957 -0.2536
13747W        W31271   8.089   8.815   0.555 -0.2189  0.0809  0.0426
13748W        W31272   8.609   8.546   2.502 -0.1009 -0.0876 -0.2303
13749W        W31273   4.599   9.583  14.911  0.1799 -0.1507 -0.1316
13750W        W31274   3.837  16.637  15.012 -0.0972 -0.0250  0.3589
13751W        W31275  10.289  14.602  16.729  0.0473  0.1191  0.3266
13752W        W31276   8.968  13.450   0.347 -0.0816  0.0153 -0.1967
13753W        W31277   7.444  15.602  12.993 -0.0414  0.0676 -0.1084
13754W        W31278   9.093   9.782   1.264 -0.2660 -0.0316 -0.3620
13755W        W31279   6.408  12.711  16.596  0.2878 -0.0801 -0.1329
13756W        W31280   2.710  12.230   5.327 -0.1901 -0.0959 -0.0093
13757W        W31281   6.874  10.318   4.985  0.3068  0.0420 -0.0977
13758W        W31282   4.085   1.343  13.272  0.2541  0.0126  0.1706
13759W        W31283   8.858   5.718  13.116  0.2819  0.0080  0.0333
13760W        W31284   0.061  14.404  16.300  0.3161 -0.0043 -0.0362
13761W        W31285  14.049  15.005  16.298 -0.0121 -0.0432  0.2141
13762W        W31286  13.602   8.244  14.419 -0.1260 -0.1850 -0.1544
13763W        W31287   3.650   2.069  14.977  0.1479  0.1392 -0.1317
13764W        W31288  12.327  16.219  13.270 -0.3353 -0.0770 -0.2490
13765W        W31289   0.082  17.055  14.026  0.0025  0.1319  0.0356
13766W        W31290   7.897   4.426   0.876 -0.0192  0.2362 -0.0137
13767W        W31291   6.075   3.046   4.483  0.0189 -0.0445  0.3835
13768W        W31292   8.351   4.400   1.283 -0.1875 -0.0273  0.0638
13769W        W31293  12.922  11.209   0.678 -0.0392 -0.1065  0.1513
13770W        W31294   9.398   7.816  16.550 -0.1776 -0.1824  0.0154
13771W        W31295  14.261   2.577   0.955 -0.1632 -0.0598 -0.2223
13772W        W31296  13.101  15.029  14.525  0.3290  0.2363  0.2199
13773W        W31297   9.236  11.988  15.058  0.1032 -0.1022 -0.2839
13774W        W31298   1.494  11.058  12.066  0.0154 -0.2306 -0.0423
13775W        W31299  16.883   1.507   5.303  0.1007  0.3820  0.2689
13776W        W31300  12.172   5.059  11.802  0.1493 -0.1231  0.0742
13777W        W31301   4.409  16.257   1.065  0.3507  0.0718  0.3261
13778W        W31302   9.476   2.716  16.718  0.1755  0.1236  0.0285
13779W        W31303   3.705  13.319  15.108  0.0954  0.2896 -0.0023
13780W        W31304  14.194   3.579   5.428  0.2094  0.0704  0.0814
13781W        W31305  12.983   6.125  17.036  0.0476  0.1291 -0.3212
13782W        W31306   5.165   2.803   3.402  0.1573 -0.2889  0.2588
13783W        W31307   7.236   4.639  16.545  0.1511 -0.1292 -0.4458
13784W        W31308   5.266  16.547  16.077 -0.0881 -0.1807  0.0675
13785W        W31309   4.302   0.350   3.828 -0.0651 -0.1151  0.1599
13786W        W31310   2.672   4.476   0.654  0.1145 -0.2111  0.0233
13787W        W31311  11.189  11.745   0.350  0.0951 -0.0378  0.0622
13788W        W31312   5.355  15.967  13.061 -0.0663  0.0060 -0.0675
13789W        W31313   7.425   8.403  14.813 -0.0321  0.3101  0.0527
13790W        W31314   5.038  14.701   3.346  0.2243 -0.2111  0.0146
13791W        W31315   6.044   9.476  13.915 -0.1094 -0.1129 -0.1648
13792W        W31316  14.318   9.268   1.417  0.1747  0.1343  0.2286
13793W        W31317   0.252   1.160  17.293  0.1043  0.2764  0.2167
13794W        W31318  14.337   0.974  13.808 -0.0231 -0.0750 -0.1638
13795W        W31319   1.710  15.548  12.315 -0.1337  0.2112 -0.0835
13796W        W31320  15.831   2.438   1.405 -0.1897 -0.2690 -0.2357
13797W        W31321   3.577   6.779   2.151  0.1535  0.0851 -0.3720
13798W        W31322  14.524   0.780   3.731 -0.2018 -0.3683  0.0235
13799W        W31323   3.256   0.652   4.466 -0.3539 -0.1842 -0.0721
13800W        W31324   5.667  11.770   2.859 -0.2148  0.0540 -0.4018
13801W        W31325   6.894   0.168  14.535 -0.1826  0.0691  0.0387
13802W        W31326   2.052   7.713  14.017  0.1829  0.0532 -0.0754
13803W        W31327   9.688   4.603  17.508 -0.3763 -0.1251  0.1441
13804W        W31328  10.724  14.576   1.735 -0.1962  0.1286  0.1724
13805W        W31329   4.001   4.572  14.797 -0.0760 -0.1300 -0.3530
13806W        W31330   4.303  14.950   5.726  0.4244 -0.2298  0.0748
13807W        W31331  16.290   9.388  15.482  0.2563 -0.0190  0.0455
13808W        W31332  12.386   9.109   4.621  0.2377  0.0128 -0.0330
13809W        W31333   0.281   1.381  15.923 -0.2092  0.3401  0.3214
13810W        W31334   3.087   1.262   3.853 -0.1795  0.1295  0.3437
13811W        W31335   8.065   3.707   4.157  0.0041  0.2285 -0.2629
13812W        W31336  15.033   8.142   3.995 -0.0348 -0.1698 -0.3544
13813W        W31337  15.422   1.235   5.373 -0.0654  0.1123 -0.0899
13814W        W31338   1.109   9.111   2.027 -0.2814 -0.1827 -0.0432
13815W        W31339   6.877  12.871   0.704 -0.1759  0.0793 -0.2080
13816W        W31340  13.327   5.527  14.144  0.0051 -0.1244  0.1229
13817W        W31341   2.694   1.600   3.047  0.1783 -0.1906  0.0580
13818W        W31342   3.650  16.125   1.920 -0.0485 -0.0018  0.1781
13819W        W31343  10.169   6.093  12.003  0.1069 -0.2099 -0.2013
13820W        W31344  14.888  10.032  15.829 -0.2636  0.1800  0.1697
13821W        W31345  14.483   6.038  14.741  0.0433 -0.2533  0.0731
13822W        W31346   8.903  11.289   2.512 -0.0016  0.1722  0.1240
13823W        W31347   4.839   1.062   2.328  0.0101 -0.4298 -0.0496
13824W        W31348  14.924  12.093  15.751 -0.1455 -0.1189  0.0297
13825W        W31349   1.004   2.394  14.730 -0.1700  0.1877  0.0807
13826W        W31350  17.003   0.696  15.687  0.3096 -0.0005 -0.1088
13827W        W31351  14.179  13.308  17.021  0.0824  0.0712  0.2544
13828W        W31352   2.002  16.932  16.757 -0.0169 -0.3081 -0.4269
13829W        W31353  12.458   6.865  13.003  0.2408 -0.1568 -0.3773
13830W        W31354  13.247  11.950  15.833  0.1558 -0.1486 -0.0642
13831W        W31355  12.410  11.871  12.677 -0.0570  0.2226 -0.3207
13832W        W31356   8.256   3.816  16.174  0.0263 -0.3140 -0.0399
13833W        W31357   3.226   7.941   4.675  0.2066  0.0859  0.2642
13834W        W31358  15.213   1.902   1.978  0.0499  0.0763  0.1463
13835W        W31359   4.699  16.574   2.836  0.0095 -0.4045  0.1160
13836W        W31360   9.628  10.814  13.676 -0.0328 -0.1214  0.0829
13837W        W31361   6.505   3.817  16.259 -0.0036 -0.2533 -0.0979
13838W        W31362  12.917   2.296  14.483  0.1220 -0.2616  0.2151
13839W        W31363  10.227  11.814   1.102  0.1250 -0.1864 -0.1155
13840W        W31364   9.940  15.120   1.965  0.0368 -0.0112  0.1655
13841W        W31365   5.011  11.016   1.357 -0.0504  0.0643  0.0342
13842W        W31366  14.507  12.772   1.549  0.0586  0.4662 -0.0291
13843W        W31367   5.084   7.018   1.807 -0.1895 -0.0229 -0.2591
13844W        W31368   6.748  11.733  11.492 -0.0230 -0.0922 -0.1396
13845W        W31369  10.639   5.792   2.575 -0.1187 -0.1866  0.1877
13846W        W31370   8.847  11.491   5.092  0.0164  0.1307  0.1575
13847W        W31371  11.867   5.074  15.381  0.1356  0.0108 -0.2517
13848W        W31372  12.975  12.142   4.177 -0.2162  0.1526 -0.0229
13849W        W31373  12.721  14.422   3.319 -0.2188  0.1446 -0.0023
13850W        W31374  16.764   9.678   4.250  0.1620  0.1487 -0.0670
13851W        W31375   2.157   1.487   1.799 -0.1108  0.1881 -0.1658
13852W        W31376   4.368  10.554   0.059  0.1315  0.0985 -0.3166
13853W        W31377   4.194   3.981  16.208  0.0112  0.0422 -0.1478
13854W        W31378  10.275   0.405  13.134 -0.0393 -0.0413 -0.1935
13855W        W31379  14.490   9.275   4.047 -0.1165  0.1095 -0.0569
13856W        W31380  14.346   2.498  16.668 -0.1387 -0.1842  0.0383
13857W        W31381   2.389  13.799  12.657  0.2147 -0.0005 -0.2448
13858W        W31382  14.296   8.750  10.583  0.2695  0.1129 -0.0721
13859W        W31383  15.070   8.263   1.794 -0.1191  0.1686  0.2586
13860W        W31384  14.431   9.293  15.105  0.1015  0.0435  0.0933
13861W        W31385   7.298  16.060   0.355 -0.0757 -0.1290  0.2701
13862W        W31386  17.172   6.118  11.994 -0.1544  0.3253 -0.0464
13863W        W31387   5.348   5.676   4.190 -0.1534  0.1334 -0.2440
13864W        W31388   9.130   9.643   3.494 -0.3398  0.1438  0.1617
13865W        W31389  16.089   7.179  15.011 -0.0054 -0.0217  0.0195
13866W        W31390   0.108  14.042  13.741 -0.0720  0.0451  0.2799
13867W        W31391   6.386  16.986  16.285 -0.4325  0.2015 -0.2015
13868W        W31392   3.163  11.442   2.177 -0.1214  0.0694 -0.2082
13869W        W31393  15.582  10.965   3.799 -0.1138 -0.0260  0.0472
13870W        W31394   8.204  12.259   4.994  0.2594 -0.0399  0.1811
13871W        W31395  11.492   7.188   4.442  0.0547  0.1292  0.2510
13872W        W31396   9.936  13.286  17.063 -0.0741  0.2106  0.0393
13873W        W31397   3.381  11.548   6.045 -0.0418  0.2410 -0.1114
13874W        W31398   4.492   5.108  13.999  0.0159  0.2248  0.0548
13875W        W31399  10.518  16.589   4.339 -0.0054  0.1929 -0.2631
13876W        W31400   0.680   4.152  16.252  0.0233 -0.0340 -0.1695
13877W        W31401   5.236  13.077  13.265 -0.3659 -0.0182  0.0632
13878W        W31402   6.205  15.609   1.539 -0.1396 -0.4580  0.0061
13879W        W31403  15.790   7.779  15.143 -0.0128 -0.0464 -0.0130
13880W        W31404   7.723   2.188  16.021  0.2179  0.2141  0.2581
13881W        W31405   1.839   4.433   0.060  0.2333  0.1120  0.2312
13882W        W31406   5.865  15.003   4.872 -0.1614 -0.0093 -0.1536
13883W        W31407  11.122   7.949   1.833  0.1829  0.2919 -0.4319
13884W        W31408  14.000  15.964  12.637  0.1951  0.0275 -0.0294
13885W        W31409   0.301   6.672   1.266  0.0161 -0.1183  0.0429
13886W        W31410   0.151   1.679  14.064  0.0496 -0.1206 -0.2690
13887W        W31411   1.112   9.759   3.827  0.0304  0.0949  0.1466
13888W        W31412  10.711  15.545  15.293 -0.1368  0.1997 -0.1839
13889W        W31413  12.491  14.517  16.502  0.2574  0.1383  0.2527
13890W        W31414   3.394   4.900   1.772 -0.0507 -0.3643  0.4950
13891W        W31415   7.523  10.816   5.264  0.1195  0.1056  0.0580
13892W        W31416   5.995   0.763  11.932  0.2105  0.1143  0.0001
13893W        W31417  13.179   7.475   2.911 -0.1559  0.3156  0.3028
13894W        W31418  10.268  16.061   1.297  0.0131 -0.2962  0.0754
13895W        W31419  14.944   0.780   2.560  0.0511  0.2951 -0.1383
13896W        W31420   2.655   2.958   0.404 -0.1545 -0.2134 -0.1932
13897W        W31421   4.520   2.589  17.635  0.1957  0.0807  0.0316
13898W        W31422  10.574   6.623   3.192 -0.3039 -0.0206  0.2024
13899W        W31423  15.878   3.537   1.863 -0.0550  0.0167 -0.4664
13900W        W31424   3.032  13.211  13.321 -0.2739  0.1128 -0.3554
13901W        W31425   2.769   5.739   5.192  0.2894 -0.2237  0.1455
13902W        W31426  13.273   9.664   0.255  0.1118 -0.0912  0.1666
13903W        W31427   8.184   8.339   2.327  0.0249 -0.0399  0.0071
13904W        W31428   8.587  11.421  16.029 -0.1753  0.0370 -0.0383
13905W        W31429   2.000  16.386   3.958 -0.1168  0.0765  0.0900
13906W        W31430   3.193  13.804   0.382 -0.0828 -0.0249  0.0013
13907W        W31431   2.670  14.737   5.184 -0.0210 -0.1685  0.1030
13908W        W31432   4.441   1.262   2.604  0.4172  0.1816  0.0985
13909W        W31433  10.941   0.868  17.339  0.0952  0.0951  0.0326
13910W        W31434   1.939   8.551   1.659 -0.1070  0.3114  0.0597
13911W        W31435   7.507   5.141   3.873  0.0859  0.0515 -0.0596
13912W        W31436  15.455  13.168  15.634  0.0717 -0.0041  0.0017
13913W        W31437   3.159   2.318   2.189  0.1259 -0.1670 -0.0514
13914W        W31438  15.097   1.907  12.548 -0.0023  0.2260 -0.1264
13915W        W31439   5.061  14.948  14.590 -0.0818  0.3681 -0.0533
13916W        W31440   1.863   8.388   4.333 -0.2403 -0.1974 -0.0734
13917W        W31441   9.884   0.338  17.350 -0.0126 -0.0456  0.1472
13918W        W31442   1.103   9.771  12.991 -0.0100 -0.0847  0.2005
13919W        W31443   7.378  11.057  14.751 -0.2061 -0.1843  0.0636
13920W        W31444  17.065  12.023  12.278 -0.0775 -0.2467  0.2372
13921W        W31445  14.919   0.552  12.869  0.0771 -0.1615  0.1303
13922W        W31446   8.527   9.978  16.080  0.0463  0.0139 -0.2870
13923W        W31447   9.358   2.981  15.020  0.4073 -0.1621  0.0469
13924W        W31448  15.315   6.574   1.073 -0.3220 -0.0032 -0.1951
13925W        W31449  11.747   4.149  16.334 -0.1619  0.1194 -0.3890
13926W        W31450  14.179   0.279  12.653  0.0383  0.0548  0.0109
13927W        W31451   6.279  14.152  15.277  0.4474  0.2935  0.0657
13928W        W31452   8.147   5.816  12.585 -0.2312 -0.4860  0.0361
13929W        W31453   7.347  14.962   5.413  0.0760 -0.0397 -0.1596
13930W        W31454  14.073   8.193  13.023  0.1953  0.0694  0.0342
13931W        W31455   6.959   7.809  14.137  0.0952 -0.0858  0.0864
13932W        W31456  11.178   0.700   0.136  0.3624 -0.3423  0.0295
13933W        W31457   0.006   2.993   0.181  0.0542 -0.4090 -0.2175
13934W        W31458   3.419   5.307   2.517 -0.1699  0.0858  0.0973
13935W        W31459   1.861   7.373   4.215 -0.0331 -0.0136 -0.0474
13936W        W31460  14.640   7.943  17.377 -0.1454 -0.0214  0.1184
13937W        W31461   8.547   2.996   4.577  0.0935 -0.1276  0.0490
13938W        W31462   9.591   8.382   1.366  0.1213 -0.0854  0.2007
13939W        W31463   9.921   5.693  13.204  0.0361  0.3151 -0.2163
13940W        W31464  14.908  16.853  13.220  0.0849 -0.1081 -0.0797
13941W        W31465   0.183  16.604   5.190  0.1371  0.0288  0.0494
13942W        W31466  12.576   1.798  12.632 -0.1512 -0.0384 -0.2646
13943W        W31467  13.000  13.423   2.619  0.1953 -0.0110  0.1839
13944W        W31468  15.825  12.667  16.382 -0.2633  0.0221 -0.1212
13945W        W31469   2.335  11.862  16.312  0.0223  0.1295 -0.1196
13946W        W31470  11.206   7.631  17.137 -0.0336  0.2304 -0.3180
13947W        W31471   3.661  10.100  15.444 -0.0838 -0.0551 -0.1504
13948W        W31472   6.993   7.125   5.216  0.2341  0.3854  0.0463
13949W        W31473   5.285   1.537  14.875  0.1906  0.3241  0.0834
13950W        W31474   5.318   5.971  14.446  0.1971  0.0222 -0.0786
13951W        W31475   7.278   7.368  14.015 -0.1301  0.1035  0.2751
13952W        W31476   2.322   8.907   1.651 -0.0732 -0.2121  0.0471
13953W        W31477  14.830  14.792   2.828 -0.2785 -0.3079 -0.0048
13954W        W31478  17.216  11.164   4.711  0.1483  0.0752  0.0005
13955W        W31479   2.140   5.902  15.038  0.2470  0.1796 -0.0137
13956W        W31480   5.382   9.690   1.158  0.0404 -0.2670  0.0928
13957W        W31481   1.097   6.849   4.572 -0.2425  0.1232  0.1709
13958W        W31482   6.435   0.710  16.918  0.0858 -0.5140 -0.1902
13959W        W31483  16.484   6.853   1.432  0.3394 -0.0486  0.0743
13960W        W31484   6.768   9.594  13.709  0.0727 -0.1581 -0.1374
13961W        W31485   7.532   5.830  17.469  0.3769  0.0183  0.1675
13962W        W31486   3.434  14.730   1.786 -0.1643  0.0951  0.0250
13963W        W31487   1.459  15.144   4.159 -0.0571  0.1126  0.1170
13964W        W31488  14.808   9.364  12.541  0.0028  0.1227  0.0510
13965W        W31489  11.003   6.031  14.725 -0.0718 -0.1347  0.0030
13966W        W31490   3.206   0.653  13.490  0.1798  0.0895 -0.3083
13967W        W31491   2.531  12.160  12.150 -0.2022 -0.2578 -0.1046
13968W        W31492   8.018   7.325  15.660  0.0929  0.0701  0.2704
13969W        W31493   0.510  16.817  13.917 -0.1447 -0.1985  0.1135
13970W        W31494  15.057   7.482   1.435 -0.2807  0.1529  0.1526
13971W        W31495   4.709   7.316   2.063 -0.0980  0.2651  0.1319
13972W        W31496   8.620  13.855  14.897 -0.1621  0.2329  0.0787
13973W        W31497   0.439   3.585  14.475  0.1832 -0.2977 -0.1211
13974W        W31498  10.344  16.496   3.160 -0.0907  0.0197 -0.2020
13975W        W31499   1.353  16.718  17.630 -0.2139 -0.0003  0.0540
13976W        W31500   2.389   5.621  13.254 -0.0191 -0.1902  0.1929
13977W        W31501   7.189   2.101  13.790  0.0571  0.2833  0.1239
13978W        W31502  16.474   9.318   2.698 -0.1514 -0.3669  0.1500
13979W        W31503  11.429  12.601  15.297  0.2710  0.0184 -0.0995
13980W        W31504   4.778   0.076   3.939 -0.0386 -0.2041 -0.1692
13981W        W31505   2.119   7.202  16.875  0.0925  0.2312 -0.3968
13982W        W31506   2.281   1.735   3.604 -0.2387 -0.0175 -0.3608
13983W        W31507  10.697  12.934   2.308 -0.0085  0.1712 -0.2428
13984W        W31508  10.274   5.662  14.580 -0.0578  0.1076 -0.0450
13985W        W31509   0.739   2.300  16.309  0.1458 -0.1868  0.0143
13986W        W31510   6.656  12.468   4.643  0.1106 -0.1598  0.2114
13987W        W31511   7.199   5.941   2.427 -0.0290  0.0320 -0.0546
13988W        W31512  10.823  13.942   0.842 -0.0040  0.0390 -0.2948
13989W        W31513   0.309   0.591  16.560 -0.1816  0.0712 -0.0421
13990W        W31514  17.248   9.376  16.780  0.0798 -0.0061  0.3570
13991W        W31515   5.297   0.692  15.515  0.2389 -0.1688 -0.0124
13992W        W31516  13.095   8.490   4.686 -0.1832  0.1083  0.2061
13993W        W31517   6.367   4.187   5.743  0.0121  0.1046  0.0057
13994W        W31518  10.420   4.394   2.123 -0.3298 -0.0671 -0.1454
13995W        W31519   7.570  10.034  14.408  0.0946 -0.0593 -0.1045
13996W        W31520  10.389  15.457   3.604 -0.1771 -0.0967  0.0128
13997W        W31521  15.997   5.687   1.752 -0.4115 -0.0629  0.0358
13998W        W31522  14.957  11.570  12.484  0.3974 -0.0746  0.1514
13999W        W31523  15.588  14.036  14.149  0.0564 -0.1517 -0.0219
14000W        W31524   4.814  14.525   4.270  0.0479  0.1939 -0.1224
14001W        W31525  10.623  10.026   5.689  0.0449  0.0811 -0.0208
14002W        W31526  12.460  12.249   2.114 -0.0171  0.2030  0.0156
14003W        W31527   3.689  12.487  14.778  0.1479 -0.1920  0.0024
14004W        W31528  15.617  13.583   0.947 -0.1740  0.1188 -0.1746
14005W        W31529   1.842  16.967  15.801 -0.3916  0.2988 -0.0094
14006W        W31530  10.907   6.596  11.972  0.0460  0.0360 -0.1172
14007W        W31531  12.225  13.023  15.328 -0.1086 -0.0892 -0.0652
14008W        W31532   2.717  15.321  16.307  0.2440  0.0235  0.0231
14009W        W31533  14.122   9.510  12.143  0.0852  0.1053 -0.0083
14010W        W31534   0.705  13.644   0.469  0.1459 -0.1080  0.0233
14011W        W31535  14.787   8.256  16.258 -0.1532  0.0470  0.0076
14012W        W31536   2.382   1.445   1.368 -0.0155 -0.1685  0.1056
14013W        W31537   0.310   9.511  12.066  0.4071  0.3037  0.0058
14014W        W31538   4.993  15.981  12.553  0.0487 -0.0779 -0.0246
14015W        W31539   7.245  12.547   0.654  0.0368 -0.0129 -0.0493
14016W        W31540   3.613  15.925  12.594 -0.2749  0.0651  0.0998
14017W        W31541   5.505   2.112  12.307  0.0786  0.0764 -0.2388
14018W        W31542   6.565   4.679   5.890 -0.2427  0.2673 -0.2389
14019W        W31543   7.661   1.602   4.997  0.0284 -0.1479 -0.1398
14020W        W31544   9.330  13.341  15.393  0.0559 -0.0098 -0.3436
14021W        W31545   3.896   7.262   1.407 -0.2575  0.1889 -0.3615
14022W        W31546   4.459  11.598   2.847  0.0935 -0.1177 -0.1018
14023W        W31547   1.778  10.468   6.363  0.1819 -0.0798  0.1502
14024W        W31548   1.006  15.920   4.124 -0.0259 -0.2703 -0.0566
14025W        W31549   9.002  13.579  15.695 -0.0254 -0.1636 -0.3793
14026W        W31550   6.517   5.556   0.523  0.0075 -0.0730 -0.0340
14027W        W31551  17.056  16.256  14.351  0.0854 -0.0131 -0.0885
14028W        W31552   3.900   1.922   0.507  0.0527 -0.1000  0.0491
14029W        W31553  11.139  16.816  15.751  0.0221 -0.2227 -0.3900
14030W        W31554  11.221   4.397   4.118 -0.0456  0.1959 -0.2231
14031W        W31555   0.062  13.265   3.776  0.2112  0.0724 -0.0150
14032W        W31556   4.774  11.337  17.047  0.0737 -0.1299  0.0935
14033W        W31557  12.536   0.798  13.686  0.0736 -0.2342 -0.0872
14034W        W31558   5.713   3.506  17.325 -0.3454 -0.1641  0.1080
14035W        W31559   4.595   8.451  16.886  0.0504 -0.1786 -0.0768
14036W        W31560   6.727   8.759  13.436 -0.2167 -0.2085 -0.0533
14037W        W31561  16.806  15.431  14.717 -0.2785  0.0237  0.0802
14038W        W31562  13.870  17.071  15.850 -0.0683 -0.0721  0.1190
14039W        W31563   7.553  16.547   0.666 -0.0161  0.2394  0.3485
14040W        W31564  16.626  11.230   2.390 -0.1443 -0.1137  0.0425
14041W        W31565   4.610  10.665   5.531  0.0848 -0.0330 -0.1254
14042W        W31566  16.714   6.023   4.030 -0.0133 -0.0041 -0.0542
14043W        W31567  12.291   3.242  15.900 -0.2494 -0.0056  0.0056
14044W        W31568  11.041   1.396   2.345  0.0173  0.2478  0.0363
14045W        W31569  14.534   1.439  15.646 -0.0031 -0.1304 -0.3769
14046W        W31570  12.163   4.707  13.013  0.0077  0.1958  0.1560
14047W        W31571   5.542  10.160  17.483  0.2296  0.1277  0.0841
14048W        W31572   8.235  10.022  15.691  0.3099 -0.0151 -0.0662
14049W        W31573   7.019  13.350   0.770  0.0827  0.1681  0.1339
14050W        W31574  11.853   3.704   0.055  0.3154 -0.0118  0.0283
14051W        W31575   8.584  14.736  14.332  0.0839 -0.0509 -0.0545
14052W        W31576  15.755  10.073   3.505 -0.0740 -0.0689 -0.2055
14053W        W31577   8.354   2.256  17.344  0.2191 -0.1422  0.0357
14054W        W31578  11.587   0.603   2.067 -0.0955  0.0598  0.2163
14055W        W31579  13.348   5.358   2.692  0.2527 -0.1571  0.2135
14056W        W31580  16.515   7.184  13.025  0.2218 -0.0006 -0.2582
14057W        W31581  16.229   1.864  14.541 -0.0362 -0.0134 -0.0678
14058W        W31582   0.896   1.836   4.385  0.4980 -0.0023 -0.0568
14059W        W31583  10.692   4.579   6.104 -0.2408 -0.2137  0.0843
14060W        W31584  13.498  10.094   1.292  0.0217 -0.2996  0.1678
14061W        W31585   3.315  12.828   3.883 -0.0675  0.1112  0.2365
14062W        W31586   7.112   1.248   2.713 -0.0654  0.3420  0.1391
14063W        W31587  16.253   3.227   2.087  0.1139 -0.2135  0.0702
14064W        W31588  16.725   0.550   4.641  0.0183  0.2715  0.1355
14065W        W31589  13.224   9.011  17.627 -0.4000 -0.0606  0.0676
14066W        W31590   8.843   3.837  14.703 -0.2186 -0.3374 -0.1283
14067W        W31591   4.551  14.938   0.705 -0.1649 -0.2629 -0.0778
14068W        W31592  11.906  10.590   2.435  0.0006 -0.0627  0.1599
14069W        W31593   4.185   0.409   4.763  0.0247  0.1352 -0.0023
14070W        W31594   2.883  10.590  12.912  0.2317  0.0955  0.0415
14071W        W31595   2.901   2.876  13.343  0.2841  0.0977  0.2665
14072W        W31596   8.408  13.966   1.033 -0.0160 -0.0303 -0.1406
14073W        W31597  14.941   5.528  14.011  0.1218  0.0247 -0.3795
14074W        W31598   8.485   4.157   2.040  0.3422  0.0325 -0.1304
14075W        W31599  12.795  15.954  16.594 -0.5870  0.1924  0.1169
14076W        W31600   4.004  10.946  13.421 -0.1007  0.0038 -0.1920
14077W        W31601  10.871   9.147   5.234  0.1538  0.1045 -0.2201
14078W        W31602  10.594  14.693   2.487  0.0151  0.1153 -0.2159
14079W        W31603   1.020   7.966   1.178  0.1682 -0.0877  0.0608
14080W        W31604  11.427   1.725   0.551 -0.2151  0.1417  0.0923
14081W        W31605  15.864   0.170   1.313 -0.0402  0.0004  0.0685
14082W        W31606  14.850  16.873  16.398 -0.2587 -0.2816 -0.1245
14083W        W31607  11.223   0.285   5.350  0.1507  0.0617 -0.1003
14084W        W31608   5.350  16.702   3.594 -0.2257 -0.0341  0.0929
14085W        W31609  11.568   6.378  14.749  0.3720  0.1727 -0.1838
14086W        W31610   6.749  16.074  16.842 -0.2488  0.1240 -0.4589
14087W        W31611   9.825  16.533  16.018 -0.0207 -0.2230  0.0450
14088W        W31612  15.547  17.208  17.051  0.0560  0.0160  0.0380
14089W        W31613  16.036   0.488   5.069 -0.0278  0.0152  0.2361
14090W        W31614   1.730  10.329  16.939  0.0935  0.1098 -0.0839
14091W        W31615   0.121   8.034   2.930 -0.0713 -0.0882  0.1712
14092W        W31616  12.833  14.240   4.015 -0.0009 -0.2088 -0.1353
14093W        W31617  13.572   3.873  14.443  0.2145 -0.0131  0.1491
14094W        W31618   4.253  14.302   3.574  0.0339  0.1112 -0.0552
14095W        W31619   3.846  14.891   0.045  0.2175 -0.1223 -0.2639
14096W        W31620  14.704   1.116   2.240  0.1932 -0.0904  0.0433
14097W        W31621   6.781   0.278  17.554 -0.0793  0.2533  0.0654
14098W        W31622   1.768   6.531   5.210 -0.0838 -0.0508  0.0286
14099W        W31623  15.213   2.336  12.863 -0.2328 -0.0016 -0.1826
14100W        W31624   9.962   0.375   0.242  0.0314 -0.0466  0.2758
14101W        W31625  11.302  11.598   5.030  0.2200  0.2474  0.0537
14102W        W31626   5.298  13.930   4.624  0.2034 -0.0591  0.1176
14103W        W31627  16.552   6.515  12.690 -0.2429 -0.0001  0.2395
14104W        W31628   8.087   4.880  13.870  0.1271 -0.0214  0.1077
14105W        W31629   7.128   5.279  14.876  0.1370 -0.1511  0.0288
14106W        W31630  12.565  15.785  13.980 -0.1839  0.2534  0.1800
14107W        W31631   0.806   9.283  14.599  0.3740  0.0824  0.0061
14108W        W31632  14.766  14.378  15.171 -0.0652 -0.1953  0.1658
14109W        W31633   4.004   2.811   5.051 -0.0139 -0.0441 -0.0867
14110W        W31634   2.486   5.368  12.309  0.2033  0.0299 -0.0663
14111W        W31635  10.088  11.410   1.957 -0.1779 -0.0415 -0.0075
14112W        W31636  11.010   8.349   3.611  0.0061 -0.0256 -0.0003
14113W        W31637  13.960  12.428  15.610 -0.1379  0.1370 -0.1917
14114W        W31638   9.268   5.345   1.479  0.0238 -0.1065  0.0052
14115W        W31639  10.794   2.381   2.474  0.2385 -0.3457  0.1443
14116W        W31640  12.885   0.346  15.001  0.1809  0.0094 -0.2911
14117W        W31641  12.338  15.555  17.455  0.3476 -0.0967 -0.2102
14118W        W31642   5.658   7.213   0.614 -0.1970 -0.0532  0.2362
14119W        W31643   6.956  14.782   5.624  0.3972 -0.1468 -0.2391
14120W        W31644   8.226  15.980  12.031  0.0499 -0.1043 -0.1876
14121W        W31645   0.117   9.972   4.807  0.1469 -0.1314 -0.0482
14122W        W31646   6.298  17.068   4.263  0.0429 -0.0097  0.2206
14123W        W31647  14.061   6.721  16.889 -0.1198 -0.1434  0.0519
14124W        W31648   0.279   6.943   0.740  0.1794 -0.2324 -0.0538
14125W        W31649   9.370   9.815  13.822  0.2732  0.1291  0.2224
14126W        W31650   8.567   1.610   4.033  0.1600  0.2391 -0.0265
14127W        W31651   7.063   5.116  17.291  0.0892 -0.4648 -0.0807
14128W        W31652  11.665   6.055   3.963  0.1620  0.0906  0.1722
14129W        W31653  12.989   1.977  14.960 -0.0247 -0.1964 -0.1219
14130W        W31654   3.651  14.964  16.160 -0.1525  0.2797 -0.0043
14131W        W31655   2.787   7.745  12.304 -0.0470  0.0449  0.1406
14132W        W31656   2.214   2.216  13.963 -0.1158  0.1796 -0.1478
14133W        W31657  12.699   2.803  12.558 -0.0561  0.1376 -0.1581
14134W        W31658   3.747   9.216   4.988 -0.1080  0.1358  0.1729
14135W        W31659  15.699  14.061   2.723 -0.0924  0.0068  0.2526
14136W        W31660  11.290  16.236   2.282 -0.0840 -0.0888 -0.2254
14137W        W31661   8.855   0.311  16.502  0.1494  0.3372  0.0214
14138W        W31662   8.711   4.948  17.624 -0.0241  0.3845 -0.0828
14139W        W31663   2.131  12.156  17.638 -0.0645 -0.4516  0.0931
14140W        W31664   7.471  10.027  13.243 -0.1095 -0.0898  0.2608
14141W        W31665  11.713   9.307  14.476 -0.0632 -0.0183 -0.1530
14142W        W31666   7.670   2.577   5.954  0.1590  0.2380 -0.0665
14143W        W31667  13.939  10.568   3.286  0.3479  0.0991  0.1073
14144W        W31668   6.604  16.121  17.392 -0.1030 -0.1445 -0.3201
14145W        W31669   5.125   3.567   3.962  0.0511  0.0842  0.0531
14146W        W31670  10.925   2.418  15.051 -0.1359 -0.1547 -0.1178
14147W        W31671  13.782   7.715  15.854  0.3637  0.1501 -0.0819
14148W        W31672   9.232  15.298   3.029  0.0447  0.3797  0.0595
14149W        W31673  13.231  13.580   0.319  0.1351  0.0322 -0.2668
14150W        W31674  10.734   7.864   0.861 -0.2353  0.2388 -0.1041
14151W        W31675   6.383  11.994   2.015  0.2057 -0.1883 -0.3607
14152W        W31676   2.898   8.345  17.464  0.1509 -0.0057  0.0157
14153W        W31677  12.278   7.443  14.637 -0.0099  0.0710  0.0658
14154W        W31678   8.292  10.447  17.649 -0.0922 -0.0583 -0.1061
14155W        W31679   4.961   7.228   5.652 -0.4228  0.1191 -0.1626
14156W        W31680   9.893  17.155   2.605 -0.1069 -0.0188 -0.0355
14157W        W31681   4.304  11.237   3.490 -0.0143  0.3296  0.0311
14158W        W31682   2.207  13.690  15.653 -0.1823  0.0712 -0.4950
14159W        W31683  10.262   6.274   3.221 -0.1138  0.1832 -0.1642
14160W        W31684   3.773   5.438  12.764  0.2441  0.1533 -0.1715
14161W        W31685  16.230   7.476  13.742 -0.1723 -0.2791 -0.1185
14162W        W31686   5.684   0.430  14.093 -0.2809 -0.1359  0.2909
14163W        W31687  14.339   3.779   4.878  0.1367 -0.2084 -0.5011
14164W        W31688  14.904   0.531   1.638  0.0273  0.0372  0.0183
14165W        W31689  16.792   5.449  16.838  0.2025 -0.1236 -0.2404
14166W        W31690  11.824   3.591   2.535 -0.0398  0.2891  0.1579
14167W        W31691   1.002  10.595   0.801 -0.1954  0.2204 -0.1309
14168W        W31692  16.268  15.499   3.897  0.0929 -0.1108 -0.1348
14169W        W31693  15.972  11.269  12.349 -0.3500 -0.2654 -0.0732
14170W        W31694   8.084   4.220   2.627  0.1909  0.3496  0.2787
14171W        W31695   6.562  16.496   5.196 -0.0488  0.1790  0.4494
14172W        W31696   3.267   8.961   3.367  0.2259 -0.0474  0.2289
14173W        W31697   2.680  16.258  14.556 -0.1681 -0.2008 -0.3223
14174W        W31698  12.219  13.073   2.239 -0.0350 -0.0755 -0.0287
14175W        W31699  12.324   6.940  16.808 -0.0773 -0.0158 -0.0116
14176W        W31700   8.981   5.305  11.628  0.1224  0.0850  0.1034
14177W        W31701  14.511   3.596   0.162  0.5081 -0.3984  0.0034
14178W        W31702   2.579   1.814  12.234 -0.1080 -0.1279  0.1136
14179W        W31703   3.064   5.554  17.463  0.0825 -0.2537 -0.2889
14180W        W31704  11.665   5.660   2.214 -0.1595  0.1231 -0.1419
14181W        W31705  14.430  17.158  12.993 -0.0623  0.1381 -0.0983
14182W        W31706   5.081   2.330   3.311 -0.0360 -0.0432  0.1951
14183W        W31707   8.113  16.282  14.102  0.3670  0.0243  0.0592
14184W        W31708   7.717   9.906  12.376 -0.2330  0.0846 -0.0759
14185W        W31709  15.493   5.000   0.848  0.0640 -0.2157  0.0376
14186W        W31710   9.342   9.327  13.026 -0.0779  0.1400  0.0307
14187W        W31711   4.814  10.690   0.289  0.2191  0.1895 -0.0105
14188W        W31712  15.607   1.243  16.806 -0.0348 -0.0638 -0.0021
14189W        W31713  14.355   0.777  14.691  0.1295 -0.2133 -0.3720
14190W        W31714  11.757  13.222  13.459 -0.1990  0.0913  0.1555
14191W        W31715  16.692  16.107  12.843 -0.0665  0.0860  0.0940
14192W        W31716   6.049   6.624  13.330 -0.2950 -0.1614  0.2744
14193W        W31717   2.061   5.096   3.969 -0.1214  0.0352  0.0593
14194W        W31718  13.677  13.889  13.862  0.1950 -0.1501  0.0605
14195W        W31719   2.097  14.277  17.658  0.1094 -0.1159  0.1994
14196W        W31720  13.719   6.915   3.694  0.1225 -0.1932 -0.0241
14197W        W31721   9.415   3.662   2.337  0.0211 -0.1302 -0.0326
14198W        W31722  14.082   2.455   3.305  0.2948 -0.6860 -0.0607
14199W        W31723   7.440  16.821  16.598 -0.0793  0.0375  0.1057
14200W        W31724   1.652   7.916  16.572 -0.0641 -0.0272 -0.0740
14201W        W31725   1.589  12.402  14.444  0.3566 -0.3473 -0.0105
14202W        W31726   5.380   4.477   3.340  0.2646  0.0732  0.2610
14203W        W31727   0.770  11.344  14.498 -0.0125 -0.0423 -0.1581
14204W        W31728   3.158   3.092  16.365  0.0030  0.2193  0.0326
14205W        W31729   1.781   9.540   1.490  0.1216 -0.0001  0.0395
14206W        W31730   0.366  16.422  16.730 -0.0305 -0.3422  0.2319
14207W        W31731   4.340   6.043  15.112  0.3478  0.1393 -0.0576
14208W        W31732  10.354   5.230  15.315  0.0399 -0.0709 -0.2451
14209W        W31733   7.379   5.098  13.241 -0.0678  0.0234  0.2331
14210W        W31734  12.872   1.522   4.622  0.1825  0.0941 -0.3960
14211W        W31735  14.648  11.905   2.733 -0.2127  0.0053  0.0553
14212W        W31736   4.355  15.364  15.201  0.0804  0.1974  0.1333
14213W        W31737   1.667  13.292  12.127 -0.1063  0.1918  0.0945
14214W        W31738   6.780   7.629  13.193 -0.1791  0.1620 -0.0979
14215W        W31739   6.858  13.617  15.039  0.2806 -0.0154  0.3538
14216W        W31740  14.100  15.651  17.399  0.2313 -0.0862 -0.1385
14217W        W31741  16.947  16.998   2.778  0.2760 -0.2207 -0.0922
14218W        W31742  14.787  10.502   5.126  0.2886 -0.1559  0.0059
14219W        W31743   4.312   6.089   3.671  0.1222  0.0406 -0.0822
14220W        W31744   1.454  13.589   2.796  0.0526 -0.2429 -0.0997
14221W        W31745   5.128  16.180   0.183  0.1346  0.1472 -0.2010
14222W        W31746  16.919   6.538  14.680  0.4089  0.1530 -0.0025
14223W        W31747   4.552   2.036   1.053  0.2240 -0.0506  0.0356
14224W        W31748  16.642   9.383   3.186 -0.0872  0.2200 -0.2467
14225W        W31749   9.431   7.282   4.766 -0.1270  0.1662  0.0200
14226W        W31750   3.627  16.708  15.872  0.1562  0.1473 -0.2512
14227W        W31751  15.054  16.508   2.843 -0.2002 -0.1613 -0.2695
14228W        W31752   9.592   4.263  12.860  0.1003 -0.1489 -0.3022
14229W        W31753  16.620   7.545   2.502 -0.0419 -0.1362  0.1478
14230W        W31754  13.917   5.620   2.752  0.0415  0.1283 -0.0591
14231W        W31755   0.688  14.865   2.604 -0.3726 -0.0761  0.1208
14232W        W31756  11.413  16.872   2.969 -0.1330 -0.1408 -0.1027
14233W        W31757   7.330   5.925  14.818  0.1070 -0.2778 -0.1787
14234W        W31758  14.599  16.518  15.512 -0.1700 -0.3136  0.3011
14235W        W31759   1.341  10.309  12.462 -0.3292 -0.0376 -0.2942
14236W        W31760  13.847   0.317   3.073 -0.1454  0.1074  0.1491
14237W        W31761  15.069   6.818   0.634  0.0492 -0.0100 -0.1521
14238W        W31762   4.190   4.564  17.016 -0.1368  0.5836  0.0599
14239W        W31763   7.523   6.109  13.008 -0.1579  0.1501 -0.2118
14240W        W31764  11.140  10.927   5.417  0.0646 -0.0569 -0.1294
14241W        W31765   9.606   1.961   3.758  0.1784  0.0624  0.1719
14242W        W31766  16.646   8.405  17.563  0.1364 -0.3191 -0.1161
14243W        W31767   9.684   0.381  13.026  0.1590  0.1207  0.0185
14244W        W31768   4.248   3.625  15.824 -0.0905  0.0670 -0.1270
14245W        W31769   1.362  14.591   5.560  0.1550  0.3330 -0.3579
14246W        W31770  14.003  16.766   3.264 -0.2368  0.1106  0.2393
14247W        W31771  16.077  14.166   0.439  0.0286 -0.2140 -0.0080
14248W        W31772  11.574   7.274  12.448  0.2102 -0.0553  0.1060
14249W        W31773  13.574   9.475   2.649  0.0078 -0.0947  0.1047
14250W        W31774   1.863  10.985   0.781 -0.0138 -0.3585  0.2330
14251W        W31775   6.786  11.484  15.912  0.0005  0.0115  0.3131
14252W        W31776   7.791   0.673  14.843 -0.1147  0.2570  0.1506
14253W        W31777  15.218  11.998  17.155  0.0065  0.0963  0.1269
14254W        W31778  12.652   1.499   5.052  0.1646  0.2295 -0.1628
14255W        W31779  13.886   1.473   0.279  0.0345  0.1228  0.2255
14256W        W31780   6.173   4.178  14.038 -0.3971 -0.1468 -0.3239
14257W        W31781   7.471  13.466   6.772 -0.0357 -0.0052 -0.0935
14258W        W31782  10.671  10.697  17.179 -0.0926 -0.2905 -0.0759
14259W        W31783   4.618  16.699   1.404 -0.0858  0.2263 -0.0550
14260W        W31784   9.412   6.400   4.452 -0.0553 -0.1889  0.0510
14261W        W31785  12.914  16.630   2.263  0.0126 -0.1503  0.0031
14262W        W31786   1.950  15.972   4.368  0.0186  0.0052 -0.0798
14263W        W31787   8.990  14.224   3.321  0.2817 -0.2484 -0.0080
14264W        W31788   0.872  15.444   4.664  0.0668 -0.3086  0.0774
14265W        W31789  15.040  10.312  14.101 -0.1062  0.2356 -0.1024
14266W        W31790   5.418  12.145  14.430  0.1845 -0.0098 -0.1732
14267W        W31791  12.569   9.891  14.351  0.3192  0.1823 -0.1630
14268W        W31792  14.162   2.110   5.030 -0.4174  0.3477  0.2150
14269W        W31793   4.721  11.410   1.467 -0.0432 -0.0295 -0.0163
14270W        W31794   7.139   4.970   2.801  0.0518  0.2345 -0.2209
14271W        W31795   9.382   2.024   2.885  0.1714  0.0415  0.0117
14272W        W31796   4.997  17.211   4.412  0.0554 -0.0174 -0.0265
14273W        W31797   9.200  11.562  16.675  0.0882 -0.0072 -0.1749
14274W        W31798  12.007   9.458  12.570 -0.2293 -0.0523  0.3092
14275W        W31799   2.510  16.484   4.004  0.2614 -0.0027 -0.0097
14276W        W31800   7.662   1.509   3.379  0.2310 -0.0649  0.0259
14277W        W31801   0.935   2.932   3.035 -0.0530  0.1205 -0.1879
14278W        W31802  11.818   2.782  17.402  0.1896  0.1298 -0.1701
14279W        W31803  15.242   2.670   2.687 -0.1085 -0.3289 -0.0445
14280W        W31804   4.931  15.601  12.899 -0.0573  0.0568 -0.1408
14281W        W31805  13.144  11.937  12.242 -0.2892 -0.1769  0.0837
14282W        W31806   6.475   5.881  12.749 -0.0870  0.2245 -0.2225
14283W        W31807  14.796   6.361   3.257 -0.5355  0.0092  0.1466
14284W        W31808  10.811  15.028   5.684  0.1528  0.0920  0.0678
14285W        W31809   3.315  12.111  14.104  0.2748  0.0901  0.1738
14286W        W31810  14.787   8.410   0.191  0.1048  0.0534 -0.2927
14287W        W31811  15.398   8.114  12.638  0.0104  0.0789  0.0557
14288W        W31812  14.197   5.760   4.281  0.4380 -0.0632  0.1231
14289W        W31813  14.712   7.101   0.303 -0.2089  0.2706  0.0747
14290W        W31814   4.463   1.892   6.629  0.2375  0.0231 -0.0311
14291W        W31815   2.090   6.783  15.349  0.1528 -0.1744 -0.4036
14292W        W31816  11.570   0.647  17.186  0.1985 -0.0192 -0.0515
14293W        W31817   0.464   7.534  12.744  0.0326 -0.1430  0.2480
14294W        W31818   2.855   5.571  15.593 -0.1817 -0.1823 -0.0678
14295W        W31819   7.083   4.136  12.755  0.2506  0.2029 -0.0354
14296W        W31820   2.117   7.192   0.732  0.3032  0.0502 -0.0121
14297W        W31821  15.599   6.247  15.139 -0.0135  0.0827  0.1304
14298W        W31822   9.455   2.659   5.938 -0.1437  0.2681  0.1749
14299W        W31823   5.909   0.553   6.257 -0.3820  0.0847 -0.0169
14300W        W31824  13.018  17.001  12.953  0.0655 -0.0865  0.0057
14301W        W31825   5.691   8.266  14.405  0.1867 -0.1698  0.2562
14302W        W31826  15.299   6.041  16.981  0.0383 -0.0530 -0.0580
14303W        W31827   7.716   7.048   3.570 -0.0475  0.0938  0.1703
14304W        W31828   5.544   9.887   5.100 -0.2519  0.1445 -0.0514
14305W        W31829   5.071   1.674   3.569  0.1281 -0.0361  0.3802
14306W        W31830   5.572  13.640  12.962  0.0986 -0.1344 -0.2649
14307W        W31831  10.487  14.327   0.976  0.0688  0.0266  0.1453
14308W        W31832   7.976  11.739  12.271 -0.1780 -0.0419 -0.1426
14309W        W31833   1.858  14.712  15.214  0.3447 -0.2274  0.0682
14310W        W31834   3.138   3.877  12.628  0.1037  0.1608 -0.1460
14311W        W31835  14.653   7.636  15.216 -0.1954  0.0720  0.0371
14312W        W31836   0.770  16.057  16.696 -0.0384  0.0404  0.2099
14313W        W31837   9.561   5.805  14.907 -0.1878  0.0032  0.3109
14314W        W31838   0.132  13.954  13.164  0.1042 -0.0306  0.1853
14315W        W31839  11.295   8.168  17.369 -0.1945  0.0014  0.3383
14316W        W31840  10.546  12.653  14.646 -0.3341 -0.2380  0.0593
14317W        W31841   2.131   2.367   2.650 -0.0095 -0.1059 -0.1446
14318W        W31842  10.589   5.022  17.266 -0.0039 -0.1076  0.0466
14319W        W31843   4.512  13.017   0.796 -0.0310  0.1367 -0.1289
14320W        W31844   2.474   7.378  13.687  0.2404 -0.0140 -0.0296
14321W        W31845  14.010   9.632   2.929 -0.1420 -0.2585  0.3157
14322W        W31846   8.583   8.948  12.405 -0.1384 -0.2468 -0.1551
14323W        W31847   5.168   4.170   1.803  0.0472 -0.0799  0.0711
14324W        W31848   0.859  12.141   3.471  0.0542 -0.1626 -0.1681
14325W        W31849  10.068   6.187   1.143 -0.0522  0.1272 -0.0445
14326W        W31850   0.078  10.455  14.199  0.2833 -0.0207 -0.1636
14327W        W31851  11.065   6.303   5.171  0.2727 -0.0156  0.1793
14328W        W31852  15.557  16.487   2.244 -0.2371  0.2059 -0.0112
14329W        W31853  15.264   3.515   1.627 -0.1230  0.1812 -0.2068
14330W        W31854   4.402  16.350  15.012 -0.1324  0.2524  0.1594
14331W        W31855   3.577  16.445   0.869 -0.0268  0.0234 -0.0689
14332W        W31856   1.612   1.029  15.550  0.1358  0.2279 -0.3550
14333W        W31857  16.805   2.456  13.782 -0.1844 -0.1278  0.0539
14334W        W31858  10.613  14.840   1.295  0.2603 -0.2315 -0.1656
14335W        W31859   7.053  15.485  11.968 -0.0903 -0.2453 -0.2551
14336W        W31860   3.456   3.586  15.411 -0.2672 -0.1501 -0.1655
14337W        W31861  13.153   7.201  15.691 -0.0969 -0.1199  0.2804
14338W        W31862   2.447  12.611   0.609 -0.3866  0.0331  0.0370
14339W        W31863   3.090  11.494   5.031 -0.3899 -0.0801 -0.0959
14340W        W31864   7.585   5.606   0.254 -0.0856 -0.4473 -0.1535
14341W        W31865  17.189   3.406   0.565 -0.1295 -0.0678  0.1206
14342W        W31866   0.941   1.403  13.880  0.0227 -0.2472  0.0411
14343W        W31867   0.308  14.561   0.319 -0.1812 -0.2017  0.2383
14344W        W31868   2.358  13.491  15.144  0.1673 -0.0946 -0.0734
14345W        W31869  14.100   5.715  14.657 -0.1042  0.0556  0.3604
14346W        W31870  12.826  10.748   3.576  0.1754 -0.2935 -0.0620
14347W        W31871   4.766  14.072   0.998 -0.1234  0.0174  0.0274
14348W        W31872   8.145   6.409   4.629 -0.2591  0.0270 -0.0944
14349W        W31873   1.588   3.472  15.343  0.2916  0.3377 -0.0919
14350W        W31874   8.000   1.524   3.761 -0.0392 -0.0414 -0.2537
14351W        W31875   2.355  16.551   0.397 -0.0290 -0.1756 -0.0668
14352W        W31876   4.339   8.872   2.780  0.0894 -0.1715  0.0627
14353W        W31877  16.750   8.974   2.879  0.0471 -0.1503  0.0711
14354W        W31878  13.021  16.645   3.566  0.2424  0.2852  0.1017
14355W        W31879   6.740  13.481   3.617 -0.1888 -0.3445 -0.4667
14356W        W31880   9.280   6.048  15.841 -0.2239 -0.0255 -0.0258
14357W        W31881   9.129  10.889   3.646  0.0186 -0.0763 -0.1476
14358W        W31882  16.196  11.385  15.812 -0.2643  0.2096 -0.0941
14359W        W31883   8.324   0.914  14.760 -0.2153  0.0793  0.2551
14360W        W31884   5.584   7.316  16.920  0.0445 -0.1521 -0.0560
14361W        W31885   7.792   7.929   4.070 -0.1772 -0.2074 -0.0524
14362W        W31886   7.931   8.442   4.335 -0.2621  0.1368 -0.0158
14363W        W31887   0.774   4.778   4.729  0.1281  0.1817 -0.1077
14364W        W31888   2.193   7.437   3.108 -0.0561 -0.1054 -0.1023
14365W        W31889   0.624   4.343  13.316  0.1626 -0.0493  0.0297
14366W        W31890   0.277  11.398   4.359  0.2615 -0.1650 -0.2989
14367W        W31891  12.733   4.121   2.327  0.0994 -0.0918  0.0980
14368W        W31892  10.994   4.371   2.737  0.1924 -0.0887  0.0715
14369W        W31893   0.730   8.046  15.172 -0.1911  0.0029  0.3230
14370W        W31894  17.046   6.820   0.795  0.0106 -0.0803  0.0030
14371W        W31895   9.584   4.446   3.747  0.2316 -0.1206  0.2008
14372W        W31896  10.921   0.059  17.195  0.0243 -0.3372  0.0508
14373W        W31897   2.495   5.937   4.834 -0.1684  0.2734  0.1210
14374W        W31898   2.380  16.199   1.810  0.0285  0.3129 -0.1214
14375W        W31899  14.811   9.117   3.158  0.1194 -0.3770  0.3070
14376W        W31900   6.893  10.361   1.636  0.1832  0.0853  0.2215
14377W        W31901   2.007   0.632   0.901 -0.2229  0.1316  0.3849
14378W        W31902   2.535   6.682   5.154 -0.1281  0.1007  0.0524
14379W        W31903  11.546   9.721   2.766 -0.1642 -0.3092  0.0153
14380W        W31904   2.474   4.514   1.766 -0.0778  0.2704  0.0489
14381W        W31905   7.540  16.172   4.765 -0.1697 -0.1867  0.4652
14382W        W31906   6.256   6.080   3.338  0.1823  0.1803  0.3277
14383W        W31907  15.718   9.088   1.277 -0.1381 -0.0533 -0.0831
14384W        W31908   8.284   9.760   3.972  0.1890  0.0691 -0.0117
14385W        W31909  12.607   0.166   2.920  0.1449 -0.1268 -0.0594
14386W        W31910   3.175  11.745  16.679 -0.1746  0.1378  0.1910
14387W        W31911  11.612  10.628   0.078  0.0492 -0.0887 -0.0992
14388W        W31912   6.199   3.820   2.933  0.0869 -0.2506 -0.0757
14389W        W31913  11.443   0.021   4.069  0.0677  0.0118  0.0910
14390W        W31914   7.889   3.772  15.855 -0.2938  0.2463  0.1808
14391W        W31915  17.226  14.304  12.127  0.0328 -0.0777 -0.3710
14392W        W31916   5.602   9.238  12.792  0.2265 -0.0749 -0.0424
14393W        W31917  16.701  14.662  14.721 -0.0017  0.0853  0.1275
14394W        W31918  11.406  10.633   2.402  0.1266 -0.0019 -0.1609
14395W        W31919   6.341   2.596   2.099 -0.1962 -0.2906  0.0031
14396W        W31920   4.232  13.932   2.753  0.1990 -0.0284 -0.2454
14397W        W31921   8.561   5.605   1.525 -0.2808  0.0529  0.1782
14398W        W31922  12.403   8.911   3.486  0.1273 -0.2412 -0.0676
14399W        W31923   1.693  10.916   0.297 -0.3380 -0.0772 -0.1586
14400W        W31924   5.410   8.028  12.595 -0.2933  0.1550  0.1034
14401W        W31925   8.142   2.679   6.110  0.1603 -0.2582  0.3375
14402W        W31926   1.992  10.374   3.888  0.0117  0.0688 -0.1669
14403W        W31927   1.122   6.459  14.370 -0.1777 -0.1587  0.2121
14404W        W31928   7.843   3.451   5.403  0.1640  0.1727 -0.1136
14405W        W31929  12.616  13.875   6.205 -0.2444  0.0573 -0.1815
14406W        W31930   4.038  10.736  17.340  0.1932 -0.2687 -0.1321
14407W        W31931   7.702   4.634   2.149 -0.2016 -0.0623 -0.0265
14408W        W31932   9.779   0.786  14.220 -0.2657  0.0790  0.1416
14409W        W31933   7.733  12.652  12.487 -0.4069  0.3514  0.0408
14410W        W31934   3.616  11.151   5.886  0.0107  0.0211 -0.0055
14411W        W31935   0.592  11.338  11.866  0.0437  0.1088 -0.0330
14412W        W31936  17.192   2.959  12.127 -0.0058 -0.2754 -0.1514
14413W        W31937  15.114  16.822  15.869 -0.1238 -0.4748 -0.1049
14414W        W31938   5.924   7.816   4.830 -0.1141  0.0463  0.3382
14415W        W31939  10.612  10.606  15.900 -0.0616 -0.1609 -0.0278
14416W        W31940  13.885  13.844  14.564 -0.0030  0.0066 -0.5195
14417W        W31941  14.382   8.566  12.135  0.0925  0.3751  0.1543
14418W        W31942   7.676   9.517  16.658 -0.1013  0.0357 -0.0595
14419W        W31943   5.726   1.512   0.395 -0.4006  0.0509 -0.2452
14420W        W31944   5.736  13.515   4.797  0.0671  0.2313 -0.3159
14421W        W31945  10.048  16.877  15.222 -0.0245 -0.1270 -0.1637
14422W        W31946  16.840   4.231   2.941 -0.2577 -0.0191 -0.2278
14423W        W31947   8.060  11.837  12.751 -0.0428 -0.0442  0.1932
14424W        W31948  14.731   0.938   5.068  0.1444  0.0487  0.2193
14425W        W31949   9.453   5.602  17.097  0.5327  0.0559  0.2219
14426W        W31950  10.773   9.826  12.586  0.1010  0.0516  0.0527
14427W        W31951   9.390   8.585  13.727 -0.1077 -0.2594  0.1231
14428W        W31952   3.134  14.801  15.033 -0.0035  0.0446 -0.1070
14429W        W31953   4.409   0.926   4.289 -0.3521  0.1355 -0.0716
14430W        W31954   0.091  12.459  12.674  0.4070  0.1135 -0.0005
14431W        W31955  15.408   5.179  15.454 -0.0552 -0.0640 -0.2401
14432W        W31956   3.652   5.649  16.592 -0.0387  0.0609 -0.0767
14433W        W31957   2.973   5.905   3.274  0.1306  0.0048 -0.2480
14434W        W31958  16.952   1.605  15.968 -0.0574 -0.2285 -0.0123
14435W        W31959   9.635   5.423   2.273 -0.1756 -0.2586  0.0861
14436W        W31960   2.277   7.938  17.219 -0.0110 -0.1320  0.0151
14437W        W31961  13.083   8.596  16.246  0.2839 -0.0156 -0.2751
14438W        W31962   9.537   3.805   1.417  0.2227  0.2150  0.0113
14439W        W31963  14.371  10.069  15.778 -0.1538  0.2786  0.0761
14440W        W31964   2.854  12.039   2.228  0.1394 -0.2777  0.0339
14441W        W31965   1.186  12.672   3.528 -0.0383 -0.2579  0.0028
14442W        W31966  11.352  12.191  17.346 -0.1220 -0.1932  0.0229
14443W        W31967   1.090   2.466  12.711  0.1027  0.2696 -0.1596
14444W        W31968   5.966   1.275  16.351  0.1022 -0.0760  0.1824
14445W        W31969  15.341  11.491  16.181 -0.0925  0.2392 -0.0844
14446W        W31970  12.048   5.669   2.504  0.0470  0.3221 -0.1833
14447W        W31971   6.258  11.369  13.479  0.0227  0.2388 -0.0523
14448W        W31972   6.283   5.324   3.303 -0.1406  0.1644 -0.3808
14449W        W31973   7.592   9.547  14.321 -0.0699 -0.0792  0.1573
14450W        W31974   6.789   7.339   3.768 -0.2742 -0.1602 -0.0063
14451W        W31975   8.227  10.982  15.324  0.1220  0.1489  0.0903
14452W        W31976  11.907  14.269  15.770  0.2099  0.0681 -0.1304
14453W        W31977   3.218  12.893  14.555 -0.1885  0.1648 -0.1522
14454W        W31978   0.614   2.807  16.291  0.0016  0.0394 -0.1263
14455W        W31979  15.021  16.217  15.018 -0.0380  0.4854 -0.1757
14456W        W31980  15.395   0.527   3.273 -0.0978 -0.1975  0.2129
14457W        W31981  11.091  15.386  15.701  0.0634 -0.4092  0.0196
14458W        W31982  15.482  13.393  11.871 -0.1713 -0.1613  0.0116
14459W        W31983  16.153  12.364  16.117 -0.2183 -0.3338  0.2043
14460W        W31984  16.046   7.070   1.562 -0.1706  0.3663  0.0579
14461W        W31985  12.460   5.323   5.276  0.1613 -0.0438 -0.1618
14462W        W31986   1.124   7.557  12.312 -0.2027 -0.0612 -0.0711
14463W        W31987  16.759   9.149   1.354  0.2170  0.0196  0.1476
14464W        W31988  12.442   3.243  13.573 -0.1237  0.0340  0.0831
14465W        W31989   3.865  12.773  16.318  0.1695  0.1587  0.0272
14466W        W31990   4.945   1.867   0.728  0.0100  0.1590  0.2758
14467W        W31991   3.922  13.995  12.507  0.1251  0.1838  0.1881
14468W        W31992   2.883  15.736   5.596 -0.1388  0.0830  0.2944
14469W        W31993   3.979   2.891  15.502  0.0870  0.1570 -0.0274
14470W        W31994  16.733  12.814   4.417  0.0828  0.0494  0.0419
14471W        W31995  10.594  14.756  16.297 -0.1598  0.1147 -0.0474
14472W        W31996   0.719  12.701  14.515 -0.0688 -0.2260 -0.2729
14473W        W31997  10.096  13.400  12.784  0.0338 -0.2790  0.2879
14474W        W31998   3.512  11.832   1.819  0.1204 -0.2232 -0.0331
14475W        W31999  10.115  13.618   1.855 -0.0450  0.1380 -0.1676
14476W        W32000  12.415   7.648  15.919 -0.1094  0.2221  0.1649
14477W        W32001   1.689  13.784   4.166 -0.2792  0.4586 -0.0925
14478W        W32002  11.752   3.890  14.806 -0.1026 -0.0305  0.2312
14479W        W32003  14.406   7.021  15.552  0.0952  0.1719  0.0202
14480W        W32004   2.319   9.316  16.870 -0.0728  0.2088 -0.1011
14481W        W32005   5.065  12.835   2.636  0.1163  0.2079  0.2268
14482W        W32006   5.415  10.710   4.597 -0.0126 -0.3932  0.1658
14483W        W32007   0.090  13.915  11.819  0.0137 -0.0730 -0.0414
14484W        W32008   5.922   6.957  14.591  0.1647 -0.2413 -0.0216
14485W        W32009  16.342  10.935  16.595 -0.0731 -0.4759 -0.1021
14486W        W32010  15.884  10.419  10.974 -0.1973  0.0900  0.3756
14487W        W32011  10.353  15.121  16.677  0.0526 -0.0617  0.0918
14488W        W32012  13.787  11.653  14.943  0.2184 -0.0860 -0.0033
14489W        W32013  14.503  10.534  13.693 -0.0470 -0.0918  0.1614
14490W        W32014  12.761   3.592   6.451  0.0866  0.0700 -0.0360
14491W        W32015  16.875   9.856   3.468  0.2224  0.0074  0.2102
14492W        W32016   1.961  15.329  13.179  0.0255 -0.1636 -0.0352
14493W        W32017  14.701   6.568  13.769  0.0621  0.0877  0.0979
14494W        W32018   1.289   6.025  13.690 -0.0734  0.0246 -0.0537
14495W        W32019  10.418   2.373   5.076 -0.1797 -0.0463  0.3818
14496W        W32020   9.356   5.328   4.636  0.1465  0.0250 -0.0489
14497W        W32021   9.684   8.881  16.735 -0.1340 -0.1108 -0.1869
14498W        W32022   2.593  11.975  12.622 -0.0134 -0.1538 -0.0067
14499W        W32023  14.575   2.005   1.703 -0.0887 -0.1397 -0.1629
14500W        W32024   0.607  11.485   6.255 -0.3415  0.0475 -0.2782
14501W        W32025   9.104   6.536  15.255 -0.1088  0.1640 -0.1956
14502W        W32026  13.695  12.882   1.212 -0.0824 -0.1064  0.3666
14503W        W32027  13.534  12.618   4.573 -0.1334  0.2537  0.1059
14504W        W32028   0.636   6.807  15.008 -0.3321 -0.2162 -0.0838
14505W        W32029   5.871   8.441  14.844  0.0908  0.0626  0.2437
14506W        W32030   7.360   7.943  15.038  0.2775 -0.1016  0.2090
14507W        W32031   2.954  12.719   4.716  0.0842  0.3592  0.0963
14508W        W32032  16.027   2.810  16.666  0.1007  0.1498  0.2289
14509W        W32033   6.676   5.956  13.240  0.0573 -0.0228 -0.0798
14510W        W32034   0.051   2.939   3.170  0.4610 -0.0222  0.0520
14511W        W32035   1.243  15.339   2.121  0.1071 -0.1290  0.1503
14512W        W32036   0.109   4.977   1.931 -0.1181 -0.1167 -0.0245
14513W        W32037  17.085   6.701  13.023 -0.2114  0.4699  0.0479
14514W        W32038  11.326  16.606  14.975  0.1190  0.1957  0.0516
14515W        W32039   6.003   7.481  14.670 -0.2601  0.0417 -0.2696
14516W        W32040  12.316  12.954   2.763  0.0048 -0.0997  0.0492
14517W        W32041  13.566   1.434   3.844 -0.0320  0.1104 -0.1317
14518W        W32042   0.590  16.154   2.651  0.3301 -0.0018 -0.0478
14519W        W32043  10.874   4.719  12.524  0.0835 -0.3068 -0.0713
14520W        W32044   9.765   0.686   5.408 -0.0134 -0.2171  0.1472
14521W        W32045   3.323  11.641  14.312  0.1160 -0.0179 -0.2917
14522W        W32046   1.244  15.194   3.563  0.0596  0.2030 -0.0062
14523W        W32047   8.328  15.395   5.406 -0.3136  0.1612 -0.0692
14524W        W32048   7.712   6.009   0.645 -0.2081  0.0636 -0.1006
14525W        W32049   6.774   6.732   0.385 -0.0351 -0.0628  0.0788
14526W        W32050  13.875   5.916  15.874 -0.0555  0.1520 -0.0803
14527W        W32051  13.973   4.019  14.199 -0.0082  0.0219  0.1182
14528W        W32052   7.200  16.091  13.567  0.0336  0.2162 -0.1967
14529W        W32053   2.029   7.902   2.337  0.3157  0.0431  0.0677
14530W        W32054  16.868  16.174   4.213  0.2397 -0.1401  0.1797
14531W        W32055  10.102   1.936   3.557  0.5215  0.0366 -0.0202
14532W        W32056  10.059  12.305   1.585 -0.1176 -0.2285  0.1009
14533W        W32057   9.217   0.039  12.535 -0.0169  0.0554  0.1337
14534W        W32058   5.446  12.511   1.961 -0.1911 -0.2615  0.0097
14535W        W32059  12.356  13.806  14.340 -0.1993  0.1269  0.1284
14536W        W32060   6.832   5.029   2.388 -0.0997 -0.1408 -0.0260
14537W        W32061  17.043   0.139  12.315  0.0900 -0.1287 -0.2011
14538W        W32062   6.066   7.913  14.478  0.2911  0.3641  0.1298
14539W        W32063  11.640  11.526   4.456  0.0047  0.0210 -0.1932
14540W        W32064   2.316  12.871  16.574  0.1401 -0.1201 -0.0654
14541W        W32065   7.349   7.199  13.522  0.0096 -0.1017 -0.2852
14542W        W32066   1.658   6.944  17.597 -0.1383 -0.1964 -0.0932
14543W        W32067   3.453  13.325  16.112  0.1925  0.0955 -0.1255
14544W        W32068   1.791  10.491  10.951  0.2602 -0.3160 -0.1380
14545W        W32069  15.377   9.313   0.993 -0.1040  0.0451 -0.0873
14546W        W32070  10.874  12.083   4.468  0.0591 -0.1989  0.0112
14547W        W32071  14.313  15.107   4.792 -0.0696  0.4025 -0.1318
14548W        W32072  16.437   7.755   1.683 -0.0071  0.3129  0.0626
14549W        W32073  16.966   6.318   3.692  0.0947 -0.0988  0.3939
14550W        W32074  13.346  13.236   0.972  0.1819 -0.2810  0.0458
14551W        W32075  13.511  14.156   2.536 -0.0545  0.0280 -0.1393
14552W        W32076   9.307   2.088  11.669  0.2466 -0.2327 -0.1212
14553W        W32077   8.307  14.284   4.418 -0.3302  0.1799  0.0727
14554W        W32078   8.419  15.026   4.201 -0.1461 -0.2287  0.1641
14555W        W32079   2.592  12.659   3.941 -0.0369  0.0010 -0.0702
14556W        W32080  13.879   9.116  15.878  0.1782  0.1040 -0.1508
14557W        W32081  11.199   3.784   5.354 -0.1307  0.0126  0.0755
14558W        W32082  12.034   6.868   3.472 -0.0091  0.4048 -0.1627
14559W        W32083  16.315   8.078   4.374  0.1631  0.0830  0.0636
14560W        W32084  16.469  12.477   0.789 -0.2935  0.2195  0.1298
14561W        W32085   6.437  12.780   0.467 -0.2525 -0.1277 -0.2246
14562W        W32086   6.129   1.375   2.637 -0.0949  0.0044  0.2362
14563W        W32087  14.021  15.189  12.131  0.2249 -0.0847 -0.0310
14564W        W32088   4.788  14.798   1.111  0.2337  0.1123 -0.0511
14565W        W32089  13.142   7.154  14.693  0.0104 -0.1859 -0.1019
14566W        W32090   7.924   1.281  17.543 -0.1069  0.1989  0.1080
14567W        W32091  13.080   5.271   2.252  0.3031 -0.3094  0.0004
14568W        W32092   3.011  13.964  15.477 -0.1227  0.0921  0.2999
14569W        W32093  10.305  11.077  14.443 -0.2603  0.3631  0.3852
14570W        W32094   1.550   8.698  12.710  0.1288 -0.0885 -0.2003
14571W        W32095   7.299  14.391  16.602 -0.0722  0.4627 -0.1241
14572W        W32096   1.484   9.808  14.071  0.0135 -0.1402 -0.3124
14573W        W32097  10.649  10.207  15.462 -0.0419 -0.0857  0.2915
14574W        W32098   0.928   0.587   5.206 -0.0231 -0.0840  0.0599
14575W        W32099  13.180   8.083   0.005  0.3149  0.0422  0.0517
14576W        W32100   7.855   9.582   3.136  0.1351  0.1685  0.0837
14577W        W32101   9.546   2.402  15.783 -0.0304 -0.0472 -0.0327
14578W        W32102   3.722   2.775  17.074 -0.0587 -0.0672 -0.0159
14579W        W32103  15.905   0.350   2.830  0.0841 -0.0381 -0.3316
14580W        W32104  13.761   5.046  15.868  0.0769  0.1230  0.0438
14581W        W32105  10.579   1.552   2.255  0.1242 -0.4112 -0.0137
14582W        W32106   6.289   3.041  13.878  0.2244  0.0647  0.3224
14583W        W32107  12.304   6.073  15.507 -0.2802 -0.0213 -0.2602
14584W        W32108  12.420   1.606   0.296 -0.3195 -0.3558 -0.0418
14585W        W32109  12.676  13.326  14.419  0.3159 -0.1670 -0.1253
14586W        W32110   5.057   6.600  17.068 -0.0380 -0.0433 -0.0969
14587W        W32111   0.854  11.850  14.581 -0.0166 -0.1115 -0.0498
14588W        W32112   9.629  16.684  13.884 -0.1505  0.0745 -0.0950
14589W        W32113   5.021   2.788  12.725 -0.1850 -0.0790 -0.0827
14590W        W32114   7.017  10.222  13.822  0.3396  0.1726 -0.0910
14591W        W32115   3.821   6.381   0.392  0.0463 -0.0161  0.1591
14592W        W32116   7.124   8.884   6.455  0.1557  0.2235  0.0989
14593W        W32117   3.403   5.997  17.518  0.1495 -0.1083 -0.1527
14594W        W32118   5.432   6.832  16.720 -0.3260  0.0025 -0.2665
14595W        W32119   8.822   9.960   4.031 -0.2553 -0.1479 -0.2906
14596W        W32120   3.263  16.744  14.182 -0.2036  0.0636  0.1467
14597W        W32121   0.032   0.140   1.977  0.1963 -0.0519  0.2035
14598W        W32122  12.364  13.656  17.548 -0.2341 -0.1726 -0.2557
14599W        W32123  15.420   4.078   2.448  0.3556  0.1462 -0.1528
14600W        W32124   0.953   4.119   1.047 -0.2169 -0.2108 -0.0780
14601W        W32125   9.458  13.344   0.221 -0.2204 -0.0776  0.1315
14602W        W32126   0.331   0.836   5.227  0.2574  0.0442 -0.1212
14603W        W32127  10.916   6.016  12.682  0.0420  0.1124  0.1751
14604W        W32128  13.438   8.218   1.527 -0.3600 -0.0278  0.1732
14605W        W32129   1.972   2.635   4.225 -0.1450 -0.1150  0.1973
14606W        W32130   6.302   6.618   2.474 -0.3053 -0.1490  0.2011
14607W        W32131  12.547   7.305   0.087 -0.2163 -0.0943  0.0299
14608W        W32132  15.967  12.705   3.619  0.1035 -0.1982  0.0078
14609W        W32133   2.722   7.393  14.580  0.2153 -0.1970 -0.2468
14610W        W32134   1.184   9.930  15.561 -0.0502 -0.2487 -0.1990
14611W        W32135  17.198  13.043  13.977  0.4147  0.2697  0.0584
14612W        W32136   5.806   8.350  12.551 -0.0051 -0.0901  0.3958
14613W        W32137  13.075   6.770   2.263  0.2359  0.0186 -0.2267
14614W        W32138  11.153   5.518  17.525  0.0462  0.0338 -0.2583
14615W        W32139   5.394  15.030   2.189  0.2514 -0.1139  0.0487
14616W        W32140   1.348   5.854  12.743 -0.1741 -0.2423 -0.0450
14617W        W32141   1.241  10.530   1.235  0.1236  0.0618  0.1388
14618W        W32142   1.691  17.240  12.611  0.2487 -0.0021 -0.0094
14619W        W32143  14.246   2.245   0.558  0.1230  0.0393 -0.4115
14620W        W32144   3.108   3.469   2.371  0.0652  0.3236 -0.0389
14621W        W32145  15.388   3.330   3.360 -0.1885  0.1915 -0.0415
14622W        W32146   3.368   1.949  16.921 -0.1745 -0.0889 -0.1581
14623W        W32147  10.219  11.081   0.890 -0.0460 -0.1722  0.0750
14624W        W32148   8.587   9.120   3.382 -0.2046 -0.1606  0.0745
14625W        W32149   5.570  12.308  12.719  0.0550  0.1883  0.3329
14626W        W32150  16.128   1.687  12.837  0.1752  0.2230  0.1063
14627W        W32151   4.315   4.263   0.749 -0.0948 -0.0050  0.1988
14628W        W32152  16.174  10.098  14.668 -0.0802  0.2191 -0.1088
14629W        W32153   3.458   4.115   4.401  0.0673  0.3002 -0.0972
14630W        W32154   8.874  13.301  15.156 -0.2244 -0.2737  0.2078
14631W        W32155   0.046   6.538   5.378  0.0344  0.0830  0.3555
14632W        W32156   5.059  14.066   5.296  0.0979 -0.1310  0.0474
14633W        W32157   6.043   0.145   4.504  0.0619 -0.1390 -0.0664
14634W        W32158   4.878   6.292  12.496  0.0162  0.0053  0.0388
14635W        W32159   6.798   4.284  16.297  0.1025 -0.2328 -0.0666
14636W        W32160  15.199   8.387  12.255  0.3329  0.1438 -0.0598
14637W        W32161   4.346  13.333  13.986 -0.1241  0.0896 -0.0792
14638W        W32162   4.931   3.500  16.156 -0.1560 -0.1629 -0.1173
14639W        W32163  13.318   1.329   1.761 -0.2644 -0.0668 -0.2630
14640W        W32164   8.194  14.455   3.225  0.2403 -0.1898  0.5219
14641W        W32165  16.780  17.160   3.256 -0.1740  0.0371 -0.1018
14642W        W32166   9.750   3.394   5.897 -0.2305 -0.1393 -0.1009
14643W        W32167   3.491   0.618  15.196  0.1167  0.1093  0.2631
14644W        W32168   6.432   0.788   3.351  0.1735  0.0696  0.1524
14645W        W32169   5.027   8.426  12.537 -0.0151 -0.0464 -0.0385
14646W        W32170   7.541  11.847   1.207  0.0279  0.1432  0.0039
14647W        W32171  10.359   5.403  12.751  0.0201 -0.1042 -0.3347
14648W        W32172   2.312  16.384   4.988 -0.3692 -0.1876  0.0381
14649W        W32173  16.064   5.211  17.252  0.1703  0.2634 -0.2365
14650W        W32174   4.376   0.575   1.551  0.1593  0.2151  0.0720
14651W        W32175  13.902   7.109   1.977  0.1344  0.1135 -0.0553
14652W        W32176  13.369  16.562  16.987  0.0768  0.2299  0.0542
14653W        W32177   3.991  11.843   5.474  0.0393  0.2677  0.0034
14654W        W32178   0.142   6.071  15.535 -0.1759 -0.1506  0.0980
14655W        W32179  16.981   6.950   4.300 -0.1839  0.2284 -0.0556
14656W        W32180  12.967  14.868   5.676 -0.0894  0.0312  0.1985
14657W        W32181   0.111  10.883   2.427  0.1814 -0.2327  0.1760
14658W        W32182  10.993   4.904  13.393 -0.2367  0.0926 -0.2333
14659W        W32183  15.878  14.899   3.834 -0.0343 -0.1221  0.1535
14660W        W32184   6.643  12.319  15.142  0.0149  0.0818 -0.0841
14661W        W32185  17.059  10.011  15.806  0.3203  0.5121 -0.2454
14662W        W32186   0.182   0.315   5.021 -0.4096  0.1255 -0.3638
14663W        W32187   0.302   6.586  12.818  0.0134  0.2198 -0.2407
14664W        W32188   1.200  16.075  14.525 -0.0788  0.3681 -0.0210
14665W        W32189  15.333   4.579   2.644 -0.0640 -0.2599  0.0905
14666W        W32190  15.333   3.272   5.465 -0.0328 -0.0027 -0.0113
14667W        W32191   1.259  13.998  16.050  0.0652 -0.1930  0.1369
14668W        W32192   5.856   2.560   0.202  0.0873 -0.1722  0.1617
14669W        W32193   7.672   6.374   0.171 -0.3558  0.0002 -0.4369
14670W        W32194   5.007   0.486   5.305  0.2771  0.0618 -0.0763
14671W        W32195   7.560   4.646   1.642  0.2871  0.0246  0.0992
14672W        W32196   3.154   9.212   5.820  0.3210  0.1944 -0.1410
14673W        W32197   5.344   3.060  15.200 -0.0798 -0.0577  0.3360
14674W        W32198   8.106   6.724  14.308 -0.0084 -0.0853 -0.0298
14675W        W32199   6.352  10.353   1.750 -0.0275 -0.2179  0.0014
14676W        W32200  12.579  15.819   0.986 -0.1382 -0.1392 -0.1006
14677W        W32201  12.304   3.617   0.296 -0.0272 -0.0371 -0.0743
14678W        W32202   3.807  13.388  12.806 -0.2773  0.0569  0.0730
14679W        W32203   7.473  17.007   2.958 -0.3562  0.0407 -0.0678
14680W        W32204   4.094   6.811  17.423  0.2647  0.0887 -0.0879
14681W        W32205   3.460   7.209  17.216 -0.3637 -0.0225  0.3079
14682W        W32206   1.626   6.097   4.845  0.0777  0.0911  0.0070
14683W        W32207  15.702   5.589  17.139  0.2717  0.0508  0.3384
14684W        W32208  10.424   2.017  16.504  0.0377  0.0900 -0.1037
14685W        W32209   5.037   4.175  12.830 -0.2034  0.2777 -0.0764
14686W        W32210   1.977   9.034   0.638 -0.1042 -0.0626  0.1564
14687W        W32211   3.296  11.476   1.070  0.1534  0.1973  0.1178
14688W        W32212  14.095   3.618   3.547  0.0364 -0.2320 -0.1214
14689W        W32213  11.013   6.194   3.163 -0.1315  0.0779 -0.1204
14690W        W32214   0.584   1.704  15.612 -0.1062 -0.0780  0.1614
14691W        W32215   1.115   7.296  16.044 -0.3720 -0.2646  0.0594
14692W        W32216  14.100   8.932  12.780  0.2311  0.0970 -0.2281
14693W        W32217   1.183   0.720  14.409 -0.2112 -0.2147  0.1502
14694W        W32218   7.323   8.611   0.896 -0.3592 -0.2522  0.2207
14695W        W32219  15.444  12.616  11.813 -0.1691 -0.2315  0.0553
14696W        W32220  15.794   5.357  12.064  0.0311  0.0321 -0.2874
14697W        W32221   0.647  17.238   0.090  0.2327  0.0341  0.1356
14698W        W32222   5.214   0.487  17.256 -0.2328  0.1103 -0.0630
14699W        W32223   2.868  11.405   1.358  0.1244  0.2094  0.1495
14700W        W32224   0.714   0.891  16.617  0.0382 -0.0440  0.2187
14701W        W32225  11.996   2.187   3.816 -0.0622  0.6413  0.3345
14702W        W32226  15.994  13.811   3.579 -0.0499 -0.2925 -0.0526
14703W        W32227   6.897  14.227   4.370  0.0050 -0.2713 -0.0122
14704W        W32228   9.935   3.163   6.917 -0.1525  0.5025  0.1566
14705W        W32229   2.672   0.794   3.343  0.0073 -0.2778  0.0405
14706W        W32230  15.102  16.498  17.474  0.0351 -0.1473 -0.0540
14707W        W32231  12.501  12.565   0.964 -0.1814 -0.0857  0.2910
14708W        W32232   1.886   9.777  12.841 -0.2453  0.0847  0.1578
14709W        W32233   2.513   2.889  17.228 -0.4133  0.0792 -0.2460
14710W        W32234   4.468   9.541  16.453 -0.1106 -0.1070  0.1410
14711W        W32235  14.821  11.067  15.725  0.0450 -0.2233  0.2640
14712W        W32236   8.606   3.391  17.130 -0.0547  0.0901  0.1630
14713W        W32237   4.051   8.802   4.949 -0.0944 -0.1212 -0.0699
14714W        W32238  15.402   4.645   1.225 -0.2953  0.2712  0.1521
14715W        W32239   5.485   2.459  14.073 -0.2862  0.1305 -0.0724
14716W        W32240   3.532  14.510   5.287 -0.0142  0.0325 -0.1507
14717W        W32241  16.076   6.343  12.801 -0.1453  0.5272  0.0429
14718W        W32242  11.041  13.599   1.920 -0.1103 -0.0012  0.2118
14719W        W32243  11.410   1.764   3.493 -0.0792  0.0223 -0.0958
14720W        W32244   5.615  15.742   6.357  0.3204 -0.2784 -0.1638
14721W        W32245   8.533   9.085  17.588  0.1409 -0.0552  0.1987
14722W        W32246  11.606   8.721   0.175  0.2806  0.0168 -0.0496
14723W        W32247   1.283  16.975   4.352 -0.2882  0.0173  0.1014
14724W        W32248   2.174  13.329   4.444 -0.0818  0.1281  0.0374
14725W        W32249   5.566  12.868   3.727 -0.1667 -0.3777 -0.0832
14726W        W32250   4.280  10.698  12.779 -0.1868  0.2394 -0.1184
14727W        W32251  11.635   8.591  12.753 -0.0414  0.0303  0.1431
14728W        W32252   8.841  12.668   2.793 -0.0677  0.0250 -0.0825
14729W        W32253  16.879   6.001   4.541  0.1846  0.1948  0.0727
14730W        W32254  10.812  12.226   5.839 -0.2146 -0.2284 -0.0854
14731W        W32255  10.266   7.176   3.118  0.0513 -0.0522 -0.0276
14732W        W32256   7.360  13.791  12.883 -0.0205  0.3262  0.3730
14733W        W32257  16.441   2.359   4.667 -0.0666  0.1706  0.0258
14734W        W32258   9.769   7.835   4.873 -0.0371 -0.3472  0.0747
14735W        W32259  15.796   4.896   4.916 -0.1505  0.0899 -0.1068
14736W        W32260   9.891   7.972   2.549  0.1435  0.1084  0.1600
14737W        W32261   5.198   9.975   0.157  0.3707  0.0769 -0.0015
14738W        W32262   9.974   8.957  14.820 -0.0421 -0.0336  0.0034
14739W        W32263  10.545  10.352   2.343 -0.2431 -0.3653 -0.1278
14740W        W32264   1.997   8.122   1.835  0.1660 -0.2791 -0.3159
14741W        W32265  13.391  17.030   0.873 -0.0407 -0.2691 -0.0049
14742W        W32266  11.110  16.408  16.731 -0.1079 -0.1231 -0.2754
14743W        W32267  13.760   3.564   3.145  0.1427 -0.2654  0.0568
14744W        W32268  11.433   1.231   4.547 -0.1675 -0.3881  0.0438
14745W        W32269  15.800   7.856   2.614  0.2522 -0.0534  0.0760
14746W        W32270  10.713  12.235   5.296 -0.0085  0.0275 -0.0951
14747W        W32271  11.776  10.292   5.296  0.1672 -0.0840  0.3309
14748W        W32272  15.018   7.957  14.554 -0.3565  0.0741  0.3633
14749W        W32273   7.702   8.667   1.407 -0.1328  0.0401  0.1287
14750W        W32274   0.975   3.933  14.997 -0.1936  0.1787 -0.0156
14751W        W32275   5.392  16.674   2.336  0.1168  0.4250 -0.0272
14752W        W32276   7.197   2.932   1.901 -0.3385  0.1357  0.0833
14753W        W32277  13.911   4.915  14.801  0.1750  0.1948  0.0477
14754W        W32278   5.185  11.030   3.165  0.0629  0.3575  0.2604
14755W        W32279  11.153  10.079  16.375 -0.0653 -0.1540  0.0673
14756W        W32280  11.740   6.321  17.079 -0.2501 -0.1222  0.1518
14757W        W32281   7.545  11.890   0.677  0.1493 -0.2224 -0.1813
14758W        W32282  13.473   5.299   0.901 -0.2774  0.0296 -0.2310
14759W        W32283   5.279  10.987  12.736 -0.1357  0.5948  0.2117
14760W        W32284   0.468  12.898  16.396  0.0716  0.2772  0.0439
14761W        W32285   2.897  14.754   0.057 -0.1021 -0.0843 -0.1328
14762W        W32286   1.113   6.857  12.914 -0.0750 -0.0832  0.0691
14763W        W32287  14.894   5.124   4.999  0.0101  0.0405 -0.1249
14764W        W32288  13.096   1.694   5.131 -0.1556  0.1363 -0.1150
14765W        W32289   2.065  12.894   0.661 -0.1336 -0.1439 -0.0067
14766W        W32290   9.954   6.596  16.327 -0.0696  0.3280 -0.3301
14767W        W32291  12.781   8.764  15.355  0.0463  0.0179 -0.1206
14768W        W32292   2.578   2.229  12.702 -0.2093  0.2479 -0.0627
14769W        W32293  11.417  16.121  13.421 -0.0002 -0.0796  0.0351
14770W        W32294  12.598   3.636  15.896 -0.0496 -0.1167 -0.1062
14771W        W32295   8.576   6.804   1.001  0.4010 -0.0045  0.0727
14772W        W32296  10.231   9.685   4.855 -0.2127 -0.1312 -0.1591
14773W        W32297  14.809   2.422  14.313  0.0189  0.2045 -0.1711
14774W        W32298  13.076   4.441   5.775  0.0227  0.1194  0.0813
14775W        W32299   3.644  16.212  17.608  0.0062  0.0226  0.1400
14776W        W32300  13.097   8.013   4.929  0.1107 -0.0512 -0.0578
14777W        W32301  12.509  16.365  16.234 -0.1308  0.1554  0.0280
14778W        W32302   3.192  13.968  16.839  0.0664 -0.1094  0.2623
14779W        W32303   1.939   4.684   1.766  0.0124  0.1330  0.3293
14780W        W32304  10.068   8.379   0.491 -0.2462 -0.1520  0.0659
14781W        W32305   8.602  15.533   6.233  0.0339  0.1772  0.0692
14782W        W32306   6.008   7.432  15.870 -0.1388  0.0719  0.4264
14783W        W32307   9.189  11.727   3.130  0.1134  0.0261  0.0815
14784W        W32308   8.105  13.484   6.560 -0.0260 -0.1304  0.1062
14785W        W32309   2.624  17.028   4.079  0.0483  0.4274  0.3975
14786W        W32310   5.877   0.911  15.925 -0.1666 -0.2819  0.1678
14787W        W32311  15.398  12.581  12.349 -0.2168 -0.1086  0.2436
14788W        W32312   2.839   7.266  12.528 -0.1220 -0.0140  0.0739
14789W        W32313  13.180  16.794  13.383 -0.0598 -0.0095  0.0599
14790W        W32314  14.517   0.135  13.475 -0.0740  0.0459  0.0754
14791W        W32315  13.006  14.470   2.494  0.0703  0.0405  0.0495
14792W        W32316  14.733  15.099   2.338  0.1388  0.0243  0.0840
14793W        W32317  16.933   0.356  14.602  0.0021  0.2441 -0.2199
14794W        W32318  10.174   1.238  15.196  0.0740  0.2324 -0.1411
14795W        W32319   5.895  14.019  14.890  0.2443 -0.0728  0.1575
14796W        W32320  11.447   5.507   3.189 -0.2747 -0.1245 -0.0361
14797W        W32321  11.934   0.246   2.300  0.2919  0.0428  0.0148
14798W        W32322  16.372  14.187  16.238  0.2139 -0.0003  0.1544
14799W        W32323   9.475  10.985   0.215 -0.0599 -0.0857 -0.1742
14800W        W32324  14.825   6.694  12.248  0.0260 -0.3248  0.0335
14801W        W32325   2.813  15.372   3.212  0.1274 -0.2849 -0.0879
14802W        W32326   3.917   3.078   3.483  0.0239 -0.0988  0.2399
14803W        W32327  12.685   8.765  16.535  0.2428 -0.2680  0.1401
14804W        W32328   0.154  11.933   4.982  0.0167  0.0386  0.1441
14805W        W32329  12.256  13.327  17.082  0.1242 -0.2854 -0.1832
14806W        W32330   5.835  10.602  17.494 -0.3972 -0.0739 -0.1963
14807W        W32331  14.957  12.931  12.085 -0.1146  0.0782 -0.1583
14808W        W32332   0.627   7.344  15.884  0.0870  0.0535  0.0699
14809W        W32333   7.538  13.340   0.754 -0.3313 -0.0798  0.2865
14810W        W32334   9.563  16.195  15.121  0.1679  0.1071  0.0947
14811W        W32335   3.107   5.698   4.817  0.1834 -0.0895  0.1180
14812W        W32336   7.745  17.201  14.238 -0.0360  0.0767  0.1678
14813W        W32337   3.204   3.248   4.600 -0.1920  0.2739  0.0361
14814W        W32338   4.905   2.354  14.079  0.0409 -0.0132 -0.1934
14815W        W32339   6.853   9.337  17.228 -0.1830  0.0539  0.0256
14816W        W32340   3.418   5.881   1.763 -0.1467 -0.2235 -0.1013
14817W        W32341   0.078  16.350   4.436  0.3723 -0.0910 -0.1888
14818W        W32342   6.268   7.922   0.354  0.0371 -0.0310  0.0610
14819W        W32343   8.311   7.660   6.770 -0.1203  0.0348 -0.0971
14820W        W32344  16.836   4.826   1.087  0.0941 -0.3720  0.0381
14821W        W32345  15.187  12.228  14.155  0.1755  0.0998 -0.3963
14822W        W32346  13.179   4.616  16.988  0.2131  0.0926  0.2902
14823W        W32347  11.705  13.346  17.244  0.1690 -0.2130 -0.0313
14824W        W32348   5.838  11.989  17.085  0.0759  0.1305  0.1709
14825W        W32349  11.907   5.125   4.338  0.0669  0.2309  0.1320
14826W        W32350   4.512   2.045  13.830 -0.2708  0.0886 -0.1804
14827W        W32351   7.621   5.527   0.839  0.1589  0.1690 -0.0356
14828W        W32352  11.476  16.459  16.360  0.1744  0.0372  0.0440
14829W        W32353   0.321  11.305   3.898 -0.0166 -0.2611 -0.1632
14830W        W32354   8.476   1.628  16.135  0.0300 -0.0413  0.5854
14831W        W32355   2.125   2.556  12.843 -0.2277  0.1467  0.0045
14832W        W32356   1.889  15.123  14.121  0.3768  0.2376  0.0392
14833W        W32357  11.822   4.099   1.356  0.1027  0.0899 -0.0799
14834W        W32358   2.869  16.688   1.825  0.1486 -0.2128 -0.0688
14835W        W32359  13.360  13.132   3.983  0.0220  0.1041  0.0753
14836W        W32360   1.465  13.887   2.233  0.0485  0.2585 -0.2000
14837W        W32361   6.756  13.601   1.148  0.0852 -0.1599 -0.0398
14838W        W32362  13.646  10.335  13.677 -0.0859  0.2917 -0.2207
14839W        W32363  16.362   0.626   2.908  0.0989  0.0444 -0.0466
14840W        W32364   9.193  16.668  16.315 -0.0751  0.1086  0.1513
14841W        W32365   7.606   4.275  16.770 -0.0780  0.2504  0.0573
14842W        W32366  12.745   1.506   2.900  0.0906  0.0255  0.0503
14843W        W32367   2.401   9.593   2.781 -0.0461 -0.2733 -0.1461
14844W        W32368   5.137   5.227  14.784  0.0779 -0.1242 -0.0496
14845W        W32369  13.408   3.043   2.368  0.0549 -0.1009 -0.1638
14846W        W32370   2.673   6.542  13.248  0.0587  0.1270 -0.0714
14847W        W32371   0.134   5.207  12.243  0.2873 -0.0301  0.0786
14848W        W32372   9.159  16.703   1.199 -0.3625 -0.1320  0.2411
14849W        W32373  10.528  15.129  15.602 -0.0280 -0.3080  0.0271
14850W        W32374   0.802   9.309   6.321  0.0892 -0.1505  0.2488
14851W        W32375  16.657  16.995   0.154  0.1038 -0.2115  0.2218
14852W        W32376   7.777   6.263   1.437  0.1517  0.0073 -0.0919
14853W        W32377  13.083   9.537   3.866 -0.0405 -0.2246 -0.2581
14854W        W32378   2.359   7.556  16.537  0.1223  0.2197  0.3666
14855W        W32379  16.158  14.851   4.655 -0.0258  0.3144 -0.0102
14856W        W32380  12.525  12.095   3.932 -0.1325 -0.3309  0.1225
14857W        W32381  11.510  14.432   1.881 -0.1389  0.0210  0.1920
14858W        W32382   7.752  14.547   1.204  0.0601 -0.1485  0.1745
14859W        W32383   8.349   1.465  15.022  0.3600  0.1024  0.0168
14860W        W32384   0.179   2.531   2.923  0.0888 -0.0072  0.2706
14861W        W32385  15.805   3.486  17.342  0.1392 -0.1240  0.3370
14862W        W32386   1.308   1.348   3.204 -0.2256  0.4297 -0.2914
14863W        W32387  14.962   0.378  13.879 -0.3320  0.2508 -0.4393
14864W        W32388   4.501   0.177  13.008  0.2655 -0.1236  0.2121
14865W        W32389  13.646   2.664  17.559 -0.3077 -0.2848 -0.1881
14866W        W32390  14.116  15.119   1.650 -0.0054 -0.0935  0.1093
14867W        W32391   3.592  15.869   5.236 -0.2100  0.0894 -0.1838
14868W        W32392   4.161  15.429   2.058  0.0627  0.0833 -0.0107
14869W        W32393   2.188  11.433   2.018  0.1728 -0.1428 -0.0101
14870W        W32394   4.850  10.373  12.513 -0.0286 -0.1489 -0.0264
14871W        W32395  12.201  14.985   4.370  0.3044  0.0777  0.0674
14872W        W32396  14.462   7.506  16.617 -0.3167 -0.3091  0.1620
14873W        W32397  12.507   6.226   4.444 -0.1730 -0.1098 -0.1708
14874W        W32398   6.045   1.479  17.203 -0.1563  0.2457  0.2971
14875W        W32399  15.569  10.718   1.088 -0.0459 -0.0875 -0.0668
14876W        W32400   6.676  14.494   0.213  0.0671 -0.1904  0.0045
14877W        W32401  15.692   1.556   3.988  0.0275 -0.1319 -0.1035
14878W        W32402  13.216   2.116   0.777 -0.0726  0.0378  0.1179
14879W        W32403   6.634  16.183  14.270 -0.1120  0.0580  0.2538
14880W        W32404   9.509   8.457  16.077  0.0683 -0.2398  0.0235
14881W        W32405   8.700   8.859  14.626  0.0761 -0.0290  0.0337
14882W        W32406   3.943  15.594   2.497 -0.1402 -0.2546  0.0026
14883W        W32407  10.393   4.599  16.357 -0.0111  0.1957 -0.1927
14884W        W32408  12.310   1.888   0.749  0.0068 -0.1901  0.0017
14885W        W32409   5.259   6.301  14.951  0.1350 -0.0245  0.0311
14886W        W32410   4.286  11.546  14.370  0.1241 -0.0811 -0.1786
14887W        W32411   1.305  15.672   0.590 -0.0934  0.1355 -0.0902
14888W        W32412   1.238  12.218   0.537 -0.1439  0.1522 -0.0111
14889W        W32413  13.571   3.195   4.392 -0.1189 -0.1559 -0.3931
14890W        W32414  12.492   3.110   2.161 -0.1202 -0.1521  0.0454
14891W        W32415  15.003   7.914  12.279  0.0263  0.2021  0.0376
14892W        W32416  17.055   7.245   0.528 -0.1036  0.4128 -0.0494
14893W        W32417  16.666   7.575  15.591  0.0648  0.0641  0.0373
14894W        W32418   6.348  11.120   4.154  0.0915  0.2280  0.0532
14895W        W32419   0.728  16.960   3.047  0.0848 -0.0509 -0.0662
14896W        W32420  14.219   8.726  11.490 -0.5211 -0.2687  0.0417
14897W        W32421   1.551  15.861   0.125 -0.2737  0.1025 -0.4103
14898W        W32422  13.440  10.766   4.858 -0.0396 -0.1574 -0.0061
14899W        W32423  13.187  11.474  13.245  0.1272 -0.0574 -0.2712
14900W        W32424  12.763  14.401   0.646 -0.1103 -0.0176  0.0066
14901W        W32425   5.567   2.224  15.799  0.1253  0.0715 -0.1074
14902W        W32426   1.631   4.271   3.652  0.2038  0.0047 -0.0207
14903W        W32427  15.084  12.046  14.675 -0.0139  0.1285  0.2087
14904W        W32428   0.662   4.398   4.368  0.1200  0.2485 -0.2177
14905W        W32429   3.070  14.932   5.457 -0.2586 -0.1274 -0.1544
14906W        W32430  11.981   0.743   2.368 -0.2404 -0.1113 -0.3344
14907W        W32431   8.409   0.892  17.029 -0.2635 -0.0039 -0.0130
14908W        W32432   8.041   5.051   2.912 -0.1608  0.3641  0.2885
14909W        W32433   7.427   3.491  13.721  0.0369  0.0796  0.2467
14910W        W32434   6.989   3.170   4.913  0.0857  0.0416 -0.0678
14911W        W32435   5.017   7.075  14.566 -0.0667 -0.1571  0.0270
14912W        W32436   2.981   8.824  17.299  0.1371  0.3022  0.2342
14913W        W32437   3.378   8.123   6.133 -0.5570  0.0670 -0.0895
14914W        W32438   7.251   1.698   1.522  0.0065  0.3647  0.1039
14915W        W32439   9.907   2.959  12.713 -0.1036  0.2116 -0.1764
14916W        W32440   7.549  15.978  15.800 -0.2774  0.0225  0.2461
14917W        W32441  15.991  15.119   1.320 -0.0439 -0.0047 -0.0133
14918W        W32442   0.826  16.001  17.242  0.4331 -0.0485  0.1119
14919W        W32443  14.658  12.942   5.512  0.0143  0.2326  0.3121
14920W        W32444   6.422   1.534  13.306 -0.1836 -0.1476  0.1366
14921W        W32445  17.098   8.520   1.723  0.2759  0.1171  0.2299
14922W        W32446   7.931   6.949  12.807 -0.1264  0.4340  0.2325
14923W        W32447  10.464   0.657  14.190 -0.2385  0.1089 -0.1484
14924W        W32448  10.173  14.556  16.175  0.0768 -0.2927  0.2200
14925W        W32449  13.008  17.191  14.189 -0.0531 -0.0794  0.2679
14926W        W32450  15.682  16.740   0.682  0.1077  0.0977  0.3340
14927W        W32451  13.847  10.196   4.582 -0.2469  0.2384  0.1539
14928W        W32452   6.567  14.859  17.382 -0.3215  0.2616 -0.3041
14929W        W32453  12.372   0.922   4.565 -0.0843 -0.0904  0.0737
14930W        W32454  11.651   2.692  15.473 -0.1078 -0.1700  0.2099
14931W        W32455   1.117   8.584   1.953 -0.2045  0.0497 -0.1762
14932W        W32456   8.526  12.242  15.138  0.0369  0.0157  0.1537
14933W        W32457  16.762  12.405  12.429 -0.2251  0.0222  0.2077
14934W        W32458  15.096   0.491  14.398  0.0243  0.3852  0.1457
14935W        W32459   2.813  12.449  12.904  0.2610  0.1936 -0.0750
14936W        W32460   8.884  15.768   3.916  0.0692  0.2056 -0.2256
14937W        W32461   7.078   7.787   2.547 -0.1128 -0.0732 -0.3635
14938W        W32462  10.529   0.817  15.234  0.3598  0.2307 -0.0393
14939W        W32463   3.339   9.642  16.066 -0.0338 -0.0695 -0.1164
14940W        W32464   6.973   8.382  15.841  0.0735 -0.2763 -0.1681
14941W        W32465   3.533   1.572   2.429  0.2421  0.3195  0.0844
14942W        W32466  15.206  17.216  13.692  0.0071  0.1172  0.0821
14943W        W32467   6.275   6.820   0.477  0.0122  0.0219 -0.0906
14944W        W32468   7.382  15.743   2.439 -0.2263 -0.1741 -0.0707
14945W        W32469   3.187   2.234   4.739  0.2631  0.1072 -0.2716
14946W        W32470   7.823   8.653  17.104 -0.1345 -0.0182 -0.1077
14947W        W32471   7.138   6.102   5.299 -0.3509  0.1339 -0.1919
14948W        W32472  12.420  12.871  12.871  0.2895 -0.0951  0.3191
14949W        W32473   1.326   5.919  16.557  0.0119 -0.3146 -0.1743
14950W        W32474   5.039   1.258  15.550  0.0912  0.2151 -0.0932
14951W        W32475   0.878   3.024   1.934 -0.0196  0.0158 -0.0195
14952W        W32476   6.881   9.308   6.381 -0.2725  0.0057 -0.2114
14953W        W32477  11.486  10.048   3.844  0.1023  0.0420  0.3414
14954W        W32478   0.147  15.468   3.086 -0.0048  0.2944 -0.0242
14955W        W32479   9.054   7.347   4.407 -0.0071  0.1766  0.2574
14956W        W32480  14.020  14.829  12.508 -0.2833 -0.1130  0.2574
14957W        W32481   8.732   9.069   1.708 -0.0750 -0.1726  0.2997
14958W        W32482   1.067  16.076   3.675  0.3034 -0.3997  0.1183
14959W        W32483   5.609   7.074   4.294  0.0021 -0.0362 -0.4005
14960W        W32484   1.354  10.331   2.990  0.0919  0.0605 -0.1673
14961W        W32485   2.499   6.790   2.391 -0.2625 -0.2562 -0.1262
14962W        W32486   8.342  14.666   0.455 -0.2594 -0.1232  0.0428
14963W        W32487   4.357   2.586  13.508  0.1971 -0.0313  0.0147
14964W        W32488   3.948   5.347  16.345 -0.0910  0.1269 -0.2028
14965W        W32489   3.185  16.566   0.115 -0.0095 -0.0242 -0.0180
14966W        W32490   9.181   7.804  14.740  0.1278  0.0839  0.1271
14967W        W32491   4.685  13.424  12.693 -0.1072  0.1459  0.0562
14968W        W32492  14.133   4.112   5.293 -0.3697 -0.3508  0.3743
14969W        W32493   7.454  16.489  17.074 -0.0920  0.1158 -0.0621
14970W        W32494   0.521   8.275   5.566 -0.3872 -0.2040 -0.0373
14971W        W32495   5.574  13.967   5.038  0.0700  0.0357 -0.1848
14972W        W32496   3.806  16.990   0.031  0.1665 -0.1008  0.0796
14973W        W32497   0.118  16.427  12.589 -0.0487 -0.0198 -0.1664
14974W        W32498  15.856  15.787  14.725  0.2704  0.0547  0.0677
14975W        W32499   1.878   4.806   0.724 -0.2098  0.0583 -0.1630
14976W        W32500   6.934  13.331  15.667  0.0570  0.0131 -0.0913
14977W        W32501   1.286   0.444   3.571  0.0925 -0.0432 -0.2309
14978W        W32502  14.614   8.275   3.124 -0.2332  0.2107  0.0304
14979W        W32503  11.828  10.172   4.375 -0.0868 -0.1558  0.0765
14980W        W32504   9.229   1.107   3.336 -0.0416  0.0741 -0.2168
14981W        W32505   4.134   5.913   0.459 -0.4467 -0.5508  0.1448
14982W        W32506  14.362  15.460   3.354  0.1961 -0.0986 -0.2537
14983W        W32507   5.463   4.916   3.189 -0.2306 -0.0356 -0.0166
14984W        W32508  11.119  10.721  17.320  0.2283  0.2372  0.0184
14985W        W32509   2.019   2.332   1.662  0.0255 -0.0468 -0.1323
14986W        W32510   6.444   8.958  13.074  0.3902  0.2512 -0.0034
14987W        W32511   5.596  16.890   3.200 -0.2274  0.0191 -0.1654
14988W        W32512   2.985   1.547   1.040  0.0039  0.5087 -0.0184
14989W        W32513  15.298   4.664  16.697  0.0212 -0.3424  0.1406
14990W        W32514  13.207   5.800  12.747  0.2231  0.0186 -0.0660
14991W        W32515  14.648   3.955  15.713 -0.0046  0.0754 -0.2463
14992W        W32516   0.005  13.981  15.030 -0.0540  0.2220 -0.0561
14993W        W32517  11.768   8.412   2.293  0.0156 -0.0002 -0.2078
14994W        W32518   9.521   1.092   0.265 -0.0118  0.3800  0.1672
14995W        W32519   0.133   3.804   0.200 -0.1716  0.1798 -0.0408
14996W        W32520  12.044  14.683   5.157  0.0804 -0.0125 -0.0053
14997W        W32521  12.332   1.034   2.133  0.1068 -0.0095  0.1065
14998W        W32522   4.804   4.941   3.910 -0.0690 -0.4027  0.2001
14999W        W32523   2.182   5.268  15.016  0.0645 -0.1689  0.0061
15000W        W32524   6.643  16.665   1.935 -0.0318 -0.1388 -0.1934
15001W        W32525   6.306   2.371  13.643 -0.1147 -0.3261 -0.0359
15002W        W32526   6.441  14.094  12.750  0.2284 -0.0916 -0.0230
15003W        W32527  15.166  13.444   1.189  0.3786  0.0746 -0.2532
15004W        W32528   5.920   1.335  12.694 -0.1154  0.0727  0.1570
15005W        W32529  15.493   1.303   2.067 -0.3835 -0.0535  0.0160
15006W        W32530   9.730   0.168   0.688  0.0681  0.1999  0.2413
15007W        W32531   9.819  14.109   0.715 -0.0606 -0.1738 -0.1607
15008W        W32532  10.220   4.298  13.366 -0.2320 -0.2757  0.0687
15009W        W32533   6.744  12.235   4.166 -0.0413 -0.2161 -0.1836
15010W        W32534  12.713  12.115  17.222  0.0311 -0.0024 -0.0163
15011W        W32535  14.377  12.808  14.179  0.0305  0.0221 -0.3002
15012W        W32536  11.631   9.947  16.373  0.1161 -0.0276  0.0869
15013W        W32537  11.397  10.981  12.918 -0.0993  0.0064  0.0818
15014W        W32538   1.376  11.468   1.138  0.1173 -0.1678 -0.1901
15015W        W32539  12.384  12.784  14.640 -0.1339  0.1499 -0.0294
15016W        W32540  16.091  11.663   5.653 -0.0641 -0.1292 -0.1676
15017W        W32541  13.666  12.584   3.565  0.2015 -0.0008 -0.2368
15018W        W32542  12.507   5.620   4.008  0.2943  0.1003 -0.1219
15019W        W32543   4.254  14.620  14.720 -0.3223  0.2729  0.0733
15020W        W32544  10.555  10.496   1.207  0.1536  0.3066  0.1140
15021W        W32545  14.282  15.932  13.700 -0.1050  0.0225 -0.0052
15022W        W32546   2.923  13.578   1.546  0.2554  0.1705 -0.0939
15023W        W32547   8.728   4.125   1.101  0.0675  0.0925  0.0623
15024W        W32548  17.098  15.229   4.846  0.0605  0.2244 -0.2404
15025W        W32549   8.902  10.825   2.265 -0.0056  0.3311 -0.1438
15026W        W32550   1.488   5.358   1.845 -0.1157 -0.2449 -0.0011
15027W        W32551  12.481   8.516   0.310 -0.0701 -0.0106 -0.2017
15028W        W32552   0.088   2.356  15.032 -0.1150 -0.1803  0.4898
15029W        W32553   7.800  12.572  13.219 -0.2225 -0.1474 -0.0315
15030W        W32554   0.008   3.529  16.392  0.0585  0.1787 -0.0664
15031W        W32555   7.836  13.350   2.560  0.3329 -0.1451 -0.1465
15032W        W32556  15.287  15.344   3.609 -0.0269 -0.0233 -0.0494
15033W        W32557   7.075  13.126   3.439  0.1154 -0.1065 -0.0434
15034W        W32558   3.267  10.499  12.115 -0.2274 -0.0465  0.3948
15035W        W32559   4.017   7.405   5.647 -0.1399 -0.0431 -0.0308
15036W        W32560   8.124  11.196   2.934 -0.2151 -0.1472 -0.0915
15037W        W32561  11.727   7.284  16.473 -0.2314 -0.2559  0.0492
15038W        W32562  15.682   6.449  16.033 -0.2037 -0.0081 -0.2940
15039W        W32563  10.309  17.226  13.570 -0.0324  0.2848  0.0056
15040W        W32564   1.491   9.966   1.264  0.0237  0.1478 -0.3449
15041W        W32565   9.407   3.234  17.433 -0.2984 -0.0768  0.3323
15042W        W32566   9.188   2.765   2.236 -0.0104 -0.2223  0.1912
15043W        W32567   7.826  17.043  11.249  0.0513 -0.0722 -0.0004
15044W        W32568  16.411   8.956   4.863 -0.0194 -0.2239 -0.3765
15045W        W32569  11.258  12.901  14.201 -0.0204 -0.0601  0.0281
15046W        W32570   9.592  17.041  14.315 -0.0635  0.0197 -0.0750
15047W        W32571   4.758  10.176   2.771 -0.0373 -0.2645  0.0563
15048W        W32572  13.539   2.162  17.567  0.1648  0.2513  0.0639
15049W        W32573   7.713   7.765  12.384  0.1808 -0.0792  0.0133
15050W        W32574  11.384   8.295  16.559  0.3125  0.0218 -0.0577
15051W        W32575  11.469   8.008   5.666  0.0571 -0.1649 -0.3332
15052W        W32576   4.430   2.270  13.092  0.2945 -0.1072  0.2183
15053W        W32577   3.953   7.499  16.333  0.2636 -0.2210 -0.1489
15054W        W32578   0.963   3.002  15.504  0.0636 -0.0770  0.0090
15055W        W32579   1.340   8.152  13.406  0.1396  0.0162  0.1488
15056W        W32580   1.093  11.604  17.470  0.0166 -0.1200 -0.1288
15057W        W32581  10.395  13.257  13.452 -0.0828 -0.1004  0.2732
15058W        W32582  11.586   8.835  13.574 -0.2098 -0.1395  0.2296
15059W        W32583  15.170   7.981   0.608  0.0671 -0.3652 -0.0072
15060W        W32584  10.368  16.847  13.086  0.3878 -0.0422 -0.2545
15061W        W32585  10.285  13.120   1.869  0.0124  0.0098  0.0929
15062W        W32586  13.391   1.208   3.464 -0.0770  0.1732  0.1873
15063W        W32587   7.845   5.319  16.190 -0.0170 -0.1844  0.3483
15064W        W32588  13.020   7.738   2.444  0.1187 -0.0256 -0.3493
15065W        W32589   8.909   2.941  14.325  0.0086  0.2990  0.1451
15066W        W32590   0.869   5.737  12.678 -0.4431 -0.3118 -0.0133
15067W        W32591  14.627  13.178   1.218  0.0224 -0.1702  0.0740
15068W        W32592   4.670   6.753   0.814 -0.1052 -0.0848 -0.0230
15069W        W32593   2.871  11.354  17.625 -0.1359 -0.2016 -0.2146
15070W        W32594   1.150   4.016  13.965 -0.2037  0.1021  0.2444
15071W        W32595  11.961  14.723  14.159 -0.1280 -0.0880  0.0467
15072W        W32596   4.325  10.208   3.549 -0.2594  0.2030  0.0544
15073W        W32597  14.010  10.897   2.788 -0.1645 -0.0896  0.2144
15074W        W32598  15.565   2.870   5.282 -0.0195 -0.3309  0.0645
15075W        W32599   2.336   7.968  14.354 -0.2746 -0.3232 -0.2063
15076W        W32600   9.453   7.239  12.433  0.1413 -0.0274 -0.1131
15077W        W32601   7.609  14.410  12.178 -0.0027  0.2059  0.1684
15078W        W32602  11.331  14.212  14.177 -0.1266 -0.1937  0.1240
15079W        W32603   6.003  13.622  15.604 -0.0590  0.0563 -0.3345
15080W        W32604   6.547  10.288   4.454 -0.0844 -0.2138 -0.0507
15081W        W32605  16.543   5.806  11.477 -0.0150 -0.3482  0.2289
15082W        W32606  10.155   6.323  15.189 -0.1976 -0.0975 -0.1973
15083W        W32607  16.953   0.978  14.681  0.2517 -0.0297 -0.0929
15084W        W32608   1.510   0.504  16.768 -0.0236 -0.0133 -0.4844
15085W        W32609  17.130  11.318   2.596 -0.0241 -0.1456 -0.1319
15086W        W32610   0.296  14.202   1.946 -0.0841 -0.1483  0.0529
15087W        W32611   4.606  15.806   0.802  0.1956  0.1752 -0.1089
15088W        W32612  14.853   1.499   0.113  0.3151  0.1013 -0.0855
15089W        W32613   0.435   5.599  16.271 -0.0889  0.0675 -0.1949
15090W        W32614   0.558  10.387  14.080 -0.1109  0.0613 -0.1419
15091W        W32615   6.193  13.424   4.623 -0.2680  0.2016 -0.3905
15092W        W32616  11.782   1.598  13.765  0.0882  0.2482  0.2034
15093W        W32617  12.775  15.872  15.249  0.0274 -0.1096  0.1184
15094W        W32618  12.041   9.874   5.204 -0.2999 -0.0391  0.0340
15095W        W32619   6.264   1.698  16.254 -0.0643 -0.1392 -0.1178
15096W        W32620   4.422  15.526   0.379 -0.1526  0.1812 -0.3010
15097W        W32621  12.018   5.422  17.450  0.0202 -0.1885 -0.1097
15098W        W32622  14.310  13.027  16.229  0.2372 -0.1542  0.1684
15099W        W32623   3.830   8.432  13.515 -0.0313 -0.3050  0.1787
15100W        W32624   0.658   0.127  16.495  0.0537  0.1717 -0.0820
15101W        W32625   0.507   0.043   2.064  0.1868 -0.2450  0.1612
15102W        W32626   8.796   9.797   5.366 -0.0685  0.2701 -0.0146
15103W        W32627  10.023  13.437   0.935  0.2130 -0.1714 -0.0247
15104W        W32628   5.538  10.388   2.072 -0.0170 -0.2128  0.0877
15105W        W32629   7.435   9.289   5.707  0.2054 -0.2186 -0.0900
15106W        W32630  16.916  14.140  15.364 -0.2911  0.0285  0.0429
15107W        W32631   4.065   1.947   1.140  0.2336 -0.0624 -0.0287
15108W        W32632  15.714  16.763   4.040 -0.1072  0.0799  0.0875
15109W        W32633   0.879  13.388  16.592  0.2511 -0.0185 -0.2063
15110W        W32634   9.939   3.159   4.694 -0.2573 -0.0759 -0.2468
15111W        W32635  12.094   5.163  14.443 -0.0037  0.2636 -0.0028
15112W        W32636   0.477   5.802  15.212  0.1206 -0.0066  0.0518
15113W        W32637   1.766   7.832  17.278 -0.1984 -0.0021 -0.1219
15114W        W32638  15.209   2.635  14.087 -0.1911 -0.4206  0.0621
15115W        W32639   7.421  11.288  12.915 -0.0361  0.0240 -0.1671
15116W        W32640   9.457  14.988  15.634  0.1948 -0.3086 -0.1156
15117W        W32641  12.197   4.529  17.184 -0.3634 -0.0870  0.1651
15118W        W32642  14.753  14.031   0.390  0.0854 -0.3096  0.1538
15119W        W32643   0.340   0.579   3.323  0.0437 -0.0613  0.0417
15120W        W32644   0.033  15.799   0.179  0.0282 -0.4319  0.0246
15121W        W32645  11.306   7.488  15.275 -0.0551  0.0919  0.3204
15122W        W32646   6.805  14.891   1.355 -0.2057 -0.2321 -0.0635
15123W        W32647  10.534  11.971   0.179  0.2148 -0.2353  0.0355
15124W        W32648   2.192   3.750  13.953  0.0061 -0.0572 -0.3450
15125W        W32649   2.276   8.436  13.252 -0.0802  0.2234 -0.0685
15126W        W32650   2.002   1.085  17.268 -0.0333 -0.0261  0.2678
15127W        W32651   3.213  11.898   5.300  0.4145 -0.0160  0.5702
15128W        W32652   5.125  14.092  17.013  0.3289 -0.4003  0.0721
15129W        W32653  16.894  12.189  14.275  0.2255 -0.3427 -0.2376
15130W        W32654   2.609   7.001  13.414 -0.2669  0.4552 -0.0344
15131W        W32655  10.589   0.022  12.923  0.0565 -0.1400  0.1940
15132W        W32656  15.845   1.357  11.985 -0.0624 -0.1225  0.1045
15133W        W32657   4.766  11.960  12.947  0.2716 -0.4093  0.0211
15134W        W32658   3.503   9.903  12.823 -0.2228  0.1358 -0.1984
15135W        W32659   8.418  10.358   4.801 -0.0581 -0.0293 -0.1226
15136W        W32660   3.362   2.238   3.019 -0.1209 -0.0265  0.0559
15137W        W32661   4.965  15.749  17.406  0.0587 -0.3238 -0.3461
15138W        W32662  13.459  11.123  12.258 -0.1795 -0.0343 -0.0989
15139W        W32663  12.161  15.533   3.098  0.1604 -0.0907  0.0077
15140W        W32664  11.563  16.914   5.772 -0.1855 -0.1308 -0.2115
15141W        W32665   4.230   5.579   1.381  0.0918  0.3199 -0.3471
15142W        W32666   5.886   8.907   1.847 -0.0222  0.0626  0.4507
15143W        W32667  10.054  11.940  13.001 -0.1412  0.0689  0.2892
15144W        W32668   9.071  14.987  16.678 -0.0005 -0.0539 -0.1191
15145W        W32669   3.500  16.204  15.967  0.0069 -0.0319 -0.1481
15146W        W32670  12.753   2.241   5.669  0.3868 -0.1388 -0.1645
15147W        W32671  15.924  15.406  17.533  0.0260  0.0303 -0.2687
15148W        W32672  13.443  11.730  13.935 -0.3085 -0.0275 -0.2348
15149W        W32673  14.432   7.963  12.219  0.2989 -0.0700  0.1250
15150W        W32674  13.175  16.659   0.514 -0.2847 -0.3844 -0.0322
15151W        W32675  12.703   4.110   5.763  0.0411  0.1952 -0.1875
15152W        W32676  14.438  15.220  12.521 -0.3118  0.1653 -0.1085
15153W        W32677   6.184  15.130   2.637 -0.0114 -0.0308  0.2223
15154W        W32678  12.231   6.409  16.941 -0.1289 -0.0446 -0.1755
15155W        W32679   2.901   6.207   4.827 -0.0514  0.3637 -0.0331
15156W        W32680   2.310  13.107  12.701  0.4317 -0.0605  0.0335
15157W        W32681   8.171  16.181   0.685  0.2964  0.0917  0.2006
15158W        W32682  11.762   7.411   5.123  0.1256  0.0150  0.1790
15159W        W32683  11.741   4.594   4.272  0.2276  0.0793 -0.0979
15160W        W32684  16.480   2.321   5.296 -0.1890  0.0898  0.1504
15161W        W32685   2.121   8.661  15.220  0.1337  0.1307 -0.0602
15162W        W32686   1.569  12.760   1.608  0.1470 -0.0473 -0.0001
15163W        W32687  11.440  16.194   4.137 -0.0165  0.3869  0.1879
15164W        W32688   7.916   6.504   3.032  0.0634  0.1711  0.0428
15165W        W32689   7.828  16.431   2.401  0.0447 -0.0508  0.1570
15166W        W32690  16.106   2.509  16.285  0.1860  0.1546 -0.2303
15167W        W32691  10.852   4.032   5.052 -0.3180  0.1527 -0.1558
15168W        W32692  10.182  14.450  15.271 -0.0110  0.0957  0.2755
15169W        W32693  12.114   0.208   1.189  0.0979  0.1092 -0.1627
15170W        W32694   2.478   2.540  13.666 -0.0777  0.1508 -0.1680
15171W        W32695  16.580  13.299  16.930 -0.2115  0.0128 -0.1289
15172W        W32696  11.734   5.916  13.836  0.1347  0.0305  0.1785
15173W        W32697  14.923   0.283   0.441  0.0420  0.0219 -0.0848
15174W        W32698   7.905  11.243  13.877  0.4031  0.2648  0.0697
15175W        W32699   4.159  14.744   4.541 -0.1885 -0.2800 -0.1767
15176W        W32700   7.451  15.173  17.392 -0.0399  0.0931 -0.0216
15177W        W32701   1.781   4.177   2.435 -0.0738  0.1151 -0.2297
15178W        W32702   5.583   7.960  13.638  0.2634 -0.1277  0.1918
15179W        W32703  13.160  14.197   0.927  0.1872 -0.0447  0.0749
15180W        W32704  10.290   4.617  15.497 -0.2710  0.1089 -0.0259
15181W        W32705  11.848   5.063   2.989 -0.4715 -0.0151  0.0806
15182W        W32706   3.364  13.202   3.513 -0.2978  0.1837 -0.0276
15183W        W32707  15.076  16.667   3.320  0.0838  0.0925 -0.2636
15184W        W32708  12.754   4.293  14.010 -0.1872  0.1353  0.1638
15185W        W32709   4.023  11.804   0.137  0.0843  0.0571 -0.1158
15186W        W32710   2.533  15.771   3.588  0.1688  0.0171 -0.0200
15187W        W32711  13.186   0.110  16.631 -0.0727 -0.0309  0.2560
15188W        W32712   8.885  12.796  16.066  0.0212 -0.0343  0.0369
15189W        W32713  10.731   1.985  13.881 -0.0629 -0.2691  0.0900
15190W        W32714   1.762   1.958  15.409  0.0222  0.1209  0.1244
15191W        W32715   5.751   5.872  13.343  0.0802 -0.1342  0.1729
15192W        W32716  10.600  15.524  16.310  0.0962  0.0927 -0.3564
15193W        W32717   8.731   1.079  15.131 -0.1870  0.1359  0.0614
15194W        W32718  16.273   8.599   0.479  0.2240  0.0674  0.1351
15195W        W32719  15.246  10.317   4.290  0.1443  0.0451  0.1039
15196W        W32720  12.434   6.043  16.632  0.1920  0.0108  0.2459
15197W        W32721   4.966   0.853  14.744  0.2233  0.0936  0.0396
15198W        W32722   4.409   8.857  17.644  0.1649  0.2148 -0.0838
15199W        W32723   6.409   8.778  16.579  0.2736  0.0616 -0.1866
15200W        W32724   3.511  14.709  12.265  0.1036 -0.1969 -0.0150
15201W        W32725   3.652  13.925   2.729 -0.2414 -0.1681  0.1103
15202W        W32726   8.509  15.287  14.822  0.0427 -0.1644  0.1460
15203W        W32727  11.515   1.032   5.493  0.2007 -0.0162  0.1518
15204W        W32728   2.647   8.723   0.194 -0.3147 -0.1210 -0.0902
15205W        W32729   2.591  16.746  14.950  0.1950 -0.3082  0.3306
15206W        W32730   0.251   6.654   4.408 -0.0139 -0.0291 -0.1127
15207W        W32731   2.416  10.050   4.777 -0.3032  0.4221  0.1691
15208W        W32732   6.922   0.226   4.205  0.1113  0.2417 -0.3451
15209W        W32733   7.441  14.018  13.494 -0.2166 -0.1281  0.2830
15210W        W32734   5.056   8.844   3.266  0.3348  0.0264  0.0355
15211W        W32735  16.099  13.382  16.871  0.1054  0.1030 -0.0624
15212W        W32736  12.493  11.899   3.379 -0.2402 -0.1725 -0.3197
15213W        W32737   5.402  16.135  16.508 -0.0819 -0.0075 -0.3957
15214W        W32738  14.238   5.053   3.989 -0.1907 -0.0906 -0.0863
15215W        W32739  15.543  11.618  13.204 -0.0748 -0.1040  0.3322
15216W        W32740   2.269  10.340   0.866  0.4396  0.0539 -0.1988
15217W        W32741   2.393   6.706  13.922 -0.2817 -0.3402 -0.0888
15218W        W32742  16.451   0.228  12.303  0.5295  0.0678  0.0394
15219W        W32743   9.946   8.065  12.570 -0.3693 -0.1087  0.0968
15220W        W32744  10.614   7.675  15.195  0.2005  0.0525 -0.3133
15221W        W32745  11.652   2.994   3.278 -0.1100  0.3826 -0.0096
15222W        W32746   6.259   1.786  17.652  0.0055  0.1415 -0.0970
15223W        W32747  14.200  17.199  13.896  0.4092 -0.0050  0.0987
15224W        W32748  15.548   5.796  12.598  0.0544 -0.1068  0.1855
15225W        W32749   0.676   0.850   3.629  0.3129 -0.0978  0.0940
15226W        W32750  15.223  16.425  12.508 -0.0229  0.1107 -0.1377
15227W        W32751   2.484  16.122   5.482 -0.1242 -0.2136 -0.1429
15228W        W32752  10.388   0.707  12.700  0.1521 -0.2260 -0.0947
15229W        W32753  17.030  12.575  13.959 -0.1287 -0.0551  0.0723
15230W        W32754   9.017   6.078  16.268  0.1339  0.1742 -0.1478
15231W        W32755  15.610  17.219  13.288  0.0283  0.1997  0.0185
15232W        W32756   8.668  14.693   3.369 -0.0954 -0.0277  0.3079
15233W        W32757   7.839  16.046   0.259  0.2914  0.0310  0.1187
15234W        W32758   3.428   4.475   5.537 -0.3450 -0.0646 -0.1147
15235W        W32759   1.538   9.591  13.233 -0.2348  0.0560 -0.1333
15236W        W32760  16.777   6.407  17.287 -0.0763  0.0099 -0.1917
15237W        W32761  11.365  11.577   5.537 -0.2636 -0.1525 -0.3212
15238W        W32762  13.700   9.130   3.169  0.1475  0.4337  0.1300
15239W        W32763   9.105   4.855  17.313 -0.0040 -0.0377  0.2386
15240W        W32764   7.036   8.583  15.024 -0.1996  0.1696 -0.0698
15241W        W32765   6.484  13.390  12.450  0.5900 -0.0747 -0.1199
15242W        W32766  12.736   4.664  13.067 -0.1632  0.0096  0.0543
15243W        W32767   2.537  15.768  12.641 -0.1917  0.1087 -0.0479
15244W        W32768   0.374  16.661   4.711  0.0751  0.1356 -0.0346
15245W        W32769  10.467   7.665  17.401 -0.2671  0.1028  0.1657
15246W        W32770   9.881  12.083  13.434 -0.1248 -0.0100 -0.2841
15247W        W32771  11.392  13.996  13.147  0.0301  0.1459  0.0456
15248W        W32772  16.963   9.660  14.244  0.2969 -0.2712  0.1134
15249W        W32773   5.080  14.967   2.588  0.2223 -0.0927 -0.1411
15250W        W32774   9.228   7.446   1.296  0.1594  0.1682  0.7603
15251W        W32775   8.682  15.332   6.735  0.2950 -0.0994  0.3753
15252W        W32776  16.719   5.880  17.656  0.0683 -0.0157 -0.0757
15253W        W32777   5.646   6.112  14.100 -0.1545  0.0041  0.0050
15254W        W32778  15.034   0.811  15.085  0.1943 -0.2539  0.0556
15255W        W32779  15.106   9.202  11.532 -0.2278  0.4283 -0.2038
15256W        W32780  10.335   9.024  15.527 -0.1247  0.0771  0.2156
15257W        W32781   2.330   8.437  11.268  0.1348  0.0683  0.2612
15258W        W32782   3.961  11.031   4.354 -0.3291  0.0568 -0.3138
15259W        W32783  12.634   3.885   1.919 -0.0821  0.1458 -0.0670
15260W        W32784  12.263   8.724   2.386 -0.2760 -0.0087 -0.1593
15261W        W32785   7.497   6.801  17.112 -0.1228 -0.1808  0.2318
15262W        W32786  10.511   9.222   1.442 -0.3644 -0.0590  0.0552
15263W        W32787   3.903   5.710  13.988  0.1827  0.0573  0.1056
15264W        W32788   1.033   2.582  17.509 -0.0694  0.0488  0.1395
15265W        W32789  15.648   6.519  12.279  0.1834  0.4608  0.2059
15266W        W32790  13.831  10.382  14.734  0.1629  0.3598  0.2466
15267W        W32791  11.497  13.569  16.839  0.0365  0.2956  0.1328
15268W        W32792  13.444  11.706   4.794  0.0551 -0.2939  0.1783
15269W        W32793  15.081  15.138   5.164  0.1554  0.1317  0.3159
15270W        W32794   9.318  10.713  17.445 -0.1701 -0.0355  0.0342
15271W        W32795   2.050   4.932   2.850  0.0212 -0.1739 -0.1157
15272W        W32796   0.349   1.656   3.263  0.2131 -0.3896  0.1019
15273W        W32797   1.973  10.689   5.143 -0.1095 -0.0209 -0.1261
15274W        W32798   4.210   1.660   1.806  0.5854 -0.5628  0.0982
15275W        W32799   2.084   9.820   2.057  0.1807 -0.0699 -0.0702
15276W        W32800   5.752   2.288   5.067 -0.1216 -0.3137 -0.3280
15277W        W32801  13.004  15.090   2.964  0.0389  0.0758  0.0452
15278W        W32802  14.183   5.441   4.685  0.1697 -0.4339 -0.0516
15279W        W32803   9.412  13.221   2.247  0.0475 -0.3515 -0.0710
15280W        W32804  12.088  11.007   3.067 -0.0751  0.1746  0.0805
15281W        W32805   4.942   8.995   0.600 -0.0595 -0.1542 -0.2170
15282W        W32806   2.494   7.914   2.093  0.1341  0.0347  0.1794
15283W        W32807  11.227  12.730   4.144  0.1759  0.2014 -0.0383
15284W        W32808  14.603   5.193  11.143 -0.0765  0.0531  0.2362
15285W        W32809   3.070   8.522   4.502  0.0947  0.2665 -0.0654
15286W        W32810   0.255   3.112  17.236  0.2111  0.0284  0.0941
15287W        W32811   5.682  15.270   5.276  0.0009 -0.2176 -0.0718
15288W        W32812   9.755   1.057  14.722 -0.2678 -0.1190 -0.0284
15289W        W32813   8.335   9.085  14.867  0.0030 -0.1243  0.1206
15290W        W32814   4.959   6.739  16.566  0.0826  0.0631 -0.1933
15291W        W32815   3.247   5.984   0.332  0.2032  0.1082 -0.2211
15292W        W32816  16.690   7.418  12.546  0.1513 -0.4065  0.0730
15293W        W32817   8.050   0.427  13.979 -0.0801 -0.0296  0.0338
15294W        W32818   4.794   9.443   4.993 -0.1855  0.1179  0.1732
15295W        W32819   4.908   4.712   2.721 -0.1061  0.4244  0.0593
15296W        W32820  11.572  13.668   1.776 -0.0874 -0.0711  0.1081
15297W        W32821  16.324   1.997  16.423  0.0765 -0.0184 -0.4438
15298W        W32822  15.489   0.662   3.733  0.1074 -0.0518  0.0248
15299W        W32823   1.073   0.160   1.826  0.2191 -0.2562  0.3555
15300W        W32824   7.233  16.004  17.077  0.1746 -0.1364 -0.2300
15301W        W32825   9.700  13.138  17.480 -0.0691  0.1592  0.1775
15302W        W32826   0.676   1.601  13.079  0.1173 -0.1355 -0.2238
15303W        W32827   5.299  12.677   0.572  0.1159 -0.2392  0.4653
15304W        W32828   6.977  16.787   3.178  0.1004  0.2156  0.1426
15305W        W32829   7.529  17.175  15.666 -0.0388  0.2620  0.1014
15306W        W32830  16.847   8.054   3.438 -0.0141 -0.0250  0.1628
15307W        W32831   9.736   4.953  12.765 -0.0295 -0.1134 -0.1591
15308W        W32832  10.434  15.267   4.818  0.0867  0.1968  0.0737
15309W        W32833  15.477   4.868  14.383 -0.2407  0.2700  0.3122
15310W        W32834   4.187  14.256   1.933  0.5013  0.1187  0.0127
15311W        W32835  12.570  15.067   2.008  0.1988  0.1333 -0.0505
15312W        W32836  16.953  11.180  17.361  0.2390  0.3363  0.1069
15313W        W32837  14.291  13.334   3.847 -0.1008  0.0424  0.1601
15314W        W32838   3.193   9.509  13.854  0.1723 -0.0735 -0.0131
15315W        W32839   9.441  14.672   5.440  0.3039 -0.0468 -0.2327
15316W        W32840  12.193   8.257   2.653  0.0490 -0.2901  0.2777
15317W        W32841   0.964   3.345   0.368  0.0580 -0.0403 -0.3173
15318W        W32842   2.730  14.776  16.371 -0.1112 -0.3509  0.1296
15319W        W32843   4.977  11.254  16.555  0.1926 -0.0486 -0.2686
15320W        W32844   0.280  15.378   0.084 -0.1045  0.1709  0.2260
15321W        W32845   8.341   7.858  16.743 -0.2677 -0.1901  0.0837
15322W        W32846  13.033  16.174   0.575 -0.1180 -0.2644  0.1682
15323W        W32847  15.105  16.975   4.535 -0.0039  0.2898 -0.2026
15324W        W32848   9.441  16.491  17.187 -0.0694  0.1421 -0.0337
15325W        W32849  15.046   3.054  14.313 -0.0018  0.0346  0.0405
15326W        W32850   6.627   8.931   0.719 -0.0328 -0.3142  0.1317
15327W        W32851   9.375   5.235   6.236  0.2577 -0.0268 -0.0939
15328W        W32852   0.497  13.180  12.697 -0.1363 -0.0464 -0.1382
15329W        W32853   7.196   0.055   0.180  0.0170 -0.1553  0.2877
15330W        W32854  15.748  15.205  15.432  0.1845 -0.0764 -0.2265
15331W        W32855  17.034  10.051   2.927  0.2090 -0.0979 -0.0408
15332W        W32856   1.360  11.762   1.585 -0.0093  0.3248 -0.0366
15333W        W32857   6.328   6.947  17.646 -0.1682 -0.2106  0.1141
15334W        W32858   9.031   8.644  16.417  0.0489 -0.1146 -0.1097
15335W        W32859  12.567   6.453  15.243  0.2594  0.0988 -0.0549
15336W        W32860  11.016  13.753  13.703 -0.1900 -0.2065  0.0031
15337W        W32861   3.161  14.507  12.680  0.4296  0.0608  0.0150
15338W        W32862  12.949  12.812   0.926  0.0691  0.2769  0.0653
15339W        W32863   0.088  13.858   5.767 -0.0114  0.0149 -0.1232
15340W        W32864  12.402   6.361  14.717  0.1029 -0.0498 -0.1277
15341W        W32865   5.205   5.957  13.524  0.1578 -0.0042  0.1756
15342W        W32866   0.885   7.762  14.183  0.1200 -0.0666  0.0274
15343W        W32867   8.171   8.925   3.634  0.0294 -0.0490 -0.1757
15344W        W32868  11.394   0.459   3.394  0.2181  0.0369  0.1111
15345W        W32869  16.964   9.199  17.118  0.0263  0.0527  0.2210
15346W        W32870   8.802  10.649  16.595  0.3195 -0.0491  0.2379
15347W        W32871   0.692  14.456   1.763 -0.2951 -0.0630 -0.0295
15348W        W32872   8.874  13.580   3.148 -0.0417 -0.0699  0.2545
15349W        W32873   9.255   7.366   0.835 -0.3081 -0.1794  0.1740
15350W        W32874  13.587  16.913  14.496  0.0915 -0.2533  0.0078
15351W        W32875   6.521  11.852   3.528  0.0802  0.2916  0.0810
15352W        W32876   6.707  14.439   3.388  0.0242 -0.3807  0.0738
15353W        W32877  15.972  15.370   3.505  0.0294 -0.2466 -0.0300
15354W        W32878   5.370  10.454  12.698 -0.1870  0.1722  0.1594
15355W        W32879   0.814  16.740  17.580 -0.2239 -0.1338 -0.1813
15356W        W32880   0.285  15.550  14.180 -0.1573  0.1325 -0.4180
15357W        W32881   7.650  15.482   3.240  0.2912  0.0178 -0.0022
15358W        W32882  13.203   9.467   4.376 -0.0368  0.0404 -0.0443
15359W        W32883   6.767   7.443   4.266  0.3072 -0.0608 -0.0561
15360W        W32884  16.325   3.709   3.964  0.0790  0.0758 -0.0011
15361W        W32885   8.297   8.759   4.760  0.1237 -0.0375 -0.0662
15362W        W32886   2.414   7.484  14.224  0.2664  0.2539  0.1950
15363W        W32887  10.802   7.551   5.678 -0.2152  0.2215  0.1565
15364W        W32888  10.901   8.049   2.837 -0.1194  0.3290 -0.2184
15365W        W32889   9.099  13.225   4.332  0.1181  0.0891  0.2476
15366W        W32890  12.236   6.652   1.295 -0.0175  0.0634  0.3808
15367W        W32891   4.004   5.303  15.853 -0.0232  0.1612  0.1079
15368W        W32892  11.075   6.536   5.605  0.2344 -0.1353 -0.2060
15369W        W32893  15.960  11.276  11.849  0.3081  0.1601 -0.1327
15370W        W32894  13.304   5.038  15.534 -0.0145  0.2944  0.0168
15371W        W32895   9.470  16.262   2.448  0.0702 -0.2682 -0.0364
15372W        W32896   5.818   7.896  12.799  0.1113 -0.2523 -0.0821
15373W        W32897  13.595  13.371   0.592 -0.1661  0.2055 -0.0731
15374W        W32898  13.436  14.075   3.402 -0.0584  0.1411 -0.1870
15375W        W32899  11.986   9.143   3.295  0.3082  0.3360 -0.2767
15376W        W32900   7.296  16.953   0.571 -0.2698 -0.1505  0.0513
15377W        W32901   2.668  14.880   3.390 -0.0423  0.0663  0.0356
15378W        W32902  11.205   0.613   5.711 -0.0847 -0.1586 -0.1568
15379W        W32903   5.215   7.286  16.552 -0.0328 -0.0616  0.1217
15380W        W32904   5.723  12.193   2.577  0.4045  0.1436 -0.2449
15381W        W32905   8.601   7.272   4.653  0.1982  0.3703 -0.0875
15382W        W32906   8.617  15.065   5.618  0.1945  0.1650  0.1275
15383W        W32907  14.870   2.401   1.221 -0.0595 -0.0333  0.0751
15384W        W32908   9.810   3.404  16.182  0.0795  0.1022  0.3082
15385W        W32909  16.266  16.252   5.645  0.1394 -0.0027 -0.2439
15386W        W32910   4.786   4.838  16.017  0.2783 -0.0929 -0.5018
15387W        W32911   6.292  11.143   1.017 -0.2834  0.0482  0.0398
15388W        W32912   2.661   3.736   2.636 -0.0372  0.0727  0.2749
15389W        W32913   2.830  16.807   1.078 -0.1440  0.0231 -0.0752
15390W        W32914   2.436   8.426  14.582  0.1208  0.1407 -0.1712
15391W        W32915  11.060   1.205   0.104 -0.2386  0.1406 -0.0009
15392W        W32916  12.727   8.922  11.566  0.2370  0.2799  0.0650
15393W        W32917  16.614   2.396  16.222 -0.1312  0.0195 -0.1570
15394W        W32918   7.557  11.208   0.523 -0.1447  0.0435  0.0413
15395W        W32919   4.653  14.063  14.962 -0.0707  0.3295  0.0532
15396W        W32920   0.585   2.228  12.957 -0.1074 -0.3394  0.3815
15397W        W32921   9.976   1.669  16.742 -0.1998 -0.2536 -0.0389
15398W        W32922   8.980   1.027  14.080 -0.3439  0.0015 -0.0209
15399W        W32923   0.637   9.617   2.913  0.1915 -0.0382  0.4023
15400W        W32924  10.360   3.814  13.151 -0.2038  0.0744 -0.1913
15401W        W32925   7.707  11.295  15.136 -0.2303 -0.1219  0.0248
15402W        W32926  12.150   8.894   1.911  0.0356  0.1656  0.1843
15403W        W32927   4.084   8.396  15.570 -0.1551  0.0409 -0.1650
15404W        W32928  16.687   0.981   4.461  0.0965  0.1661  0.1952
15405W        W32929   9.550  17.240  17.199 -0.0294  0.0177 -0.0559
15406W        W32930   8.402   7.418  17.515  0.0782  0.1132 -0.0908
15407W        W32931   0.282   6.089  14.804  0.0827  0.1632  0.2443
15408W        W32932  15.724  16.485   1.199  0.3022  0.2591 -0.1084
15409W        W32933   7.900   3.623  16.751 -0.2778  0.0990  0.2369
15410W        W32934   5.054  12.664   1.693  0.0287  0.1978  0.0933
15411W        W32935  16.072   6.143   4.093 -0.2476  0.0415  0.0279
15412W        W32936   5.855   7.968   4.222  0.1235 -0.1259 -0.0875
15413W        W32937   6.473   2.631  15.790 -0.0026  0.2274 -0.2459
15414W        W32938   2.293   5.012   4.695  0.2980  0.2659  0.0262
15415W        W32939   1.752   5.662   4.623  0.2241  0.1650  0.2711
15416W        W32940  16.911  13.829   0.878 -0.1912  0.0292  0.3192
15417W        W32941   2.316  15.028   5.242 -0.1069 -0.0781  0.0095
15418W        W32942  11.696   9.554   3.579 -0.1335  0.0490  0.3494
15419W        W32943   6.973  14.234   5.564 -0.0624 -0.1079  0.1801
15420W        W32944  16.001  16.740   0.188  0.1466  0.1974  0.0152
15421W        W32945  15.893   7.806   4.201 -0.3332  0.0350  0.1791
15422W        W32946   6.877  13.715   5.715 -0.1729 -0.1477 -0.0394
15423W        W32947   8.183  17.092   3.599 -0.1346 -0.2329  0.0384
15424W        W32948  15.708   5.036   0.397 -0.0622 -0.0206 -0.1750
15425W        W32949   3.844   9.557   3.888 -0.0329  0.5000  0.0863
15426W        W32950   2.793  14.345  14.914 -0.0694 -0.1086  0.0765
15427W        W32951   4.061   4.839  16.501 -0.1230  0.0630 -0.0215
15428W        W32952  12.434   8.137  13.851 -0.2381 -0.2848  0.0503
15429W        W32953  15.117  16.143   3.134  0.0766 -0.0925  0.2085
15430W        W32954  16.445   4.279  16.247 -0.0047  0.1627  0.1587
15431W        W32955  11.761   5.483   0.257 -0.1425 -0.0880  0.0895
15432W        W32956  10.668   6.307   0.884  0.1179 -0.0496 -0.0464
15433W        W32957   9.156  14.255  16.115  0.0529 -0.2542  0.2037
15434W        W32958  13.629   7.221   4.097 -0.0481  0.1803  0.0091
15435W        W32959  16.993   9.502   2.835  0.0054  0.0921 -0.0650
15436W        W32960  12.574  13.853   3.078 -0.1249  0.2579 -0.0775
15437W        W32961   1.735   9.931   4.172 -0.0042 -0.0809  0.0683
15438W        W32962   4.648   9.295   2.873  0.0709 -0.2164 -0.1706
15439W        W32963   6.596  12.705  17.512  0.4951  0.0793 -0.0321
15440W        W32964  14.467  13.715   4.184  0.1590 -0.0903 -0.1145
15441W        W32965   5.643   9.986   2.976 -0.1950  0.0563  0.1702
15442W        W32966   1.921   3.110  14.587  0.1091  0.0480  0.2452
15443W        W32967   2.402   8.435   1.974  0.0489  0.0981 -0.2124
15444W        W32968   3.498   2.809   5.347 -0.2502  0.2292  0.2971
15445W        W32969  10.840   9.482   0.217  0.2610 -0.1199  0.1078
15446W        W32970   8.138  16.225   2.786 -0.0294  0.0048 -0.1075
15447W        W32971  15.352  12.779   4.210 -0.0653 -0.2673  0.0491
15448W        W32972   5.427   8.662  14.835  0.2781  0.2220 -0.2105
15449W        W32973  12.159   2.892   3.045 -0.1902  0.0146  0.2304
15450W        W32974   1.366   6.480   4.352  0.1385  0.0107  0.1180
15451W        W32975  14.766  12.858   4.338  0.2223 -0.0242 -0.0457
15452W        W32976  10.899   7.841  12.318  0.0889  0.0140  0.1745
15453W        W32977   0.902   3.263   4.898  0.0082  0.0302  0.0107
15454W        W32978   2.417  10.990  15.933 -0.1398 -0.2475  0.0712
15455W        W32979   1.427  16.761  15.459 -0.0114  0.3303  0.1109
15456W        W32980  10.798  10.613  14.392 -0.1768 -0.0052 -0.1198
15457W        W32981  15.809  12.472   4.044  0.1561  0.3206 -0.1623
15458W        W32982   0.544   3.839  15.876  0.0611  0.0911 -0.0711
15459W        W32983   0.605   3.432  12.379  0.0890  0.2421  0.1296
15460W        W32984   1.459  17.122   1.050 -0.2199 -0.3771  0.1616
15461W        W32985  12.254   7.940  16.371 -0.0990 -0.3768  0.2836
15462W        W32986   3.821  13.703  13.427  0.0713  0.2713  0.0255
15463W        W32987  11.733   5.056  17.640 -0.0108 -0.0792 -0.0671
15464W        W32988  11.837   9.111  17.096  0.0179  0.1486 -0.1118
15465W        W32989   5.038  14.872   0.591 -0.0555  0.0525  0.1706
15466W        W32990   7.045   8.300   4.393  0.1690  0.0711  0.2981
15467W        W32991  13.488  14.356  17.532  0.2249 -0.0908  0.1293
15468W        W32992   2.362  12.595   0.102  0.1183 -0.1103 -0.4821
15469W        W32993  14.505   4.722   4.313 -0.0157 -0.0887 -0.2711
15470W        W32994  10.607   2.950  14.476 -0.1444  0.0434  0.0840
15471W        W32995  13.390  13.702  12.918  0.0061  0.0775 -0.0269
15472W        W32996   5.755  11.988  11.978  0.0795  0.0013 -0.2752
15473W        W32997  15.880  14.672  13.648  0.1610  0.0153 -0.0321
15474W        W32998  13.579  13.543  16.562  0.0518 -0.2630 -0.2394
15475W        W32999  12.430  13.619  16.325 -0.1897  0.1267  0.1285
15476W        W33000   0.864   7.797  16.009 -0.0776 -0.3380 -0.2095
15477W        W33001   2.667  13.921   0.590 -0.0456  0.0228 -0.1487
15478W        W33002  15.662  15.546  12.092 -0.0869 -0.1928  0.1995
15479W        W33003   5.792  11.492  14.375  0.1832  0.1719  0.2999
15480W        W33004   7.781  16.102  17.088 -0.1202  0.2203  0.1235
15481W        W33005  14.823   9.185  16.285  0.0307 -0.1990  0.2547
15482W        W33006   4.063  10.445  13.175  0.2591 -0.0195 -0.0509
15483W        W33007  11.695   5.427  15.096  0.2909 -0.1414  0.2109
15484W        W33008   0.831   8.361   4.981  0.0078 -0.4878 -0.0546
15485W        W33009   4.376  16.763   4.507  0.1953 -0.0598 -0.2705
15486W        W33010  11.536   4.322  12.883 -0.0468 -0.1093 -0.0292
15487W        W33011  13.162   2.078  17.032  0.1499  0.0316 -0.0651
15488W        W33012  14.334   2.105  16.375 -0.2090 -0.2370 -0.0249
15489W        W33013  15.122  13.296  14.255  0.0618  0.0662 -0.1718
15490W        W33014   3.347  13.424   1.293 -0.0129  0.2166  0.0143
15491W        W33015  12.496   0.297   1.506 -0.2927 -0.1888 -0.1072
15492W        W33016   8.900   7.790   1.181 -0.2374 -0.1719  0.1076
15493W        W33017   6.058   5.065   1.876  0.0577 -0.0113 -0.0659
15494W        W33018   5.346  16.864   4.564 -0.1224  0.1366  0.0312
15495W        W33019  11.848   9.334  12.062 -0.0560  0.0694 -0.2017
15496W        W33020   4.544  16.794  14.252 -0.1174  0.1396 -0.0749
15497W        W33021   1.319   5.377  16.804  0.1760 -0.1883  0.1167
15498W        W33022   7.291  16.176  15.383  0.1048  0.2129  0.1257
15499W        W33023   3.356  12.436   4.638 -0.0064 -0.2664 -0.3906
15500W        W33024   5.946   7.680  13.279  0.0370  0.0265  0.1697
15501W        W33025  15.849   0.787   3.205 -0.1670  0.0313 -0.3706
15502W        W33026  15.656   7.039   1.917 -0.0105 -0.1926  0.2188
15503W        W33027   6.190  15.622  16.284  0.0665 -0.0689  0.1539
15504W        W33028   0.892  14.746  14.629  0.0439 -0.0008  0.1908
15505W        W33029   9.749   1.975   0.030 -0.1515 -0.5046  0.0125
15506W        W33030  14.046   5.741  16.395 -0.0804 -0.0301 -0.2206
15507W        W33031  13.771   7.206  15.797 -0.0017 -0.4024  0.1038
15508W        W33032   1.244   6.916   1.643 -0.3301  0.1885  0.0321
15509W        W33033  14.946   6.766  16.433  0.3148  0.2697  0.0295
15510W        W33034   9.803   4.248   0.704  0.1040 -0.0691  0.2377
15511W        W33035   2.638   1.607   4.506 -0.1593 -0.1893  0.0150
15512W        W33036  11.275  12.555   3.580 -0.0965 -0.0539  0.0916
15513W        W33037  16.502  13.283  12.251  0.1332  0.0292  0.0258
15514W        W33038  14.994   2.297  14.866  0.2743  0.0868 -0.1425
15515W        W33039  17.073   0.789  16.511 -0.3337 -0.0320  0.1459
15516W        W33040   8.088   3.395   2.671  0.0154  0.2220 -0.1977
15517W        W33041   5.318   6.799  14.834 -0.1249 -0.3776 -0.1271
15518W        W33042  13.407   5.360   4.335 -0.1639 -0.0724  0.1388
15519W        W33043   3.996  10.704   1.370  0.2873  0.2888 -0.2882
15520W        W33044   1.821  16.286  12.690 -0.0210 -0.1209  0.1098
15521W        W33045   4.761  17.227   0.717 -0.1667  0.0367  0.1373
15522W        W33046  10.039  13.330   0.172 -0.3987  0.2159  0.0572
15523W        W33047   2.054   5.207  15.746 -0.2496 -0.0937 -0.1438
15524W        W33048  10.993   8.534  16.315 -0.3553 -0.1785  0.0813
15525W        W33049  17.182  10.754   3.339  0.0236 -0.0636 -0.0907
15526W        W33050  13.628   8.005  15.497  0.0009 -0.3212 -0.2643
15527W        W33051   1.240  10.753  15.055  0.1679  0.0737 -0.3339
15528W        W33052  11.441   9.617   0.573  0.2171  0.2853  0.1079
15529W        W33053  15.226   4.140  15.420  0.0940 -0.3249  0.1111
15530W        W33054  10.095   2.230   2.001 -0.0393 -0.1100  0.0551
15531W        W33055  11.498   9.040   3.521 -0.0358  0.0391 -0.2768
15532W        W33056  15.386  16.086  17.139  0.2084  0.3540 -0.1735
15533W        W33057   5.670   5.542  12.705 -0.1438 -0.4422 -0.3405
15534W        W33058  11.016  13.545  17.026 -0.0497 -0.1811  0.0474
15535W        W33059   3.425   1.371   0.108 -0.1482  0.1553  0.1731
15536W        W33060   0.969  17.100  13.985  0.1365 -0.2046 -0.0277
15537W        W33061   8.548   9.791   1.874 -0.2124 -0.3029  0.1046
15538W        W33062  15.959   3.009   4.272 -0.0437 -0.1237 -0.0048
15539W        W33063   3.267   4.009   2.111 -0.0864  0.1125  0.2110
15540W        W33064   7.281  16.139   4.219 -0.1825  0.2358 -0.0864
15541W        W33065   0.124   2.405   0.869  0.0498  0.0773 -0.3352
15542W        W33066   5.890  14.705   1.316 -0.1745  0.0490  0.0452
15543W        W33067   7.391  16.228  14.761  0.0623  0.3638  0.2814
15544W        W33068   4.123  13.883   4.382 -0.2699  0.1539 -0.1892
15545W        W33069   2.413  15.300  13.527 -0.0793  0.0947  0.1551
15546W        W33070  12.153  16.099   3.624  0.1102  0.0363 -0.0299
15547W        W33071  13.130  15.213   4.618 -0.1290  0.4238  0.3255
15548W        W33072   7.467  12.873  12.935  0.2357  0.2564 -0.0154
15549W        W33073   9.912  11.012   3.286  0.0409  0.0949  0.0224
15550W        W33074  16.548  12.904  11.734  0.0302  0.0091 -0.0091
15551W        W33075   5.826   7.980  15.059 -0.1136  0.1756  0.0397
15552W        W33076   9.366   6.648   0.889 -0.1245 -0.2001  0.0054
15553W        W33077  11.141  14.788  12.868  0.1125  0.0466  0.2524
15554W        W33078  11.138   2.654  13.034 -0.2630 -0.1967  0.1630
15555W        W33079  13.975   3.909  15.006  0.0067 -0.0826 -0.3137
15556W        W33080   9.947   2.062  16.036 -0.0478 -0.2988  0.0675
15557W        W33081  10.142   7.962   1.800  0.0372  0.3333  0.3234
15558W        W33082  11.450  11.046   3.581  0.0279 -0.2051 -0.0135
15559W        W33083  16.513  11.886   4.393 -0.3858  0.3042 -0.1519
15560W        W33084  15.614  14.813   1.496 -0.1372  0.1452 -0.0091
15561W        W33085   9.827   4.918   3.934  0.1496  0.0070 -0.1071
15562W        W33086   0.686   7.779   0.510  0.5339  0.0243  0.2372
15563W        W33087  12.056   3.758   4.653  0.0289  0.0011  0.1316
15564W        W33088   6.431   6.178  14.577 -0.1667 -0.0857  0.1256
15565W        W33089   9.611  11.863   2.897 -0.1258 -0.0725 -0.0013
15566W        W33090  10.861   9.613  16.069 -0.0093  0.0521  0.1959
15567W        W33091   7.229  11.996   5.103 -0.0671 -0.1428 -0.0562
15568W        W33092  15.349   6.881  16.175  0.0259  0.2544 -0.0452
15569W        W33093  15.639   8.954  17.428  0.2360  0.2220 -0.0607
15570W        W33094  13.872  14.672  13.146 -0.3722  0.2654 -0.1654
15571W        W33095  14.076   8.744   3.112  0.0357  0.3301  0.3521
15572W        W33096  16.848   4.169   0.367 -0.1333 -0.0512 -0.2347
15573W        W33097  13.083   9.204  15.338 -0.1801 -0.1456 -0.3518
15574W        W33098   2.918  11.677  15.570  0.0020  0.3010 -0.0953
15575W        W33099   3.893  13.279  13.725 -0.0164  0.0354  0.1969
15576W        W33100   2.734   0.658   4.585 -0.3967  0.0822 -0.2333
15577W        W33101  12.515  14.493   5.035  0.2504  0.0082  0.0945
15578W        W33102   3.461  10.317   0.215  0.0078  0.0994 -0.0301
15579W        W33103  10.421  16.905  14.228  0.2189 -0.0983  0.1947
15580W        W33104   0.616   9.227  12.318  0.2015  0.0188 -0.0629
15581W        W33105  12.315   3.322   6.445  0.1836  0.1905 -0.0054
15582W        W33106   2.599   4.767  14.490  0.1389  0.1281  0.1864
15583W        W33107  16.851  14.635  11.969 -0.1025 -0.1997 -0.4429
15584W        W33108  15.498   9.180  12.782 -0.0810  0.0124  0.0294
15585W        W33109  16.585   7.914  14.686 -0.0069  0.1139 -0.1221
15586W        W33110   5.165   7.551  11.965 -0.1513  0.1574  0.2634
15587W        W33111  12.751  14.194  14.030 -0.0332 -0.0325 -0.2103
15588W        W33112  15.136   0.343   2.362  0.0778 -0.3019  0.1072
15589W        W33113  13.795   7.395  16.239 -0.0463  0.0831  0.0800
15590W        W33114   9.131   6.193   5.694 -0.2250 -0.0422 -0.1116
15591W        W33115   4.390   4.423  17.586  0.1716  0.4080 -0.0678
15592W        W33116   4.696   8.583  17.352 -0.0351  0.0597  0.0197
15593W        W33117  11.888  11.420   2.377  0.0361 -0.3364  0.3513
15594W        W33118  11.068   6.152  16.129  0.2594  0.0383  0.1709
15595W        W33119  11.624  14.125   2.709  0.2249 -0.3441 -0.2111
15596W        W33120   4.643  16.773   0.564  0.0516 -0.0418  0.0140
15597W        W33121  14.905  12.965  16.320 -0.2247  0.0095  0.1208
15598W        W33122  13.792  11.152  15.169  0.0539 -0.3700  0.2713
15599W        W33123   7.636   1.333  13.326  0.0247  0.2172  0.1975
15600W        W33124   4.936   7.530   0.676  0.3279 -0.1619  0.0554
15601W        W33125   5.291   2.294   4.111 -0.2334  0.1899 -0.1120
15602W        W33126  12.161   7.028  15.016 -0.0916 -0.3504 -0.1000
15603W        W33127  11.487  15.200   1.387 -0.1793  0.0279  0.2185
15604W        W33128   3.613  13.875   0.119 -0.1505 -0.1859  0.0788
15605W        W33129   2.240   1.498  16.610 -0.0814 -0.2873 -0.1088
15606W        W33130   4.344  13.841  16.965  0.0649 -0.3467 -0.2498
15607W        W33131  16.074   7.710   1.291 -0.3334 -0.0273 -0.2879
15608W        W33132  12.530   6.390  17.377  0.3347 -0.2534  0.2666
15609W        W33133   4.108   9.151  14.087 -0.1405  0.1901  0.1898
15610W        W33134   1.163   8.000   2.736 -0.2598 -0.0105 -0.4129
15611W        W33135   1.796  15.756   5.188  0.4119 -0.1879  0.1985
15612W        W33136   5.912  12.260   1.874 -0.0310 -0.0502 -0.1336
15613W        W33137   6.695  15.398   3.252 -0.2003 -0.2415  0.0736
15614W        W33138  14.180   7.890  13.953 -0.1035  0.0094 -0.2794
15615W        W33139  13.093   3.295   5.197  0.0302 -0.1730 -0.0934
15616W        W33140  10.103  17.043   0.471  0.1738  0.1671 -0.4009
15617W        W33141  10.691   3.485   3.289 -0.2499  0.0067 -0.0051
15618W        W33142   7.560   9.137   2.969 -0.3114 -0.1028 -0.3417
15619W        W33143  17.196   3.407  12.387  0.3133 -0.0942  0.0826
15620W        W33144   7.448  10.950  13.890 -0.1550 -0.2528  0.0010
15621W        W33145   9.904  11.203  13.691 -0.3552 -0.0611  0.2533
15622W        W33146   3.154   3.787  16.389 -0.0862 -0.1687  0.1703
15623W        W33147   5.343   3.925   4.189  0.3560  0.0521 -0.0736
15624W        W33148   0.965   5.854  11.794 -0.0109 -0.1437  0.0690
15625W        W33149  12.726   2.769  13.347  0.2190 -0.1321 -0.3013
15626W        W33150  11.301   2.397   2.359  0.1264 -0.0322  0.0991
15627W        W33151  12.342  15.925   2.292 -0.1894  0.0214 -0.0567
15628W        W33152  12.979  10.031  15.622 -0.0838 -0.0068  0.1812
15629W        W33153  11.528  13.580  12.690  0.2175 -0.2945 -0.1705
15630W        W33154   0.098   9.944   0.866  0.3733 -0.2149 -0.0984
15631W        W33155   0.568   8.306  12.717  0.1924  0.0311 -0.1396
15632W        W33156   4.925  12.687  13.334  0.2101 -0.0743 -0.0156
15633W        W33157   1.624   0.592  14.155  0.0293 -0.2073 -0.1799
15634W        W33158   4.902  14.603   5.223  0.2020  0.0514  0.0608
15635W        W33159  14.045   3.329  11.909  0.0115 -0.1791 -0.2449
15636W        W33160   2.673   9.516   4.310 -0.3276 -0.1178  0.1644
15637W        W33161   8.957   0.024   5.343 -0.2858  0.0368  0.0456
15638W        W33162   7.940   8.028   1.139  0.0637  0.2922  0.2424
15639W        W33163   7.670  10.982   1.232  0.0496  0.0938 -0.0416
15640W        W33164   3.936   3.776   0.400  0.0837 -0.1017  0.1963
15641W        W33165  12.096   4.641  14.556  0.0462  0.2274  0.4164
15642W        W33166   8.236  10.112   4.448 -0.4020  0.2006 -0.0997
15643W        W33167   7.562   1.349   3.883  0.2570 -0.1927  0.2971
15644W        W33168  15.678   4.229   1.951 -0.2116  0.3589  0.0943
15645W        W33169  16.080  14.046  16.814 -0.0107 -0.1567  0.2570
15646W        W33170  15.943   2.766  15.159 -0.0726  0.1222  0.1104
15647W        W33171   9.095   4.181  16.737 -0.0110  0.1257  0.1731
15648W        W33172   3.105  10.127   0.903  0.2025 -0.0718 -0.2320
15649W        W33173  15.161  13.196   4.388  0.0794  0.0634  0.2241
15650W        W33174   3.681   2.890  13.005  0.0813  0.1234 -0.2457
15651W        W33175   9.066   3.980   1.431  0.1102  0.1544  0.0627
15652W        W33176  11.854  10.082  11.746  0.1067 -0.0835  0.1004
15653W        W33177  16.217   4.577  12.244  0.5200  0.1371 -0.2606
15654W        W33178   1.862  15.114   4.612 -0.1848  0.0377  0.0551
15655W        W33179   5.825  13.787  17.161 -0.1143 -0.0075  0.2165
15656W        W33180  13.738  14.500  15.200  0.1869  0.0664  0.0526
15657W        W33181   7.942  16.168   5.145 -0.1148 -0.0704 -0.1027
15658W        W33182   9.194  12.158   5.798 -0.0934 -0.0237 -0.2808
15659W        W33183   1.003   4.878  15.738 -0.1893  0.1334 -0.1466
15660W        W33184  15.335  13.345  15.210  0.0674  0.0852 -0.0354
15661W        W33185   6.473   9.793  17.581  0.1075 -0.1587  0.1739
15662W        W33186   4.450  12.881  14.160 -0.0290  0.2439 -0.2078
15663W        W33187  11.674  16.423  14.355  0.0403 -0.4262  0.0686
15664W        W33188   2.302  15.348   3.318 -0.2231 -0.0090 -0.0505
15665W        W33189  12.970   9.516   6.373 -0.1006  0.2939  0.1101
15666W        W33190   9.017  12.227  13.729 -0.2029  0.0573 -0.1299
15667W        W33191  11.009  15.845  14.905 -0.1995 -0.1799  0.1683
15668W        W33192  14.710   8.588  13.005 -0.1216  0.0621  0.1628
15669W        W33193   1.741   5.929   3.150  0.2030  0.1061  0.1176
15670W        W33194  10.085  13.293  15.707  0.2875  0.3698 -0.2224
15671W        W33195   2.575  13.032  16.199 -0.2864 -0.1301  0.0916
15672W        W33196   5.413   7.137   5.852 -0.1256  0.2890 -0.1156
15673W        W33197   0.624  11.678  13.593 -0.2277  0.0542  0.3979
15674W        W33198  15.650   1.448   1.322  0.2225  0.0474  0.1732
15675W        W33199  10.893  11.631  12.500 -0.1256  0.1260 -0.0601
15676W        W33200   2.578  17.027   5.428 -0.0689  0.1212 -0.2274
15677W        W33201  15.881   3.585  12.686 -0.0735  0.0267  0.2983
15678W        W33202  13.052  16.257  16.155  0.0291 -0.0484  0.1458
15679W        W33203  10.763   8.409  13.886  0.0604 -0.0638 -0.2166
15680W        W33204  12.077  13.286   1.290 -0.0787  0.2646  0.2375
15681W        W33205   9.464   2.550   5.409 -0.0027  0.2054 -0.0953
15682W        W33206   8.036   2.900  14.923  0.1955 -0.1562 -0.2050
15683W        W33207   0.991  11.038   1.097 -0.2199 -0.2499 -0.3216
15684W        W33208  11.024   9.100   1.149  0.0392  0.1425  0.0682
15685W        W33209   3.921   1.811   2.251  0.1268  0.3525  0.1909
15686W        W33210   5.241  12.238   5.722 -0.1450 -0.2100 -0.0383
15687W        W33211   3.540   6.539   5.459  0.2465 -0.1907  0.0027
15688W        W33212   3.093  13.454  15.789  0.0225  0.3157 -0.0532
15689W        W33213   7.769   1.949   2.455 -0.2095  0.2279 -0.0278
15690W        W33214  11.974   1.029   0.123 -0.5447  0.0041 -0.1863
15691W        W33215   3.626   2.846  16.569 -0.0548 -0.0385 -0.0247
15692W        W33216   1.028   9.660   1.222  0.3423 -0.3646 -0.0273
15693W        W33217   7.504  13.521  16.288  0.0890 -0.0950 -0.1153
15694W        W33218   9.421  10.952   3.180  0.1225 -0.2954  0.1754
15695W        W33219   4.612  13.585   5.295  0.2663  0.0617  0.0934
15696W        W33220   1.234   6.066   3.011 -0.2762  0.3143  0.1839
15697W        W33221   2.931   2.211  16.648  0.4543 -0.0924  0.0511
15698W        W33222  12.605  11.268   4.934  0.1845  0.1730  0.1207
15699W        W33223  12.376  15.025  16.355 -0.3017 -0.0810  0.1568
15700W        W33224   1.713  13.118   2.707  0.1371 -0.0727  0.1248
15701W        W33225   2.176  11.800  14.163 -0.2679  0.1801  0.1081
15702W        W33226  13.522  16.368   0.261 -0.0387 -0.1170 -0.0646
15703W        W33227   8.842  15.848  15.435 -0.1119 -0.2748  0.0238
15704W        W33228  13.453   6.048   2.018 -0.2043  0.0426 -0.1441
15705W        W33229  12.883   2.663  14.838  0.0515 -0.1026  0.1976
15706W        W33230   4.216   1.368   3.545 -0.2806  0.0868  0.0597
15707W        W33231   2.300  11.424   4.417  0.0830 -0.0810 -0.1007
15708W        W33232  10.891   3.146   3.832 -0.0574  0.1263  0.0775
15709W        W33233   0.863   8.315  14.295  0.1684 -0.1209 -0.0262
15710W        W33234   3.101  12.293   1.905 -0.0540 -0.0526  0.0617
15711W        W33235   9.974   7.626   2.834  0.1433  0.2181 -0.2607
15712W        W33236  15.144   8.810   1.872 -0.0322 -0.0080 -0.0265
15713W        W33237   4.074   3.410   0.074  0.0186 -0.0049 -0.1827
15714W        W33238   7.505  14.201   0.742 -0.2356  0.0686 -0.1306
15715W        W33239   8.329  13.923   6.789  0.1468  0.0107 -0.1834
15716W        W33240  13.257   8.643  15.146 -0.2238  0.1305 -0.0527
15717W        W33241  13.768  16.855   1.792 -0.2146  0.1906 -0.0118
15718W        W33242  13.259  17.109  12.229  0.0024  0.1327  0.1381
15719W        W33243  16.293  12.685   4.043  0.4927  0.0866 -0.1637
15720W        W33244   3.031  10.516  17.154 -0.1368 -0.0052  0.0513
15721W        W33245   9.260  14.690  15.935  0.1938 -0.1229  0.3097
15722W        W33246  10.028   9.426  12.448  0.0687 -0.1464  0.0447
15723W        W33247   0.613   4.951   4.289 -0.1367 -0.1143  0.0732
15724W        W33248   9.153  10.803  16.214 -0.0390 -0.5000 -0.1615
15725W        W33249  16.171   4.343   5.174 -0.1683  0.1159 -0.0237
15726W        W33250  16.101   4.127   1.740  0.1287  0.0909 -0.1409
15727W        W33251  14.785   6.833  11.581 -0.3230 -0.0685 -0.1994
15728W        W33252  11.827  13.839  12.361  0.0490  0.3197 -0.0471
15729W        W33253   3.830   5.433   0.567 -0.0460  0.2799 -0.2261
15730W        W33254  16.052   0.352   4.424 -0.4242  0.1637  0.1240
15731W        W33255  10.137   6.770  17.509  0.3456 -0.2158 -0.2518
15732W        W33256   4.906  17.106  15.446  0.3438 -0.0361  0.0027
15733W        W33257   3.671   3.500   3.161 -0.1177 -0.0313  0.1241
15734W        W33258  12.295  13.167  16.588 -0.1698 -0.2059  0.1446
15735W        W33259   7.935   9.010  15.280  0.1330  0.0388  0.0404
15736W        W33260   0.182   5.221   4.345  0.1506  0.1030 -0.2673
15737W        W33261  14.794   9.920   1.381 -0.3091  0.1594  0.1972
15738W        W33262  11.848   8.448  13.259  0.1164 -0.0491  0.2363
15739W        W33263  16.640   3.821   3.523  0.1376  0.1037  0.0777
15740W        W33264   2.511  15.553   2.901  0.0005  0.1552  0.0817
15741W        W33265   5.077   3.257   3.212  0.2242  0.2435  0.2144
15742W        W33266   5.617  13.036  12.592 -0.0146  0.2415  0.1137
15743W        W33267   1.892  16.542   4.999  0.0964 -0.0454  0.0194
15744W        W33268   4.665   2.874   0.792 -0.3542 -0.0661 -0.1249
15745W        W33269  11.367  10.004  11.803 -0.3682  0.2608 -0.2653
15746W        W33270   5.116   9.939  17.354 -0.2674 -0.0310  0.2208
15747W        W33271  16.821  15.445  15.527 -0.0841 -0.1690 -0.0577
15748W        W33272  16.162  15.397   4.611 -0.0918  0.0255  0.0357
15749W        W33273   6.789   4.075   3.759 -0.1411 -0.2361  0.0911
15750W        W33274  16.042  17.099  16.438 -0.1589  0.1424 -0.1896
15751W        W33275   1.082   7.968  16.481 -0.3483 -0.2015 -0.5250
15752W        W33276  12.063   4.098  17.367  0.0567 -0.1379  0.1407
15753W        W33277   8.619   3.283   2.766 -0.1100 -0.2768 -0.2873
15754W        W33278  15.785  11.816   1.460 -0.2215  0.0424  0.2009
15755W        W33279   3.654  15.751   2.891  0.0593 -0.2897  0.3158
15756W        W33280  10.474  14.771  13.056  0.2172  0.3516 -0.1222
15757W        W33281  13.953  16.002   0.135  0.5927 -0.1303  0.1665
15758W        W33282  15.860   5.738   3.958 -0.0263 -0.1932 -0.0694
15759W        W33283  14.730   6.450   1.175 -0.1807  0.2845  0.2399
15760W        W33284  10.691  11.632   2.551 -0.1115  0.0293 -0.1211
15761W        W33285   2.896   5.707  14.867 -0.2043  0.1463 -0.2842
15762W        W33286  12.755   3.174   1.368 -0.0683  0.2859 -0.1703
15763W        W33287  10.781  16.220   2.489 -0.1383  0.0958 -0.0140
15764W        W33288   3.910  14.505   1.601 -0.0125  0.0494 -0.1618
15765W        W33289   0.471   5.394   1.316  0.3593 -0.0618 -0.0033
15766W        W33290  10.157  16.536  13.859 -0.2176  0.0789 -0.0585
15767W        W33291   3.888  14.103   4.006 -0.6483 -0.1046 -0.0554
15768W        W33292   3.050   0.112  13.559 -0.2702  0.2234  0.0072
15769W        W33293  17.029  10.737  15.460  0.0076 -0.1424 -0.1221
15770W        W33294   5.246   7.148  15.203 -0.1944  0.0012 -0.1382
15771W        W33295   6.928   0.193   4.920 -0.0298 -0.4498 -0.3677
15772W        W33296  11.296   0.363  14.829 -0.0045 -0.0229 -0.0290
15773W        W33297   2.297   9.628  16.409  0.1347 -0.1592  0.1708
15774W        W33298   9.387   8.880   2.929  0.2434 -0.0467  0.0374
15775W        W33299   3.567  12.232   5.054  0.2714 -0.0788 -0.0912
15776W        W33300   0.213  16.945   1.812 -0.4385  0.0273 -0.1482
15777W        W33301  12.212   2.081  17.067 -0.1296 -0.1712 -0.1090
15778W        W33302   8.277  12.473  13.238  0.0881  0.1132 -0.0246
15779W        W33303   1.759   6.728   1.774  0.1703  0.3613 -0.1101
15780W        W33304   4.864   5.704  16.730 -0.2511  0.1192  0.0922
15781W        W33305  16.234  13.339  15.950  0.1816  0.1698  0.0256
15782W        W33306   1.975  13.595  12.361 -0.3193 -0.0203 -0.1108
15783W        W33307   9.529  10.617   1.505  0.3526 -0.1033 -0.0436
15784W        W33308   2.344  11.080   2.420  0.3288 -0.0109  0.1313
15785W        W33309  10.514  15.313  12.312  0.1475 -0.2959  0.1584
15786W        W33310  12.846  12.522   2.275 -0.1144 -0.0808 -0.1310
15787W        W33311   7.018  15.391   0.363  0.1090  0.1290  0.0038
15788W        W33312  11.935   7.035   0.277  0.1146  0.1175 -0.1526
15789W        W33313   1.944  15.009   2.504 -0.0984  0.0116  0.1630
15790W        W33314   0.406  16.874   1.358  0.3249 -0.0339 -0.0139
15791W        W33315   8.866  16.895   0.290 -0.1233 -0.0270  0.2327
15792W        W33316   8.376  15.770   1.573 -0.1171 -0.0632 -0.0300
15793W        W33317   3.669   9.238  14.839  0.0270  0.1829 -0.0930
15794W        W33318  11.111  14.784   2.580 -0.1442  0.3582  0.4520
15795W        W33319  12.437   4.017   4.867 -0.2755 -0.2117  0.1165
15796W        W33320  16.685   9.783  14.932 -0.1425 -0.0372 -0.2534
15797W        W33321  13.910   0.609  12.956 -0.1582  0.0846 -0.1479
15798W        W33322  16.989   7.211  13.134 -0.3469  0.2645  0.1404
15799W        W33323  13.198   1.012   0.835  0.1938  0.0413 -0.1759
15800W        W33324  11.525  12.344   2.689  0.1242  0.0027 -0.0989
15801W        W33325  16.090  14.942  15.681 -0.0837  0.3141 -0.2752
15802W        W33326  12.756  17.021   3.817  0.0650  0.1756 -0.1847
15803W        W33327  14.036  11.591  12.404 -0.1562  0.0665  0.1523
15804W        W33328   4.391  12.770   1.205  0.0622  0.1066  0.0939
15805W        W33329  17.074   3.869   4.050  0.2824  0.1915  0.0421
15806W        W33330  12.363   6.814   1.730  0.0289  0.1088 -0.1773
15807W        W33331   4.828   3.240  14.338  0.0299 -0.2038 -0.0006
15808W        W33332  16.467   9.640   1.259  0.0425 -0.3295 -0.2834
15809W        W33333  10.899   9.496   2.167  0.2588 -0.0614  0.1375
15810W        W33334   5.798   3.838   2.494 -0.2889 -0.0685  0.4883
15811W        W33335  16.248   5.819  16.232  0.0255 -0.0968  0.1090
15812W        W33336   1.364   3.551  14.328 -0.3076  0.0201  0.2378
15813W        W33337  15.888   6.099  12.363  0.1965  0.2785 -0.2426
15814W        W33338  14.476   5.354   5.143  0.1121 -0.0042 -0.1842
15815W        W33339   5.428   4.586  14.975 -0.2197  0.1279  0.1252
15816W        W33340  10.641  16.946   1.649  0.0976 -0.3452 -0.2128
15817W        W33341   5.893  15.070  16.815  0.2037  0.0524 -0.3532
15818W        W33342  10.220  12.227  14.652 -0.0544  0.1563 -0.1196
15819W        W33343   0.327   9.550  14.482  0.0444 -0.2932 -0.0760
15820W        W33344  14.598   7.631  13.319 -0.2884  0.1221 -0.0399
15821W        W33345   8.419   7.144  14.517  0.1377 -0.1903  0.0846
15822W        W33346   9.684  10.849  16.538  0.2158  0.0644  0.1052
15823W        W33347  13.643  15.339   4.688  0.0902  0.0355  0.0594
15824W        W33348   2.572   2.616   1.748 -0.2027  0.0389 -0.2087
15825W        W33349  13.103   0.624  16.116  0.1485 -0.2782  0.3160
15826W        W33350   2.021  16.243  13.562  0.1668 -0.0409  0.0298
15827W        W33351  16.445  15.167  14.494  0.0784 -0.0003 -0.4290
15828W        W33352   0.997   9.425  16.345 -0.1253  0.1863 -0.2346
15829W        W33353   3.500   2.477   2.642  0.1361 -0.0128  0.1787
15830W        W33354   8.091   7.404   3.580 -0.1795 -0.0492  0.0454
15831W        W33355  14.211  12.181  12.508 -0.0158 -0.1044 -0.1475
15832W        W33356   7.535  10.860   3.523 -0.0412 -0.0978 -0.3666
15833W        W33357  11.415  16.706   2.036 -0.0210  0.1973 -0.1824
15834W        W33358   0.530  11.831  16.756  0.1121  0.1714  0.0136
15835W        W33359   2.249  11.150   3.865  0.0618 -0.3404 -0.1341
15836W        W33360   1.106   5.882  12.270  0.2509 -0.2107  0.1011
15837W        W33361   1.058  14.820   2.238 -0.1702  0.0841 -0.1495
15838W        W33362  13.198   6.735   4.898 -0.1930  0.1174 -0.1435
15839W        W33363   2.572   2.420   5.571 -0.1455 -0.4290  0.0464
15840W        W33364  15.443   4.334  12.578 -0.2471  0.0573 -0.0662
15841W        W33365  13.603   8.186  17.246  0.0411  0.3069  0.0107
15842W        W33366   6.115  14.921   3.574 -0.1033  0.0636  0.2506
15843W        W33367   6.463  15.473   4.633  0.2041  0.1563 -0.1383
15844W        W33368   5.742   3.674   0.696 -0.3238  0.1713 -0.1009
15845W        W33369  14.141   0.504  15.107  0.1001 -0.1190  0.1276
15846W        W33370   8.379   5.385  12.369 -0.0178  0.2386 -0.1829
15847W        W33371   6.127   5.650   3.688 -0.0409 -0.1976 -0.0156
15848W        W33372  14.768   5.857  11.976  0.0286 -0.0084 -0.0014
15849W        W33373  12.587   4.747   4.054 -0.3060 -0.0571  0.1710
15850W        W33374   5.958   7.064   2.511 -0.1521  0.2675 -0.2633
15851W        W33375  13.615   6.986  15.267  0.3473  0.1142 -0.4383
15852W        W33376   8.173   4.005   1.619 -0.0822 -0.1019  0.0603
15853W        W33377   8.441  14.775  15.649  0.2239 -0.0907 -0.2821
15854W        W33378  14.939   2.611  17.419  0.1280 -0.2756  0.0005
15855W        W33379   6.000   4.498  13.182  0.0128  0.3508  0.0209
15856W        W33380   6.131  13.631   5.144 -0.1998 -0.1685 -0.1134
15857W        W33381   4.832   5.707  17.260  0.2259  0.3122 -0.1137
15858W        W33382   9.919   2.044  12.901  0.2663 -0.1582 -0.1061
15859W        W33383  11.024  16.452   1.075  0.3004  0.1377 -0.1470
15860W        W33384   6.859  10.931  14.588 -0.1665  0.0155  0.2238
15861W        W33385   1.430   8.618   4.254 -0.1722 -0.0618 -0.3513
15862W        W33386   3.217  17.145   1.194 -0.0148  0.2619 -0.1407
15863W        W33387   5.984  15.806  15.357 -0.3010 -0.0505 -0.3047
15864W        W33388  15.019   5.875   0.484  0.3369 -0.1087  0.1620
15865W        W33389  12.946   5.706   2.713 -0.1226 -0.1723  0.0533
15866W        W33390   5.988   3.310   3.523  0.1303  0.0786  0.2845
15867W        W33391   3.123   8.937   2.203 -0.1187 -0.1384  0.0135
15868W        W33392   4.095  17.043  14.343 -0.4195  0.2405 -0.0821
15869W        W33393   5.540  14.316   1.728  0.3364  0.0257  0.1746
15870W        W33394   3.206   5.782  13.540 -0.1295 -0.2293 -0.0438
15871W        W33395  14.754   1.781  13.414 -0.1925  0.1432  0.0796
15872W        W33396  10.068   4.049   2.079  0.0354  0.0986 -0.2186
15873W        W33397   4.769   9.426  16.858  0.3538 -0.1416  0.0645
15874W        W33398   1.623  16.063  16.768 -0.0386  0.0410 -0.0495
15875W        W33399   7.673  14.958   4.252  0.0814  0.1309  0.4496
15876W        W33400  16.723  10.785   0.010 -0.2198 -0.0505  0.1641
15877W        W33401   3.092  14.441  12.125  0.1092 -0.0406 -0.2691
15878W        W33402   4.844   0.598   3.934 -0.0571 -0.2477  0.2353
15879W        W33403  12.545   6.517   2.191 -0.0169  0.0143  0.1575
15880W        W33404  13.597   0.165   1.752 -0.0723  0.0355 -0.0939
15881W        W33405   9.425  12.745   0.150  0.2552 -0.1137  0.1385
15882W        W33406   8.396   3.909  13.496  0.2025 -0.0103  0.1208
15883W        W33407  13.980  15.959  15.144 -0.1691 -0.2387  0.0764
15884W        W33408   4.975   8.220  16.119  0.0489 -0.0760 -0.1543
15885W        W33409  15.780   9.707  14.896 -0.0366 -0.1000 -0.1054
15886W        W33410  12.478  14.720  17.387 -0.2339  0.0944  0.1303
15887W        W33411   8.361   3.417  16.668  0.1364  0.0780  0.0982
15888W        W33412  10.063   7.911  14.511 -0.1339  0.2758  0.1781
15889W        W33413   1.327   8.513   0.386 -0.0908  0.0741  0.4676
15890W        W33414  12.270   8.881   4.120  0.3229 -0.1576  0.0871
15891W        W33415  16.457   2.690   4.080  0.1484 -0.1040  0.3027
15892W        W33416  16.217   8.759   3.813 -0.0786 -0.0133  0.3306
15893W        W33417  13.099  15.842   0.991  0.0036  0.2470  0.0312
15894W        W33418  15.747   9.826  14.424 -0.0942 -0.0372  0.2020
15895W        W33419   7.985  10.579   1.937 -0.0055  0.0351 -0.0149
15896W        W33420   6.808   6.875  17.538 -0.4073  0.3184 -0.0374
15897W        W33421  15.130  12.047   1.260 -0.1284  0.1376  0.1647
15898W        W33422  11.291   0.804   3.743  0.3299 -0.1201  0.0371
15899W        W33423   5.732   0.307   1.766 -0.1278 -0.1837  0.0390
15900W        W33424  14.514   8.774   2.869 -0.1976  0.0201 -0.2501
15901W        W33425   4.445  10.612  15.859  0.1465 -0.3053  0.1072
15902W        W33426  16.869  17.115  15.069 -0.1232  0.0202  0.0594
15903W        W33427  16.412  11.224   4.169  0.2760 -0.1682 -0.3936
15904W        W33428  16.446  13.882   5.414 -0.2115  0.4041 -0.1649
15905W        W33429   8.480   8.466  13.380  0.2796 -0.2419  0.1754
15906W        W33430   8.771  13.884   0.215  0.2541 -0.1198 -0.0982
15907W        W33431   8.533   2.117  14.646  0.0119 -0.2866 -0.0363
15908W        W33432  15.702   9.748  12.037  0.2371 -0.2192  0.1666
15909W        W33433   3.732   4.489  13.630 -0.0658  0.0267 -0.0709
15910W        W33434   4.515   2.859  12.538 -0.2060  0.1440 -0.0311
15911W        W33435   1.533   6.653  12.720 -0.0655 -0.1528  0.0427
15912W        W33436   6.033   6.420   0.976  0.3256  0.1942 -0.1788
15913W        W33437   9.131  14.590   4.636 -0.2615 -0.1930 -0.0589
15914W        W33438   8.690   8.275   2.867 -0.2932  0.2002 -0.2869
15915W        W33439  15.524   7.360  15.140 -0.0268 -0.0778  0.0055
15916W        W33440  13.175  14.890  15.850 -0.0112 -0.0516  0.2917
15917W        W33441   8.402  13.462  13.054  0.0055 -0.3041 -0.0677
15918W        W33442  12.937  16.677  17.327  0.1582  0.2924  0.2719
15919W        W33443  16.797  16.134  13.306  0.2114  0.1806  0.2626
15920W        W33444  16.862   3.966  12.637  0.1830  0.0585  0.2999
15921W        W33445   1.339  13.630   0.954 -0.0638  0.3907 -0.0346
15922W        W33446   5.277   2.509   1.458 -0.0337  0.3316 -0.0052
15923W        W33447  10.982   8.413   4.599 -0.0003 -0.1639  0.0640
15924W        W33448  12.923  16.782   2.748 -0.0518 -0.0512 -0.0522
15925W        W33449  15.716  10.182  13.503  0.1411  0.1721 -0.2190
15926W        W33450   2.283  15.475   4.014  0.0618  0.0219 -0.2105
15927W        W33451  11.890   9.650  15.745 -0.1181 -0.0342 -0.4361
15928W        W33452  12.046   8.672  15.880 -0.2344 -0.1210  0.2845
15929W        W33453   8.300  16.806   4.919 -0.2910  0.1928  0.0879
15930W        W33454   5.503   9.922  16.329 -0.0919 -0.0579 -0.1764
15931W        W33455   5.430   9.387  15.096  0.1013 -0.1358 -0.2675
15932W        W33456  11.221   3.539   0.977  0.0044 -0.0645  0.0428
15933W        W33457  10.962   2.751  16.301 -0.2238  0.2478 -0.0679
15934W        W33458   6.585  16.588   4.565 -0.0162 -0.1080 -0.1603
15935W        W33459   1.426   5.430   4.193  0.2649  0.2331 -0.4599
15936W        W33460  10.375   6.233  14.420 -0.0916 -0.0264  0.0044
15937W        W33461  12.708   4.238   3.466 -0.2546 -0.3150 -0.0045
15938W        W33462   6.754  16.049   4.409  0.2106 -0.0725  0.0247
15939W        W33463   6.418  15.276  13.827  0.1471 -0.1119 -0.0437
15940W        W33464  15.161   5.867   1.355  0.0401  0.3482  0.2070
15941W        W33465  13.833   1.034  13.287 -0.0415  0.1877  0.0062
15942W        W33466  16.108  15.802  14.175 -0.0860 -0.0378 -0.1669
15943W        W33467   6.699   3.134   2.000  0.1012  0.0410  0.3122
15944W        W33468  14.282  14.893   1.272 -0.0650 -0.1569  0.0518
15945W        W33469   6.410  16.158  15.517  0.3174  0.0661  0.3556
15946W        W33470  12.029  10.701  17.219 -0.0058  0.0411  0.0050
15947W        W33471  11.788  13.606  13.114 -0.1568  0.0389  0.3060
15948W        W33472   9.392   7.922   0.675  0.1138  0.2020 -0.0157
15949W        W33473  16.243  15.025   4.203 -0.1787 -0.2404 -0.2469
15950W        W33474   1.705   7.295   3.261 -0.0194  0.0604  0.1446
15951W        W33475   3.053   0.645   6.338  0.2048 -0.2516 -0.3534
15952W        W33476   8.547   4.171   5.661  0.2321  0.2144 -0.0004
15953W        W33477   0.055   2.556   1.360  0.3495  0.1071 -0.1076
15954W        W33478  14.531  15.286   0.512  0.1007 -0.0093 -0.2363
15955W        W33479  10.752   9.732  13.088  0.2213 -0.0791  0.1637
15956W        W33480   7.334   2.614  17.338 -0.0783 -0.0589  0.1887
15957W        W33481   1.010   5.848   2.550 -0.1218 -0.0914  0.4149
15958W        W33482   6.008  11.831  13.726  0.1041 -0.0996  0.1543
15959W        W33483  11.417   6.945  12.790 -0.0697 -0.0119  0.0092
15960W        W33484  14.727   7.838  11.849  0.1049  0.1709  0.2188
15961W        W33485   1.328  13.092  15.358  0.1451 -0.0264 -0.2498
15962W        W33486   4.768  10.868   3.294 -0.0448  0.4276  0.0652
15963W        W33487   2.079  15.269  17.187  0.2603  0.0254  0.0115
15964W        W33488   5.598  16.019   3.657 -0.3393 -0.2167 -0.1143
15965W        W33489   6.149  13.027   3.289 -0.3101  0.0967 -0.1200
15966W        W33490   0.309  11.285  14.634 -0.2007 -0.0036 -0.0868
15967W        W33491   0.565  10.437   5.906 -0.1192  0.0241 -0.0225
15968W        W33492   6.539  13.281   0.514  0.1440 -0.0384 -0.1094
15969W        W33493  15.745   3.231  15.307 -0.2880  0.2319 -0.0736
15970W        W33494  15.036   2.602  15.974  0.0141 -0.0413 -0.1858
15971W        W33495   5.345   5.335   3.485  0.1463  0.2346 -0.2067
15972W        W33496   6.492   9.531   1.306 -0.1178 -0.3405  0.1862
15973W        W33497  11.406  12.100  15.161 -0.1044 -0.4090 -0.0456
15974W        W33498  10.189   9.026  16.555 -0.2073 -0.1162  0.0303
15975W        W33499   8.182   5.627  16.011 -0.4151 -0.2531 -0.1539
15976W        W33500  11.794  14.382   3.074 -0.0049 -0.4078 -0.1913
15977W        W33501   4.010  14.946  14.431 -0.0506  0.2303 -0.1025
15978W        W33502   2.536   7.331   3.984  0.1218 -0.1613 -0.1872
15979W        W33503  17.095   9.346   1.929  0.0666  0.0387 -0.4138
15980W        W33504   8.416   3.550  17.544 -0.0110  0.0490 -0.2216
15981W        W33505   1.058  10.915  14.583  0.3211  0.2484  0.1564
15982W        W33506   1.014   0.211  14.832 -0.0127 -0.2736 -0.0402
15983W        W33507   1.076   1.678  13.445 -0.1904  0.0014 -0.0226
15984W        W33508  16.750   3.464   4.036 -0.1486 -0.2699  0.2757
15985W        W33509  15.525  14.186   3.218 -0.0985 -0.0472  0.2052
15986W        W33510  12.082  10.897  16.156 -0.1506 -0.4607 -0.0747
15987W        W33511  10.503   1.651   3.730  0.0980  0.0400 -0.2707
15988W        W33512  12.281  12.313  14.525  0.1699 -0.2303 -0.1837
15989W        W33513  10.782  16.242   3.307 -0.0153  0.0753  0.0933
15990W        W33514   1.556  10.944   1.192  0.1173 -0.0260 -0.1729
15991W        W33515   4.166  13.067   5.879 -0.0307 -0.1676 -0.0322
15992W        W33516   9.883   5.504  16.315 -0.0534  0.0725  0.0549
15993W        W33517   1.741   9.708  16.195  0.1928 -0.1014  0.1050
15994W        W33518   3.477   1.447   5.219 -0.2414  0.0684  0.0644
15995W        W33519   2.240  14.101   3.207 -0.4830  0.2008 -0.3888
15996W        W33520  16.197   0.603   1.187 -0.0611  0.0742 -0.2377
15997W        W33521   0.567   4.455  14.874  0.0929 -0.1500  0.1122
15998W        W33522  12.017   6.729   0.745 -0.2568 -0.2176 -0.1314
15999W        W33523  17.185   7.335  16.897 -0.1674 -0.1618  0.0137
16000W        W33524   7.830  10.764  15.552  0.0603  0.3320  0.0532
16001W        W33525   5.747  16.367   2.490 -0.1965  0.0553 -0.0272
16002W        W33526  16.636   4.203  16.714 -0.2340 -0.0508 -0.1165
16003W        W33527   6.585   3.653  13.891  0.1458  0.0596 -0.0155
16004W        W33528   8.864   0.535  16.944 -0.0451  0.1342 -0.0620
16005W        W33529   4.430   9.726  14.388  0.1551 -0.0187 -0.0321
16006W        W33530   1.302  16.227   1.965 -0.0969  0.2722 -0.0733
16007W        W33531  11.118   5.100  14.364 -0.1708 -0.2989  0.1714
16008W        W33532  16.738  12.026   4.954 -0.2597  0.0651 -0.2447
16009W        W33533  14.105   3.772   0.468 -0.0297 -0.2209 -0.2811
16010W        W33534  16.321  14.566   0.545 -0.2386 -0.1568 -0.3327
16011W        W33535   6.472   7.460   0.769  0.0609  0.0732 -0.2278
16012W        W33536  17.223   8.714  16.946 -0.1619 -0.0944  0.2056
16013W        W33537  16.043  11.961  14.410 -0.3361  0.0194 -0.4194
16014W        W33538   1.430   8.037  12.211  0.5226 -0.0237  0.3677
16015W        W33539   8.232   2.561   1.123 -0.2072  0.2818 -0.1901
16016W        W33540  16.822   3.171   1.869  0.1931  0.2733 -0.0877
16017W        W33541  10.040   8.604  17.375  0.1910 -0.3768 -0.2287
16018W        W33542   1.107  14.568  15.529  0.0548  0.1219 -0.0397
16019W        W33543  10.506   6.246   2.170 -0.1276  0.0652  0.0857
16020W        W33544  17.122  10.672  12.134  0.0004 -0.1569 -0.2931
16021W        W33545   3.816   4.368   3.504 -0.0830 -0.1170 -0.1104
16022W        W33546  16.067   4.985   3.664  0.2273  0.1602  0.2780
16023W        W33547  15.500   8.061  14.811  0.1298 -0.2362  0.0488
16024W        W33548  11.760  16.020   1.439  0.2171 -0.1150 -0.1968
16025W        W33549   6.505  14.861   3.195  0.1310 -0.1761  0.0109
16026W        W33550  13.814  11.938  16.519  0.1469 -0.1166  0.0745
16027W        W33551   2.463  14.003   1.482  0.1045  0.2107  0.2152
16028W        W33552  16.049   2.174  13.892 -0.1671 -0.1243  0.0635
16029W        W33553   3.885   2.958  12.552  0.1733  0.1742  0.2228
16030W        W33554   4.514  16.599  13.696  0.1434 -0.2157  0.1751
16031W        W33555  12.785  12.590   3.872 -0.1966 -0.0102  0.3723
16032W        W33556  10.871   4.326   0.861  0.0451 -0.0786  0.0340
16033W        W33557  16.289  15.716   3.395 -0.1377  0.3005 -0.0310
16034W        W33558   3.448   9.256   3.845  0.0688 -0.0114  0.0998
16035W        W33559   6.007  11.607  17.489 -0.1789 -0.0902 -0.2019
16036W        W33560   7.218  17.116   3.893  0.1403 -0.2233  0.1170
16037W        W33561   0.749   6.385  13.021 -0.0481 -0.1477  0.3297
16038W        W33562   1.426   0.617   5.408 -0.0078  0.1090 -0.3234
16039W        W33563  10.841   2.027  15.468  0.2254  0.0992  0.4007
16040W        W33564   7.200   5.058  14.416 -0.0676  0.1679 -0.2807
16041W        W33565  11.108  12.569  16.765 -0.1110  0.2035  0.1229
16042W        W33566   1.535   1.536  14.843 -0.1290 -0.0985  0.0981
16043W        W33567   2.571   2.323   0.820 -0.0241  0.1067  0.2024
16044W        W33568  16.410   3.430  13.947 -0.3355 -0.1539  0.0448
16045W        W33569  11.535  13.283  16.392  0.0059 -0.0217  0.2465
16046W        W33570  13.087   0.883   1.702 -0.0844 -0.0936  0.0948
16047W        W33571  13.044   7.093  12.433 -0.1304  0.0893  0.1419
16048W        W33572  12.621   4.819  11.935 -0.3125 -0.1385  0.1607
16049W        W33573   4.819  16.963  13.804 -0.2022  0.3522 -0.0273
16050W        W33574   9.428  16.063   5.098  0.2258  0.1647 -0.2004
16051W        W33575   4.978  13.593   3.889 -0.2664  0.0411  0.1842
16052W        W33576  15.310   7.765   4.145  0.0627  0.1491 -0.0220
16053W        W33577   1.166  13.039   3.984 -0.1233  0.2126 -0.0034
16054W        W33578  10.483  12.969   3.294 -0.0812 -0.1473 -0.2747
16055W        W33579  12.082   4.434   1.127  0.2937  0.0408  0.1151
16056W        W33580  15.979  11.785  15.401  0.3566  0.1895  0.0813
16057W        W33581  13.616   2.303  15.176  0.0804 -0.0607  0.0757
16058W        W33582   0.600   3.537  15.054 -0.0691  0.2173 -0.0113
16059W        W33583  12.835   1.399   0.045 -0.1248  0.0046  0.1864
16060W        W33584  10.090  15.904   5.626  0.0088 -0.0059  0.0086
16061W        W33585  15.229   0.850   2.152 -0.0546  0.2739  0.1066
16062W        W33586  12.110   8.638   4.609 -0.1195  0.1799 -0.2994
16063W        W33587   7.655  13.894  12.064 -0.1179  0.0273 -0.0543
16064W        W33588  17.169  12.090   2.181 -0.3060 -0.0138 -0.0545
16065W        W33589   4.835   6.854  13.189 -0.0669  0.3902  0.2751
16066W        W33590   5.124   5.301   1.033  0.2355  0.1093 -0.2289
16067W        W33591   3.346   0.187   4.389  0.0629  0.1432 -0.0325
16068W        W33592  12.361  11.311  16.054 -0.2867  0.1079 -0.1488
16069W        W33593  13.347   3.487   0.549  0.0692 -0.1124  0.3144
16070W        W33594   2.479   4.038  17.033  0.4632 -0.2632 -0.0178
16071W        W33595   0.017  12.852  14.811  0.1140 -0.4202  0.1661
16072W        W33596  13.755  16.607  12.005  0.0075  0.2732 -0.0087
16073W        W33597   4.030   6.802   0.247  0.2613 -0.0249  0.2613
16074W        W33598  13.866   2.898  15.077 -0.0820 -0.1640  0.1066
16075W        W33599  17.149   6.273  13.971 -0.2429  0.1231  0.1637
16076W        W33600   7.767   0.231  15.109  0.1392 -0.0828  0.1202
16077W        W33601  16.873   3.970  15.019 -0.0443 -0.2131 -0.0632
16078W        W33602   8.477   5.849  17.050  0.0960  0.0356 -0.0476
16079W        W33603   0.050  11.531   2.165  0.0412 -0.2937  0.1302
16080W        W33604   1.113   8.916  16.423  0.3123  0.0200  0.0080
16081W        W33605  17.238   3.889   2.084 -0.2944  0.3222 -0.2474
16082W        W33606  12.147   9.902  16.150 -0.3640 -0.0769 -0.2196
16083W        W33607  17.004   3.391  11.905 -0.0603  0.2720  0.2523
16084W        W33608   8.042  14.332   0.803  0.0858 -0.0771  0.4198
16085W        W33609  15.732  15.539  13.353  0.0228  0.3005  0.0024
16086W        W33610   5.025  10.562  15.686 -0.2571  0.1125  0.0572
16087W        W33611  11.717   1.118  15.661 -0.0778  0.0195 -0.0042
16088W        W33612   4.204   8.775   3.818  0.1330  0.0357  0.1014
16089W        W33613   5.322  13.315   3.472 -0.3094  0.0316 -0.0853
16090W        W33614  12.122  15.695  12.233  0.2432 -0.1841 -0.1363
16091W        W33615   7.317  16.436   3.069 -0.2392 -0.0221 -0.0344
16092W        W33616   9.039   4.082   0.202 -0.1252  0.2387  0.0029
16093W        W33617   0.923   1.849  12.657  0.0156 -0.3497 -0.0436
16094W        W33618   0.606   0.633  16.159  0.1136 -0.2465  0.1422
16095W        W33619   6.797   2.535  13.529  0.0206  0.2782 -0.1957
16096W        W33620  14.988   3.135   2.363 -0.0436  0.2660  0.0656
16097W        W33621   4.176  14.389   2.478 -0.0868 -0.2091  0.0503
16098W        W33622  10.844  13.841   2.368 -0.1736  0.0215 -0.0626
16099W        W33623   6.114   1.009   4.864 -0.2203  0.2575 -0.0681
16100W        W33624   2.705  11.726   5.404  0.1439  0.2150  0.0519
16101W        W33625   0.449   1.558   1.096 -0.4743 -0.0527 -0.0650
16102W        W33626   5.457   5.326  13.098 -0.3223  0.1563  0.2248
16103W        W33627  13.265  13.407   1.817 -0.0529  0.0666 -0.1122
16104W        W33628   2.313   7.515  15.162  0.3194  0.2664  0.2720
16105W        W33629   8.782   8.340  12.968  0.1237 -0.2790  0.0288
16106W        W33630   0.925  14.168   3.299  0.0182  0.1165 -0.0652
16107W        W33631   3.412   3.590  15.964  0.1293  0.3319 -0.0413
16108W        W33632   9.133   2.425   3.098 -0.0204  0.1409  0.1267
16109W        W33633  14.990  14.287  16.881  0.2420 -0.0166 -0.1839
16110W        W33634  11.428  10.483  16.585  0.0192 -0.2095  0.2202
16111W        W33635   6.833   2.976  13.770 -0.3057 -0.2246 -0.3469
16112W        W33636   8.439   0.399  12.373 -0.2354 -0.1559  0.1492
16113W        W33637   0.502  12.291  13.070 -0.1473  0.0353  0.1638
16114W        W33638  14.375   6.532  12.399  0.1353 -0.1234  0.2259
16115W        W33639   0.393  10.267   1.502  0.1020  0.0106  0.0769
16116W        W33640   7.647   0.620   4.222  0.1246  0.0014 -0.2297
16117W        W33641   7.200  15.660   3.959  0.1987 -0.0517 -0.2083
16118W        W33642  12.279   5.091  15.552 -0.1932  0.0700 -0.0384
16119W        W33643   1.730   2.084  14.914  0.1837 -0.0717 -0.1751
16120W        W33644  16.529  11.978   0.751  0.1051 -0.0403  0.0708
16121W        W33645  17.005   8.025   1.914  0.1013 -0.3778  0.1954
16122W        W33646  11.279   7.644  14.119 -0.0332  0.1202 -0.0527
16123W        W33647   2.137  12.483  12.224 -0.1308 -0.3803  0.0733
16124W        W33648   1.005   2.648   0.907 -0.0850  0.0228  0.2944
16125W        W33649  14.837   9.419  14.756 -0.2300  0.3111  0.1832
16126W        W33650  11.443   1.705   0.057 -0.1302  0.0185 -0.1729
16127W        W33651  10.546  13.764  13.578  0.1833 -0.2682 -0.0834
16128W        W33652  15.227  10.582  12.457  0.2029  0.1142 -0.0443
16129W        W33653   5.168   2.237   0.448  0.1710 -0.0508  0.2908
16130W        W33654  12.319   4.334  13.856 -0.0722  0.1046  0.0399
16131W        W33655  12.097   7.070  13.414  0.0781  0.2596  0.2480
16132W        W33656   6.166   6.032   5.332 -0.3548  0.3761 -0.0641
16133W        W33657  15.907   6.195   4.633 -0.1802 -0.3338 -0.0919
16134W        W33658   9.069  16.973   3.444  0.0430  0.4764 -0.0167
16135W        W33659   1.593   4.714   2.842 -0.0222 -0.0129  0.0322
16136W        W33660   2.213  16.562   5.457 -0.0925  0.2062 -0.2058
16137W        W33661  10.647   4.331   4.675  0.1857  0.0900 -0.0450
16138W        W33662  14.312   7.207  13.171  0.1555  0.1712 -0.0580
16139W        W33663   7.658  16.525  16.144  0.0309  0.1789  0.0364
16140W        W33664   6.348  10.200   3.980  0.3093  0.6588  0.1616
16141W        W33665   0.917  14.953  13.558 -0.2469 -0.1802  0.0770
16142W        W33666   0.954  17.017   4.751 -0.0381  0.0800 -0.0643
16143W        W33667   9.670   3.724   3.331  0.0342  0.3194  0.0287
16144W        W33668   1.072   7.328   4.735 -0.1280 -0.2163 -0.0717
16145W        W33669   7.690   2.669  16.955  0.0078  0.2952  0.0638
16146W        W33670   1.099   1.673   6.381  0.0516  0.0918 -0.0122
16147W        W33671   2.227   1.282   3.448  0.0573  0.4144 -0.0493
16148W        W33672   2.906  12.974   3.599  0.1283 -0.1288  0.3045
16149W        W33673  13.235   1.521  16.990  0.2386 -0.0790 -0.0772
16150W        W33674  12.410  16.716   4.078 -0.0684  0.1430 -0.0455
16151W        W33675  10.140  16.282   2.042 -0.1921  0.0929  0.2849
16152W        W33676  13.902   8.870  14.923  0.0753 -0.0451 -0.2400
16153W        W33677   4.547  10.662  17.180 -0.0841 -0.2664 -0.0129
16154W        W33678   7.195   4.958   4.808  0.1203  0.2177  0.0485
16155W        W33679   3.332  13.998   2.361 -0.1718 -0.0817  0.2729
16156W        W33680  16.792  10.473   1.310 -0.2110  0.0242  0.2306
16157W        W33681   4.454  12.348   4.249  0.3137  0.1993 -0.2167
16158W        W33682  15.896  16.660  14.223 -0.1310  0.0628  0.1441
16159W        W33683   9.418   3.121   3.932 -0.1672  0.0720  0.0372
16160W        W33684   7.388   9.435  13.845  0.1393 -0.2168  0.0131
16161W        W33685   9.876  14.996  14.135 -0.0001  0.1710  0.0318
16162W        W33686   7.952   6.485  12.643  0.1319  0.3347  0.0185
16163W        W33687  16.534   5.531   2.198 -0.3620  0.1067  0.0632
16164W        W33688   6.627   5.350   2.730 -0.2368 -0.0670 -0.0196
16165W        W33689  12.685   7.011   2.166  0.1172 -0.2406  0.0063
16166W        W33690   5.486  16.935  16.968  0.0819  0.1008  0.1246
16167W        W33691   3.575   7.894   4.143  0.0208 -0.2096 -0.1368
16168W        W33692  11.825   3.218  14.281 -0.1734  0.3182 -0.1967
16169W        W33693   4.120  13.570   0.199  0.0780  0.1857  0.0506
16170W        W33694  13.034  13.671   6.379  0.1930 -0.1533  0.1099
16171W        W33695  11.379  12.591  12.704  0.0223  0.0448 -0.0990
16172W        W33696  16.308  15.943  13.219 -0.2344 -0.0444  0.1945
16173W        W33697   5.768   9.969   2.510  0.0915  0.0096  0.0866
16174W        W33698   1.113   8.499  14.722 -0.1317 -0.1041 -0.0981
16175W        W33699   4.409  12.829  14.711  0.2550 -0.0577  0.1030
16176W        W33700  11.505   2.343   5.261  0.0565 -0.0684 -0.1910
16177W        W33701   1.380  16.716   1.388  0.1519 -0.2391  0.0087
16178W        W33702  11.947  16.635   5.919 -0.0552 -0.2459  0.2749
16179W        W33703  11.826  13.222   0.350  0.1469  0.0562  0.1021
16180W        W33704   7.503   7.230   0.381 -0.1489 -0.0630  0.0364
16181W        W33705  12.554   0.363   0.951  0.2762  0.2620 -0.0582
16182W        W33706  14.535   5.044   2.175 -0.4426 -0.1220 -0.0009
16183W        W33707   7.673  14.748   0.709  0.0350 -0.0178 -0.2610
16184W        W33708  14.091  12.114  17.205 -0.0447  0.0135 -0.0206
16185W        W33709  13.297  11.281  12.801 -0.1219 -0.0604  0.0272
16186W        W33710   2.680  15.343   3.724  0.0498  0.1504 -0.1607
16187W        W33711   2.230  12.051  13.661  0.1063  0.2500 -0.3057
16188W        W33712  15.593  12.748   3.105 -0.2377  0.2155  0.0351
16189W        W33713  13.033  14.234  12.764 -0.1711 -0.0355 -0.0579
16190W        W33714  13.071  16.350   0.082  0.1444 -0.0341 -0.2749
16191W        W33715   5.140  11.289  14.040 -0.2648 -0.0873 -0.1450
16192W        W33716  16.082   0.775  14.991 -0.0572  0.1438  0.0045
16193W        W33717  13.579  16.160  12.758  0.5931  0.2749 -0.0268
16194W        W33718  10.305   3.338   2.555  0.2106  0.0861  0.0917
16195W        W33719   8.517   0.850  13.431 -0.1933  0.1847 -0.2023
16196W        W33720   6.312  10.368  12.549  0.2132  0.2871  0.2028
16197W        W33721   2.498   5.153  15.419 -0.0579 -0.1333 -0.0951
16198W        W33722   0.306  16.351   3.621 -0.1851  0.1012 -0.1600
16199W        W33723   4.157  14.079  14.167  0.2048  0.1258 -0.2404
16200W        W33724   8.161  13.149   4.211  0.2681  0.1332 -0.1084
16201W        W33725  12.746  13.666  14.020  0.1802  0.1016 -0.1454
16202W        W33726  11.177  13.356  14.332  0.2174 -0.2074  0.0282
16203W        W33727  14.895  11.688  16.369 -0.0867  0.0535 -0.0490
16204W        W33728   6.199   1.121  13.136  0.4054  0.0814 -0.1098
16205W        W33729   5.825  16.115  13.893 -0.2173 -0.1040  0.1431
16206W        W33730  13.287   6.145  14.354 -0.0784 -0.1353  0.0406
16207W        W33731  16.164   3.728   0.917  0.1413  0.0774  0.0066
16208W        W33732  15.881  10.652   0.303 -0.1102  0.0929  0.1647
16209W        W33733  12.912   3.147  13.639 -0.1145 -0.2574 -0.1558
16210W        W33734  11.846  13.988  15.340  0.0471  0.1792 -0.0889
16211W        W33735   3.681  11.310   4.049 -0.0530 -0.0372 -0.2403
16212W        W33736  13.948  11.043  15.675  0.0706 -0.2324 -0.2975
16213W        W33737  12.690   0.225   2.012  0.2341 -0.0438 -0.2960
16214W        W33738  16.718   1.271   1.425  0.0671 -0.0482 -0.2892
16215W        W33739   7.548   4.447  13.799 -0.2707 -0.1538  0.0262
16216W        W33740   7.186  14.574   4.142  0.0250  0.1441  0.2628
16217W        W33741  16.944   3.495   1.500  0.1140 -0.0322  0.0303
16218W        W33742   4.597   7.626  12.255 -0.0725 -0.1348 -0.1351
16219W        W33743   2.615   5.853  12.499 -0.0685 -0.3444  0.1370
16220W        W33744  16.111   6.939   1.079  0.1202  0.1592 -0.1160
16221W        W33745   3.850   6.157  17.473 -0.0919  0.0489  0.2923
16222W        W33746   4.821   4.197  16.894 -0.0220 -0.0358  0.3917
16223W        W33747  15.633   6.723  15.179 -0.2233 -0.0421  0.1864
16224W        W33748   5.865  15.744  12.397 -0.1227  0.1583 -0.1661
16225W        W33749   4.761  13.701  15.799  0.2238  0.1019 -0.3158
16226W        W33750  14.902  13.926  13.731 -0.2731 -0.0513 -0.0099
16227W        W33751  15.413   3.596   4.999  0.1314 -0.1149  0.0092
16228W        W33752  14.130   1.189  15.294 -0.0483 -0.4975 -0.1878
16229W        W33753   0.094   4.145   5.102 -0.1195  0.1846 -0.0188
16230W        W33754   5.471   5.510  15.124 -0.0889  0.3641 -0.1464
16231W        W33755  13.334   2.322  14.721  0.1513  0.1402  0.1471
16232W        W33756   3.349  14.510  13.622 -0.3123  0.2843  0.1769
16233W        W33757   6.477  16.715   3.909  0.0056 -0.1263 -0.0972
16234W        W33758   7.284  11.192  16.708  0.2707  0.0924  0.1729
16235W        W33759   7.660   8.770  13.557 -0.0935 -0.1610 -0.2717
16236W        W33760  13.457   5.483   5.118 -0.0796  0.1871 -0.1056
16237W        W33761  10.774  15.674   0.810 -0.0645 -0.1106  0.1458
16238W        W33762   5.694   4.758   2.017  0.1292 -0.2138 -0.0183
16239W        W33763  10.347  13.180   5.539 -0.0566 -0.0938 -0.5661
16240W        W33764  15.580   8.088  13.152 -0.0791  0.3056  0.2151
16241W        W33765  16.332   3.416  14.490 -0.1102  0.2099  0.2471
16242W        W33766  13.594   4.754  16.429 -0.3345  0.0728  0.0981
16243W        W33767   7.035  12.253   1.831 -0.1379 -0.0714  0.2722
16244W        W33768  11.212  16.635   1.512  0.1892  0.1232 -0.1242
16245W        W33769   8.073  11.578   1.095 -0.0433 -0.1738 -0.1900
16246W        W33770  13.041   0.846  14.917 -0.2728  0.0899 -0.0077
16247W        W33771  12.497   1.213   3.220 -0.2584 -0.0598 -0.1767
16248W        W33772   9.324   3.634   0.095 -0.0474  0.1788  0.0072
16249W        W33773   8.303  14.321  15.995  0.0798  0.1910 -0.3916
16250W        W33774   6.900   5.435   0.821  0.1446  0.0542  0.0625
16251W        W33775   9.091   5.606  16.127  0.0752  0.3782  0.0141
16252W        W33776   6.936  12.879   5.107  0.1699 -0.1218  0.2441
16253W        W33777   2.808   8.970   4.269 -0.1469  0.0718  0.1471
16254W        W33778   4.333   8.378   2.653 -0.1761 -0.0498  0.2505
16255W        W33779   0.227  13.095  13.524  0.2689  0.2563 -0.0304
16256W        W33780   3.704   1.566   3.354  0.1794 -0.1993  0.1301
16257W        W33781  14.862  12.899  14.023 -0.1809  0.0019 -0.3387
16258W        W33782   8.172   4.614   3.687  0.0836 -0.2977  0.0217
16259W        W33783   3.167  13.383  12.788  0.3191  0.1579  0.0814
16260W        W33784  16.350  16.084  11.668  0.0231  0.0398 -0.1330
16261W        W33785  14.391   5.171  12.435 -0.1234 -0.5132  0.1935
16262W        W33786  10.979   9.948  16.849  0.1205 -0.2426 -0.0256
16263W        W33787   1.395   7.833   5.248  0.1362  0.0094 -0.2791
16264W        W33788  15.938  14.505  12.221  0.0305  0.1000 -0.0801
16265W        W33789  10.696   1.078  14.301  0.2672  0.2566  0.0745
16266W        W33790   9.750   2.715   0.469  0.3765  0.2218 -0.2722
16267W        W33791  10.869  12.095  13.385  0.2619 -0.1720  0.1030
16268W        W33792   8.620   7.138   2.636 -0.2869 -0.0460  0.2063
16269W        W33793   2.662  15.131  12.092 -0.1770 -0.1471  0.1545
16270W        W33794   0.361   5.336  12.763  0.1162 -0.1216 -0.3446
16271W        W33795  17.160   0.954   1.476  0.1766  0.0612 -0.2442
16272W        W33796   5.839   4.725   1.452  0.0815 -0.1666 -0.0184
16273W        W33797   0.114  12.545  14.337 -0.1705  0.1945 -0.0022
16274W        W33798   0.932   2.476  13.162 -0.2069  0.4095 -0.1375
16275W        W33799  13.717   0.389   2.257  0.0318 -0.0998 -0.0563
16276W        W33800  12.967  10.004  17.485  0.2829 -0.3208  0.3194
16277W        W33801  12.017  10.303  12.319 -0.3847  0.3610 -0.0078
16278W        W33802   8.002   0.198   5.733  0.1714 -0.0161  0.0415
16279W        W33803   3.914  16.829   5.328  0.0533 -0.1970  0.0694
16280W        W33804  14.693   7.153  13.508 -0.2317  0.2342  0.2607
16281W        W33805   0.602   0.274  16.951 -0.2094  0.0133  0.2824
16282W        W33806  11.663  15.136  12.748  0.0781 -0.1987  0.2840
16283W        W33807   0.761  17.147  17.270  0.1484 -0.1768  0.0575
16284W        W33808  16.338  13.903  15.562  0.1353 -0.0297 -0.2053
16285W        W33809   4.747   6.739  12.625 -0.1327  0.3040 -0.1676
16286W        W33810  12.098  10.979  14.850  0.1065 -0.0120 -0.2280
16287W        W33811   5.369  10.100  14.710 -0.1820  0.1301  0.1150
16288W        W33812   3.947   2.278   2.455  0.2769  0.0660  0.0786
16289W        W33813  10.455  15.024   1.752 -0.0094  0.1885 -0.0995
16290W        W33814  16.232   2.073  15.038 -0.1993 -0.0430  0.0899
16291W        W33815   2.304   4.795   2.107 -0.0472  0.2121  0.0003
16292W        W33816   2.008  10.212  12.550 -0.3305  0.0949 -0.1439
16293W        W33817  11.367   7.507   3.683  0.4468 -0.0390  0.2894
16294W        W33818   1.340  12.024  15.470 -0.3674  0.1575 -0.0542
16295W        W33819   6.700   1.492  16.736  0.5370 -0.1785  0.2879
16296W        W33820  12.057   7.006   4.374  0.0477  0.1486 -0.0576
16297W        W33821   8.502   6.248   1.282  0.0732 -0.1599 -0.0627
16298W        W33822  12.507   4.152  15.882 -0.1067 -0.0946  0.1349
16299W        W33823  14.590   0.612  15.279 -0.2407  0.0919  0.0825
16300W        W33824   6.110  10.722  16.344  0.2098  0.1110  0.1827
16301W        W33825  13.530  10.791  14.464  0.0606 -0.0629 -0.3967
16302W        W33826   3.099   7.898  13.711 -0.3472 -0.0266 -0.1191
16303W        W33827   1.522   8.047   0.961  0.1730 -0.0525 -0.0496
16304W        W33828   6.146   4.154   2.042 -0.1323 -0.0597  0.0847
16305W        W33829  12.426   6.278   0.179  0.3078  0.2677 -0.0179
16306W        W33830   9.659   7.352   1.647  0.0501  0.1291  0.2970
16307W        W33831   7.384  12.189   5.686 -0.1967  0.0986  0.0622
16308W        W33832  10.827   2.552   1.452 -0.0051  0.2502 -0.0414
16309W        W33833  11.824   7.917   5.011  0.3439  0.0463  0.5708
16310W        W33834   8.373   7.580  16.343 -0.1273 -0.2700  0.2145
16311W        W33835  12.263   6.539  16.445  0.2857 -0.1344 -0.1028
16312W        W33836   0.378   4.979  13.092 -0.2896  0.1053  0.1437
16313W        W33837  12.996   5.928  16.015 -0.1319 -0.0302 -0.0077
16314W        W33838   4.463   1.151  15.466  0.0039 -0.1142  0.0799
16315W        W33839   0.486  14.728   3.465  0.1631  0.2200  0.0564
16316W        W33840   6.896   2.507  17.155  0.3181 -0.1310  0.1011
16317W        W33841   6.486   8.050  14.119  0.0053 -0.0824  0.0528
16318W        W33842   3.101  16.321  13.267  0.0705  0.5011  0.0211
16319W        W33843  12.296   0.615  16.266 -0.1952  0.3999  0.1905
16320W        W33844   7.785  11.923   5.161  0.0142  0.0362 -0.1706
16321W        W33845  16.479   4.978   3.977  0.0308  0.2248 -0.2872
16322W        W33846   5.287  16.924  13.590 -0.2365  0.0440  0.3038
16323W        W33847   9.267  12.193   3.352 -0.0022  0.1741  0.2015
16324W        W33848  14.209   2.493  16.009 -0.1047 -0.0069  0.2154
16325W        W33849  16.637  14.668   3.929  0.0341 -0.0060  0.2222
16326W        W33850  11.793  11.611   5.230  0.0322  0.0995 -0.3783
16327W        W33851   1.205  10.133   4.187  0.0092  0.0581 -0.1065
16328W        W33852   9.744  12.378  17.591 -0.1924  0.0462 -0.0381
16329W        W33853   6.232  16.047   1.274  0.1231  0.1870  0.1102
16330W        W33854   6.960   8.985   3.757  0.0691  0.0062 -0.0785
16331W        W33855  13.181   1.200  17.394 -0.0627  0.0209 -0.4593
16332W        W33856   5.685  10.226   0.840  0.0268  0.1625  0.0633
16333W        W33857   1.111   0.715  17.639  0.0407 -0.0128  0.0645
16334W        W33858   8.943  10.220  13.748 -0.4903 -0.0958 -0.0750
16335W        W33859   4.927   7.690   3.931 -0.3542  0.2434 -0.1325
16336W        W33860  11.924  13.684  14.914  0.1316  0.4324  0.2634
16337W        W33861  13.728   7.606  13.218 -0.0329 -0.1633 -0.1053
16338W        W33862  12.054  15.551   4.428  0.2974  0.1102 -0.2801
16339W        W33863   6.982  13.773  13.321  0.0500 -0.1394  0.1551
16340W        W33864   5.263  17.226  17.372 -0.4365  0.1117  0.2954
16341W        W33865   2.760  14.524   5.596 -0.1852 -0.1346  0.0740
16342W        W33866   6.545   8.865   2.956 -0.4387 -0.0927  0.0550
16343W        W33867   6.214   4.562  13.727  0.1562  0.1961 -0.2220
16344W        W33868   4.825   0.039   2.204  0.0378 -0.2017 -0.0488
16345W        W33869  12.193  15.913   1.805 -0.1015  0.0506  0.4105
16346W        W33870  13.979   4.698  16.144 -0.2378  0.0739  0.2331
16347W        W33871   6.918   8.746   1.090  0.1199  0.0399  0.0184
16348W        W33872  16.274   7.543   2.105 -0.0311  0.1600 -0.1106
16349W        W33873   2.795  15.164  15.314  0.1009  0.0956  0.2181
16350W        W33874   9.492   5.829   5.559 -0.2210  0.2662 -0.3372
16351W        W33875   2.786  15.248   5.222  0.2757  0.0613 -0.3374
16352W        W33876   1.866  17.129   2.023 -0.0510 -0.1325 -0.0234
16353W        W33877   8.737  12.741   3.646 -0.2327  0.1260 -0.0653
16354W        W33878  14.060  17.062   2.904 -0.0513 -0.2291  0.2125
16355W        W33879  11.507   5.448  14.192  0.0492  0.2641  0.2300
16356W        W33880  15.213  11.281  13.415 -0.2463 -0.1786  0.0109
16357W        W33881   2.329   3.019   2.062 -0.2186  0.1506  0.1055
16358W        W33882  16.069   7.535  13.284 -0.1463 -0.0094 -0.0442
16359W        W33883   7.895  17.175   1.855  0.2760  0.2745 -0.1651
16360W        W33884   0.229   6.982   0.244  0.2965 -0.0488  0.2338
16361W        W33885   4.420  14.685   1.531  0.0597 -0.0023  0.2568
16362W        W33886   3.603  14.515  16.291  0.0410  0.0399  0.2279
16363W        W33887  15.001  12.422   4.184 -0.1615  0.0269 -0.5439
16364W        W33888  14.590   1.997  14.577  0.0518 -0.0666  0.1586
16365W        W33889  15.093  15.113  16.456 -0.0101  0.1389  0.0468
16366W        W33890  11.641  14.584  16.886  0.1091  0.3125  0.0246
16367W        W33891   4.365  14.510   1.062 -0.1375 -0.4905 -0.1051
16368W        W33892  12.878   0.480  17.435 -0.0873  0.0034  0.1082
16369W        W33893   9.441   1.548  12.295  0.1517  0.1331 -0.2371
16370W        W33894   9.260  10.554   5.171  0.2406  0.1077  0.0870
16371W        W33895   1.004   7.209  16.772  0.4384  0.2203  0.0333
16372W        W33896   9.506   6.838  13.076  0.0062  0.2613 -0.4567
16373W        W33897   0.790   0.584  15.545 -0.0118  0.3408  0.0675
16374W        W33898   5.130   9.192   3.660  0.0377 -0.0119 -0.1514
16375W        W33899   1.466  11.387  13.853  0.1164  0.0005  0.0334
16376W        W33900  14.648  11.634   0.255 -0.0396 -0.0147 -0.2520
16377W        W33901   2.081   8.443   2.864  0.2332 -0.1774 -0.0360
16378W        W33902   2.194  10.276  11.270  0.2206 -0.3114 -0.0051
16379W        W33903   0.355  10.486   3.159 -0.0692 -0.0325  0.2068
16380W        W33904  14.794   0.601   2.114  0.0793  0.1550 -0.2052
16381W        W33905   5.352   3.023   4.116  0.0874  0.1196 -0.1234
16382W        W33906   6.762   0.905   2.573  0.1360 -0.1104  0.0848
16383W        W33907   3.026   1.882  15.993  0.0619  0.1082  0.1898
16384W        W33908   8.347   7.346  12.572  0.2388  0.1334 -0.3298
16385W        W33909  13.710  13.542  14.926 -0.1034 -0.1205  0.0337
16386W        W33910   7.639  17.046  16.975  0.0658  0.0858 -0.1685
16387W        W33911   8.739   2.586  17.179 -0.0725 -0.0583 -0.0967
16388W        W33912   8.292  16.458   1.631 -0.2865 -0.0209  0.1294
16389W        W33913   1.656   7.153  16.720 -0.1649  0.1778 -0.2069
16390W        W33914   2.553   6.778  16.286 -0.0841  0.1330 -0.0444
16391W        W33915   6.150  14.830  12.818 -0.1838  0.0596  0.1717
16392W        W33916   0.413   2.166   2.337  0.0601  0.0067 -0.2520
16393W        W33917   1.105  14.900  16.925  0.0551  0.3119 -0.0535
16394W        W33918   2.548   7.757   3.055 -0.1547 -0.0759 -0.0819
16395W        W33919  14.584   1.884  12.337 -0.0703  0.0237 -0.0707
16396W        W33920   4.529   5.824  14.684  0.2622 -0.0180 -0.0165
16397W        W33921  12.771  10.041  13.935  0.2602 -0.1468  0.0316
16398W        W33922   7.597  15.798  16.722  0.1196 -0.1259 -0.0574
16399W        W33923   2.693   3.919   2.154  0.3131 -0.2118  0.0778
16400W        W33924   5.741   2.093   4.174 -0.0770 -0.2036  0.2437
16401W        W33925   8.079  11.108  15.940  0.3514 -0.0674 -0.0947
16402W        W33926  11.434   3.590  15.586 -0.0095  0.1215  0.1261
16403W        W33927  14.295   9.516  14.689 -0.0792  0.0627  0.1484
16404W        W33928   1.483   5.034   4.811 -0.0168 -0.0261  0.0915
16405W        W33929   3.060   7.070   1.083 -0.0265  0.0202 -0.1320
16406W        W33930   5.614   3.450   5.006  0.0160 -0.3917 -0.0132
16407W        W33931   5.376  10.653  14.612  0.0858  0.0306 -0.0881
16408W        W33932   7.356  12.059  15.635 -0.1628 -0.1039  0.2699
16409W        W33933   5.842   7.320  14.226  0.1687 -0.0092 -0.0540
16410W        W33934  13.236   6.993   0.548 -0.0578  0.2455  0.1287
16411W        W33935  10.980  12.161  14.839  0.0930  0.0041  0.3004
16412W        W33936  13.243   3.279  16.372 -0.0251  0.0289  0.2488
16413W        W33937  16.837   5.489  14.763  0.1536  0.0686 -0.1382
16414W        W33938   1.955  10.366  11.729  0.0726 -0.0001 -0.1182
16415W        W33939   2.882   2.731  12.249 -0.1015  0.3622 -0.2029
16416W        W33940  14.902  15.368  17.330  0.0862 -0.0532  0.2366
16417W        W33941  16.382   0.218  13.789 -0.1777  0.4666  0.1285
16418W        W33942  10.137   3.044  14.281  0.1180 -0.1352  0.1536
16419W        W33943   1.649   3.107  13.568 -0.1805  0.0794 -0.1068
16420W        W33944   2.512   1.150  14.507  0.1167 -0.1993  0.1748
16421W        W33945   0.919   6.684  13.946  0.0385 -0.0238 -0.1406
16422W        W33946  10.575  13.556   1.026 -0.1343  0.0195 -0.1228
16423W        W33947   6.059  15.613   0.202  0.1056 -0.2500 -0.0378
16424W        W33948  12.583  10.055  12.596  0.1407 -0.1386  0.0301
16425W        W33949   8.924  17.181  15.562 -0.1824 -0.4877 -0.3015
16426W        W33950   1.881  13.792  17.481 -0.3330  0.1044 -0.3232
16427W        W33951   5.305  14.942  15.468  0.2391  0.1789 -0.0871
16428W        W33952   9.588   5.522   3.928  0.0667  0.1076 -0.1710
16429W        W33953   2.023  11.777   1.629  0.0377  0.2247 -0.1201
16430W        W33954   5.037  14.043   0.596  0.1315  0.0319 -0.0503
16431W        W33955   1.127   8.952  13.964  0.0261  0.0789 -0.0093
16432W        W33956   6.135   8.778   0.863 -0.1977 -0.1301  0.0891
16433W        W33957  14.913  14.568  12.101  0.0253 -0.0280 -0.2849
16434W        W33958   4.103   5.521   4.291  0.0983 -0.1395 -0.0993
16435W        W33959  14.800  10.004  14.493 -0.0620 -0.0293  0.1030
16436W        W33960  16.570   4.021  13.051 -0.2525  0.1070  0.0460
16437W        W33961  15.216  12.540   3.328  0.0466  0.4298  0.0428
16438W        W33962  13.066   7.676  14.859  0.2411  0.2599 -0.1437
16439W        W33963   9.030   2.396   0.058 -0.1274 -0.0491  0.1963
16440W        W33964  15.722  17.139   0.330 -0.4415 -0.1796 -0.3379
16441W        W33965   1.370  10.707  17.051  0.1586 -0.0864  0.0314
16442W        W33966  13.121  12.410   1.839 -0.0342 -0.0381 -0.0654
16443W        W33967   2.427  16.505   2.627  0.2767  0.4070  0.0188
16444W        W33968   6.892  14.863  14.488 -0.1186  0.0386 -0.1463
16445W        W33969   9.216  10.587  13.562 -0.0314 -0.1539  0.1349
16446W        W33970  16.236  10.143  13.592 -0.0407 -0.2262  0.0964
16447W        W33971   2.904  13.588  15.077  0.1419 -0.3957 -0.0071
16448W        W33972   2.709  10.172   1.172 -0.0109 -0.0204 -0.1200
16449W        W33973  15.768   9.689   4.948  0.0073  0.0931 -0.2634
16450W        W33974  16.735  11.286   5.023  0.0381 -0.1562 -0.1177
16451W        W33975   2.651  10.134  17.157  0.2370  0.4094  0.2643
16452W        W33976  12.840  14.735   1.596  0.0387 -0.0395 -0.0169
16453W        W33977   4.495   6.331   3.253  0.2204 -0.0367  0.1817
16454W        W33978  16.368   1.880   1.872  0.1595 -0.2823  0.3689
16455W        W33979   4.776   1.672  15.765 -0.0663  0.4763 -0.1164
16456W        W33980   4.030   9.419   2.183  0.0728  0.4776  0.0618
16457W        W33981   1.280  15.988  12.936  0.1937 -0.3212  0.1416
16458W        W33982   9.412  14.880  16.344 -0.4180  0.2329  0.3964
16459W        W33983   1.921   5.327   1.476 -0.0500 -0.1689  0.2324
16460W        W33984   9.271   8.241   4.043  0.0571 -0.0806  0.1062
16461W        W33985  11.899   1.057   1.184 -0.0890 -0.3295  0.1844
16462W        W33986   1.399   0.362   6.605  0.1608  0.1087  0.1277
16463W        W33987   2.324   4.729  13.126  0.0378  0.2486  0.1965
16464W        W33988   9.500   0.046   5.034 -0.1106  0.0959 -0.1450
16465W        W33989  14.463  12.274  15.842 -0.3568  0.0813  0.1921
16466W        W33990   7.731   3.245   3.492  0.0994 -0.0782  0.3178
16467W        W33991   4.039   0.320  16.506 -0.0555 -0.1251 -0.0037
16468W        W33992   0.606  12.583   3.430  0.1445  0.2245 -0.2074
16469W        W33993   8.625   9.587   0.145  0.0986 -0.1009 -0.1258
16470W        W33994   5.121  13.107   5.489 -0.2014  0.2164  0.0580
16471W        W33995  14.275   3.787  11.240 -0.2051 -0.2423 -0.1915
16472W        W33996   5.185   0.987  17.434 -0.0552 -0.3689  0.0143
16473W        W33997  11.769   1.352   4.237 -0.0254 -0.1847  0.0889
16474W        W33998  11.359   8.354  13.209  0.2852  0.1873 -0.1483
16475W        W33999   0.982   2.656   5.596  0.1710 -0.2322  0.0848
16476W        W34000   4.398   1.296  16.050 -0.0789  0.3996 -0.1201
16477W        W34001  15.641   9.031  16.914  0.1774 -0.1462 -0.2487
16478W        W34002   4.604  10.116  15.979 -0.1196 -0.3061  0.0828
16479W        W34003  16.220  12.617   1.279 -0.1219  0.1503  0.1192
16480W        W34004  16.610  14.289  15.764 -0.0592  0.0852 -0.1888
16481W        W34005   0.484   2.803  14.093  0.1036  0.4651 -0.0062
16482W        W34006  12.750   5.118  16.310  0.2009  0.0526  0.0914
16483W        W34007  13.695  14.483   3.930 -0.0902  0.1575 -0.0257
16484W        W34008  15.487   8.910   2.750 -0.2543  0.1919 -0.0816
16485W        W34009  12.051   4.338  14.988 -0.0238 -0.1738  0.1974
16486W        W34010  13.732   0.525  16.845 -0.0458 -0.1685  0.0121
16487W        W34011  13.628   5.600  16.583  0.1150 -0.4545 -0.2277
16488W        W34012   7.369   1.645  13.573 -0.0007 -0.0255 -0.0579
16489W        W34013  17.010   6.250   2.389 -0.0157  0.2589  0.2696
16490W        W34014   0.871  13.114  16.129  0.0216  0.0311 -0.2287
16491W        W34015   8.122   3.002   4.963 -0.0667  0.1840 -0.1370
16492W        W34016   6.716   4.665  13.553 -0.0073 -0.1697 -0.3021
16493W        W34017  16.538  16.054   1.112 -0.1380 -0.0857  0.0115
16494W        W34018  15.826   6.408  15.558  0.1834  0.2958  0.0916
16495W        W34019  16.208   7.275   0.123 -0.2027  0.1223  0.2126
16496W        W34020  10.532   5.345   3.353  0.2858  0.1059  0.1932
16497W        W34021   9.572   6.950  16.319 -0.1631  0.0617  0.2134
16498W        W34022   5.870   8.262   0.308 -0.0459 -0.4097 -0.1258
16499W        W34023  13.729   2.736   2.181  0.3688  0.0715  0.3034
16500W        W34024  13.156   1.652   4.199 -0.1510 -0.2733 -0.0791
16501W        W34025  15.425   7.333  12.770 -0.0226 -0.1976  0.0602
16502W        W34026  15.532   4.128  16.685  0.1867 -0.0112 -0.2676
16503W        W34027   9.789  10.097   1.681  0.1737 -0.0332  0.1927
16504W        W34028   6.328   2.330   0.264 -0.3443  0.2218  0.2868
16505W        W34029  16.188   1.201  12.931 -0.0715 -0.1611 -0.4492
16506W        W34030   1.060   8.161  17.632  0.1677  0.1448 -0.2172
16507W        W34031   3.118  12.891  15.952 -0.4873  0.0099 -0.2331
16508W        W34032  10.584   0.988   4.421  0.0807  0.0764  0.4399
16509W        W34033   0.711   1.289  14.814  0.1185 -0.3563 -0.1545
16510W        W34034   7.967  16.372   4.697 -0.1116  0.0302  0.0805
16511W        W34035   5.728   6.240   2.558 -0.1022 -0.0235 -0.1076
16512W        W34036   4.046   6.852   2.700 -0.0221 -0.3532  0.0238
16513W        W34037   2.734  15.204   0.078  0.1185 -0.1516 -0.0820
16514W        W34038   1.015   9.112   5.482  0.2490 -0.1900 -0.0981
16515W        W34039  12.742   4.115  12.741 -0.1770  0.1960  0.2000
16516W        W34040   9.433   3.866  16.393 -0.2325  0.2871 -0.1783
16517W        W34041   5.588   8.268  16.629 -0.2882 -0.0669 -0.1869
16518W        W34042  15.108   7.077  14.894  0.0341 -0.0027 -0.1808
16519W        W34043   6.212  10.132   3.492  0.0795 -0.1648  0.1939
16520W        W34044   7.858  13.959   4.326  0.0816 -0.0365 -0.1474
16521W        W34045   8.993   5.507  13.947 -0.1161  0.1897  0.1800
16522W        W34046   6.620  10.117  16.674  0.0994  0.2882 -0.1606
16523W        W34047  14.319  16.340  14.325  0.0824  0.1029 -0.2907
16524W        W34048   3.205   4.193  12.184  0.1614  0.2036  0.0736
16525W        W34049  14.009  14.242  11.039  0.1871  0.0146 -0.0906
16526W        W34050   4.554   2.914   1.315  0.0470  0.2076 -0.0058
16527W        W34051  10.746  14.884  16.936 -0.0997  0.2812  0.0321
16528W        W34052   5.980   1.819  12.456  0.3703 -0.1907  0.0175
16529W        W34053  15.200   3.136  17.511 -0.0650  0.1552  0.3446
16530W        W34054  12.204  15.714   1.311  0.0359  0.0007  0.1254
16531W        W34055   4.945   7.342  16.059 -0.0849 -0.0122 -0.0079
16532W        W34056   3.078  11.309   2.862 -0.0169 -0.2077  0.0687
16533W        W34057   2.881   2.232  12.315 -0.0901 -0.3517 -0.0196
16534W        W34058   1.068   0.309   0.924  0.3905  0.0478  0.2081
16535W        W34059   0.853  10.489   3.063  0.1500 -0.0469  0.3646
16536W        W34060   7.371  15.147  12.748  0.0049  0.3780  0.2994
16537W        W34061  13.367   2.805  11.713 -0.1890  0.1177  0.0774
16538W        W34062   5.136   5.967  15.369  0.2778  0.1048  0.0767
16539W        W34063  13.385  15.083   1.778 -0.2070  0.1555  0.2899
16540W        W34064  10.917  10.788   3.607 -0.0494  0.0580 -0.0687
16541W        W34065  16.086   5.638  12.330  0.0948 -0.0113  0.1947
16542W        W34066  14.020   7.404   3.804 -0.3998  0.3120  0.4330
16543W        W34067   8.460   0.203   3.431  0.0618 -0.1805  0.1367
16544W        W34068   3.525   3.798  16.813 -0.2565  0.1219  0.3543
16545W        W34069  11.969   0.689  16.802 -0.1992  0.0342  0.3091
16546W        W34070   7.533   8.124  12.697  0.0372 -0.2433  0.2182
16547W        W34071   1.376   6.896  14.330  0.2176 -0.1043  0.1591
16548W        W34072   2.878  16.083   2.603 -0.3017 -0.0177 -0.0419
16549W        W34073   6.295   0.056  14.451  0.1615  0.1667 -0.2425
16550W        W34074  15.356  15.335   4.317  0.0093  0.1067 -0.1173
16551W        W34075   2.909   3.658  17.534 -0.0291 -0.1216  0.1040
16552W        W34076   3.973  10.306   5.649 -0.5184 -0.3288 -0.0299
16553W        W34077   2.733   1.476   3.549 -0.0262  0.0498 -0.3216
16554W        W34078  12.977   6.347   3.739 -0.0799  0.1630 -0.0548
16555W        W34079   6.219   3.009  14.399 -0.2705 -0.1755  0.0189
16556W        W34080   2.013   4.588  12.168  0.0493  0.0679 -0.2281
16557W        W34081  11.380  17.089   3.462 -0.0914  0.1983  0.0429
16558W        W34082  10.387   8.791   2.526  0.0085  0.1516  0.0529
16559W        W34083   7.458   9.252   1.680 -0.1292 -0.0583 -0.2026
16560W        W34084   6.572  15.095   4.240  0.0022 -0.1148 -0.0241
16561W        W34085   0.667   2.263  12.493 -0.1591 -0.2081 -0.0115
16562W        W34086   6.045   5.671  16.988 -0.2238  0.1340 -0.1290
16563W        W34087   8.693  16.158  16.802 -0.1877 -0.0225 -0.0538
16564W        W34088  15.954  10.562  16.155 -0.0005 -0.2321 -0.0670
16565W        W34089   4.873  17.203   3.156  0.1445 -0.0528  0.0364
16566W        W34090  13.472   6.375   4.661 -0.1473  0.0143  0.1610
16567W        W34091  16.814   5.753   2.948  0.2065 -0.1331 -0.0844
16568W        W34092  10.012  14.909   1.501  0.0571 -0.0568 -0.2672
16569W        W34093   6.065   2.082  16.505 -0.2300  0.2348 -0.1141
16570W        W34094   1.304   1.562   5.551  0.2801  0.0644 -0.2141
16571W        W34095   6.265  11.760   1.124  0.0573 -0.0142 -0.0916
16572W        W34096   0.653  13.546   5.182 -0.0929 -0.2555  0.1746
16573W        W34097   4.970  10.613   2.917 -0.4092  0.2644  0.0773
16574W        W34098   9.489   1.619   5.048  0.0177 -0.0962 -0.3571
16575W        W34099   4.081   1.050   1.848  0.0553 -0.0309  0.0409
16576W        W34100   8.867   0.468  13.470  0.0204  0.1145 -0.1474
16577W        W34101   8.476   8.614   1.951  0.0859 -0.3163 -0.0947
16578W        W34102   1.791  10.674  12.526  0.4495  0.1129 -0.0847
16579W        W34103   9.960  14.727  13.660  0.0845 -0.0324  0.2373
16580W        W34104   4.998  14.113  14.156 -0.1535 -0.2477 -0.0831
16581W        W34105   1.596  14.571   2.485 -0.3314  0.1231  0.0048
16582W        W34106   5.770   6.460  14.922  0.0735 -0.2245 -0.1975
16583W        W34107  11.163  10.412   0.115  0.1863 -0.2380 -0.1053
16584W        W34108  14.745  17.148  13.889  0.0324  0.2024 -0.1891
16585W        W34109  16.533   9.019  15.750  0.1873 -0.1141  0.1679
16586W        W34110  15.804   2.030  16.239 -0.2408  0.3510  0.1739
16587W        W34111   8.055   4.746   0.359  0.1435 -0.0797  0.0161
16588W        W34112   7.658  15.229   1.613 -0.2129  0.1377 -0.0209
16589W        W34113  11.142   8.029  16.891 -0.0160 -0.3755 -0.3023
16590W        W34114  11.987   8.716   2.793  0.4870 -0.0860  0.1119
16591W        W34115   2.722  11.077  13.096 -0.0258  0.2915  0.0571
16592W        W34116   5.013   4.518  13.178  0.1752 -0.2289 -0.1726
16593W        W34117  16.478   9.390   0.822  0.0408 -0.2066 -0.1668
16594W        W34118  12.232  15.362   5.356  0.1703 -0.0178  0.0028
16595W        W34119  14.101  10.775  13.538 -0.0949 -0.1980  0.3251
16596W        W34120   2.831   8.327  12.125  0.0700  0.0526 -0.0186
16597W        W34121  13.762   2.977  14.590 -0.1553 -0.3987 -0.0946
16598W        W34122  16.257   3.229  12.573 -0.1409  0.0417 -0.0438
16599W        W34123   7.885   8.283   3.253 -0.2290  0.3250  0.0056
16600W        W34124   4.612  16.311  15.438  0.0105  0.1992  0.2574
16601W        W34125   2.286   5.766  17.585  0.3648 -0.0882 -0.0171
16602W        W34126  11.310  15.157  16.105 -0.3002 -0.0397 -0.1479
16603W        W34127   8.162  10.874  12.261 -0.1165  0.0033 -0.0115
16604W        W34128   2.973  10.105   3.427 -0.0053  0.2509  0.2732
16605W        W34129   7.056   9.403   2.604 -0.2355  0.3620 -0.1970
16606W        W34130   8.249   4.953  15.335 -0.1613  0.3848  0.4560
16607W        W34131  16.664  14.103   4.252 -0.0327 -0.0337  0.1923
16608W        W34132   2.132   3.753   0.652  0.1104  0.0163 -0.1698
16609W        W34133  15.737   2.005  13.072  0.0530  0.1294  0.2227
16610W        W34134   6.204  12.003   1.520  0.1573  0.0319 -0.1082
16611W        W34135   3.158   0.334   4.805 -0.0950  0.1090  0.1880
16612W        W34136   2.298  12.245   1.596 -0.2227  0.4328  0.2925
16613W        W34137   6.482   0.673  17.435 -0.0915  0.3180 -0.2784
16614W        W34138   7.423   6.763   5.804 -0.3511  0.1627  0.3111
16615W        W34139   1.157   0.416  15.228  0.0167  0.0272 -0.2332
16616W        W34140   1.173   6.862   4.046  0.0900  0.0010 -0.2179
16617W        W34141   4.047   6.518  16.782  0.1384  0.0481 -0.2112
16618W        W34142  13.550   4.788  11.265  0.1986  0.1132  0.0917
16619W        W34143  11.135   8.724   5.408  0.1786  0.0088 -0.0209
16620W        W34144   7.718   6.125  16.400 -0.1179  0.3203  0.0050
16621W        W34145   8.775  10.770  13.635 -0.2769  0.3216 -0.3362
16622W        W34146  16.990   8.649   4.120 -0.1175  0.1394  0.0186
16623W        W34147   4.605  13.154   4.435  0.1978 -0.0310  0.0651
16624W        W34148  15.564  14.137   1.629 -0.1541  0.0443 -0.0913
16625W        W34149  12.307   9.353   3.738 -0.0352 -0.1764  0.0151
16626W        W34150   7.624  16.143   2.733  0.1049  0.0397  0.0032
16627W        W34151   6.810   0.566   5.214  0.0376  0.1083 -0.1827
16628W        W34152   6.113  14.883  17.214  0.2747 -0.0441 -0.1060
16629W        W34153   7.628  16.494  15.605  0.0275 -0.0673  0.0426
16630W        W34154  10.205   6.501   4.892  0.0594  0.0350  0.1748
16631W        W34155   7.377   5.413  15.692 -0.0534  0.1809  0.0600
16632W        W34156  11.441   8.108   4.668 -0.0447  0.0922 -0.2701
16633W        W34157   3.172   3.706  13.723 -0.0927 -0.0361  0.0397
16634W        W34158  11.491  12.030   1.220  0.3682  0.1998 -0.1266
16635W        W34159   2.422  11.843   0.796  0.0429  0.2349 -0.0388
16636W        W34160  15.960   0.432  15.409  0.2727 -0.0102 -0.1436
16637W        W34161  11.151  16.169   3.718  0.1655  0.0512 -0.2020
16638W        W34162   6.309   6.092  13.529 -0.0867  0.2007  0.0106
16639W        W34163   3.811   9.628  15.790 -0.0746  0.1293  0.2071
16640W        W34164   6.826   5.421   4.811 -0.0598 -0.0269 -0.2580
16641W        W34165   8.790   0.724  17.554  0.0713  0.1115 -0.3218
16642W        W34166  16.716  11.522  14.820 -0.3218 -0.0397  0.0674
16643W        W34167   2.215  12.103  16.724 -0.5027 -0.1926 -0.0336
16644W        W34168   5.890   3.840   1.669  0.1687 -0.2991  0.2216
16645W        W34169   4.358   0.150  15.534  0.2251 -0.0345  0.0696
16646W        W34170  16.767  13.551  15.546  0.0751  0.2783  0.1341
16647W        W34171   7.845  12.066   3.293 -0.2520  0.1425 -0.2284
16648W        W34172   7.724  13.802  14.372  0.3891 -0.0873 -0.0469
16649W        W34173   2.891  16.613  13.676 -0.3103 -0.2506 -0.2299
16650W        W34174   2.520  14.468   3.071 -0.1684 -0.0973  0.1125
16651W        W34175   3.661  11.616   2.285 -0.2504  0.5103 -0.1118
16652W        W34176   2.691  11.415  16.769 -0.1575 -0.0102 -0.0065
16653W        W34177   8.800  12.265  17.109  0.0889 -0.1582  0.1112
16654W        W34178  15.714  16.423  17.478 -0.0365  0.0483  0.0337
16655W        W34179  14.295   3.051  12.790  0.0392  0.0043  0.0665
16656W        W34180   7.159   3.571   1.080  0.1936 -0.4233 -0.1439
16657W        W34181   1.900   6.939   2.287 -0.0615  0.1344 -0.0596
16658W        W34182   9.362   3.269   1.182 -0.0308  0.0632  0.2138
16659W        W34183   4.025   8.773  11.294  0.0364 -0.0707 -0.0252
16660W        W34184   6.590  13.183   3.262 -0.0903  0.1952 -0.1633
16661W        W34185  12.022   6.519  15.513  0.1541  0.0267 -0.0032
16662W        W34186   5.604   6.004   0.117  0.3358  0.1604 -0.0166
16663W        W34187   0.325   3.028   0.556 -0.3169  0.0931 -0.0227
16664W        W34188   5.149   8.352   2.920  0.1702 -0.0779  0.1814
16665W        W34189  11.415   4.062  13.792  0.1315 -0.1713 -0.0733
16666W        W34190  14.991   5.789   2.741  0.0947  0.1206 -0.2836
16667W        W34191  10.120   4.873  16.916  0.0624 -0.2265 -0.0239
16668W        W34192  11.574  11.341   0.111 -0.1098  0.0039 -0.1953
16669W        W34193   8.847  15.821  13.646 -0.0543 -0.2789  0.1172
16670W        W34194   0.299   7.510   2.520  0.0492 -0.4958 -0.1634
16671W        W34195   7.910  10.574  12.640 -0.6087  0.1072  0.0717
16672W        W34196  11.082   1.913  14.980  0.0479  0.2961 -0.0087
16673W        W34197   4.486  15.769  14.882 -0.1091  0.0124  0.2738
16674W        W34198  15.768  13.340  13.411  0.0419 -0.1551 -0.1637
16675W        W34199  14.579  16.714  14.600  0.2507 -0.0722  0.1436
16676W        W34200   3.736   4.574  16.850  0.0271  0.3219  0.0233
16677W        W34201   1.851   2.941  11.080 -0.1619 -0.1764  0.2226
16678W        W34202  11.125  10.646   4.470  0.2526 -0.2008 -0.0976
16679W        W34203   2.303   1.029  16.363  0.1694 -0.0329  0.2857
16680W        W34204  12.996   2.972  15.222  0.4414 -0.1103 -0.1095
16681W        W34205   2.722  15.861  13.195  0.1897  0.0657 -0.1155
16682W        W34206   6.478  11.822  15.608 -0.0930  0.0680  0.2080
16683W        W34207   5.389   9.839   5.624  0.1911  0.0696 -0.1946
16684W        W34208   5.280   1.624  14.336  0.0417  0.2776 -0.2768
16685W        W34209   2.614  17.138   3.520 -0.3235 -0.1996  0.1776
16686W        W34210   9.113   5.141  15.244  0.0586 -0.1356 -0.0257
16687W        W34211   4.704  16.466  16.176 -0.0762 -0.0635  0.0550
16688W        W34212  10.554   8.593   3.615  0.0049  0.1907  0.1072
16689W        W34213   7.020  12.552   1.080 -0.0494 -0.0361  0.0644
16690W        W34214  13.677   8.301   1.069  0.0647  0.0556 -0.0881
16691W        W34215  11.621   7.569  13.745 -0.0206 -0.0030  0.3994
16692W        W34216   5.485   0.680  16.812  0.0060 -0.2128 -0.1727
16693W        W34217   3.588  11.402   0.732  0.1250  0.1930 -0.1386
16694W        W34218   9.768   7.268   3.088  0.0640 -0.0337  0.1638
16695W        W34219   1.009   3.235  12.805  0.1152 -0.0869 -0.0431
16696W        W34220   3.773  10.308   1.623 -0.3450 -0.3104 -0.1473
16697W        W34221   5.646  13.901  15.891 -0.2090 -0.2120  0.2704
16698W        W34222   8.048  10.617  17.110  0.1572 -0.2494 -0.0062
16699W        W34223   2.800  16.141   3.758  0.2382 -0.1620 -0.2100
16700W        W34224   7.917  10.569   4.067  0.1258 -0.1885 -0.1962
16701W        W34225   3.582   4.206  15.164  0.0604 -0.1835 -0.1409
16702W        W34226   9.976  10.655   3.692 -0.1554  0.0928  0.1487
16703W        W34227  14.577   8.350   3.728  0.0884 -0.2141 -0.0635
16704W        W34228   5.686  13.182  13.037  0.0080  0.2905 -0.0360
16705W        W34229   2.760  12.130  16.250 -0.1470 -0.0994  0.0484
16706W        W34230  12.001  13.442   2.062 -0.2181  0.1494  0.0733
16707W        W34231   4.059   9.115  13.594 -0.0282 -0.0630  0.2168
16708W        W34232   2.567  17.213  12.099 -0.1528 -0.0534  0.1744
16709W        W34233   8.429  14.792   1.775  0.2236  0.0779 -0.0374
16710W        W34234   9.369  10.292  16.002  0.1302  0.0535 -0.0913
16711W        W34235  13.210   9.842  17.017  0.2468 -0.1291 -0.1042
16712W        W34236  11.393   0.460  14.344 -0.1109  0.1209  0.1981
16713W        W34237   2.922   6.348   6.145  0.3081  0.1629  0.0243
16714W        W34238   4.477  13.468   0.544 -0.0416 -0.0725  0.0359
16715W        W34239   4.043   5.212  13.117  0.1453 -0.1806 -0.2497
16716W        W34240  14.855  15.955  13.096  0.1898 -0.1917 -0.1136
16717W        W34241  10.098  16.243  15.171 -0.1801 -0.2450  0.0259
16718W        W34242  10.602  16.584   3.711  0.2082 -0.1417 -0.0024
16719W        W34243   7.173   8.967  15.963  0.1894 -0.2317 -0.0758
16720W        W34244  14.861   9.082   2.206  0.0005  0.0350 -0.0357
16721W        W34245  11.443   2.422  17.553  0.0385 -0.0389  0.1856
16722W        W34246   1.978   7.562  16.170 -0.2540 -0.3622 -0.0506
16723W        W34247  10.884   4.125  17.432  0.2938 -0.0953 -0.1880
16724W        W34248   0.821  15.417   0.358 -0.2306  0.0595  0.0846
16725W        W34249  14.682   2.059  12.788 -0.1712 -0.0561 -0.2567
16726W        W34250   2.203   0.481   2.512  0.0898 -0.0467  0.3688
16727W        W34251  13.345   1.082  16.772  0.0451 -0.3033  0.0376
16728W        W34252   8.806  10.260   4.444  0.3381 -0.2695 -0.0351
16729W        W34253  15.720   4.938  17.463 -0.1996 -0.0659 -0.1012
16730W        W34254  10.477   5.193  14.235 -0.1513 -0.0886  0.3147
16731W        W34255   8.071  15.046  16.689 -0.2839 -0.1852 -0.0254
16732W        W34256  11.375   9.191   0.228 -0.0512 -0.2470  0.0796
16733W        W34257  15.228   2.197  16.304  0.4919 -0.0446  0.0246
16734W        W34258   1.384   9.345  16.640 -0.0565 -0.1836 -0.1717
16735W        W34259   1.267   8.115   4.056  0.0037  0.1121 -0.0920
16736W        W34260   2.013   7.922   4.551  0.0181  0.0446 -0.0613
16737W        W34261   5.269  16.399  13.294 -0.0986  0.0678  0.0197
16738W        W34262   9.185   2.251  15.440 -0.1180  0.0135 -0.1784
16739W        W34263  12.482   1.152   1.246 -0.1208 -0.1753 -0.1751
16740W        W34264   1.688  15.420   0.276 -0.0715 -0.0141  0.1898
16741W        W34265   1.485   0.466   0.106  0.1420 -0.0568 -0.2531
16742W        W34266  14.413  12.373   3.132 -0.2702 -0.0743  0.0574
16743W        W34267   7.148   0.879   1.742 -0.0889  0.2269  0.0233
16744W        W34268   3.968   3.100   4.083 -0.0152  0.0932  0.0233
16745W        W34269  13.084  14.780   2.060  0.1433 -0.1664 -0.0325
16746W        W34270   6.669   7.636   0.288 -0.5108  0.0358  0.1717
16747W        W34271   2.309   6.876   3.861 -0.1860  0.3449  0.0215
16748W        W34272   8.012  10.008   5.416 -0.1679 -0.0342 -0.0967
16749W        W34273   2.308  13.880  16.128  0.0502 -0.1292  0.3489
16750W        W34274   9.074  11.585  14.752 -0.0795 -0.2099 -0.0657
16751W        W34275  10.788  16.466  12.942  0.0774  0.0670 -0.2206
16752W        W34276  10.729   7.060   0.449  0.2494 -0.1824  0.1798
16753W        W34277   7.703   9.024  16.740 -0.0032 -0.1717 -0.1121
16754W        W34278  12.244   1.895   4.754 -0.0690 -0.0004 -0.4617
16755W        W34279  16.746   0.460  16.089  0.0795  0.0197 -0.0822
16756W        W34280  15.327   0.852  16.755  0.2699  0.0525 -0.0258
16757W        W34281  11.402  11.195   0.559 -0.1643  0.1406 -0.0121
16758W        W34282   9.869   9.868  13.626  0.2090 -0.3557  0.0895
16759W        W34283   8.970   7.147   3.499 -0.1643 -0.1710  0.2220
16760W        W34284  12.458   4.695  14.205  0.0693  0.1413  0.2195
16761W        W34285   5.646   2.934  13.172  0.5003  0.2912 -0.1577
16762W        W34286   7.916  16.717   3.834  0.0076 -0.1224 -0.0759
16763W        W34287   1.082   6.982  15.076 -0.0851  0.0466  0.1616
16764W        W34288  10.795   5.759   5.032 -0.0776  0.1900 -0.0250
16765W        W34289   9.958  15.293  13.598 -0.2020  0.1734  0.2007
16766W        W34290   2.839  15.889   1.226 -0.1222  0.1421  0.0597
16767W        W34291   9.179   8.836  14.486  0.0483 -0.0500  0.4046
16768W        W34292   0.570  10.924  14.853 -0.0721 -0.1378 -0.1653
16769W        W34293   2.473  15.448  14.947  0.0429  0.2275  0.2078
16770W        W34294   4.505  10.951   1.433 -0.0653  0.0289  0.3163
16771W        W34295  13.720   3.917   5.197  0.0822  0.1336  0.0051
16772W        W34296   4.782  11.333  12.250  0.0674  0.1039 -0.0358
16773W        W34297   5.824   3.857  12.415 -0.0011  0.1924  0.2608
16774W        W34298   6.391  12.342  17.191  0.1117 -0.3714  0.5171
16775W        W34299   7.266   6.871  13.911 -0.1133  0.0346 -0.0642
16776W        W34300   0.932  11.209   4.476  0.0422 -0.2698 -0.2561
16777W        W34301  16.820   8.292  12.149  0.2665  0.2066 -0.1278
16778W        W34302   9.570   9.876  15.823  0.0097 -0.4784  0.1867
16779W        W34303   5.021  12.288  14.627  0.0010  0.0814  0.0994
16780W        W34304  10.016   4.799  15.072 -0.1025 -0.2320 -0.1739
16781W        W34305   8.897   2.078  17.275  0.3424 -0.0412  0.0792
16782W        W34306  15.062  10.738  15.443  0.1019  0.1209  0.2022
16783W        W34307  11.274   1.661   1.564  0.2374 -0.0010  0.1912
16784W        W34308  10.723   8.649   1.167  0.4356  0.1301 -0.0042
16785W        W34309   9.059   3.527  16.360  0.1445  0.1422 -0.0380
16786W        W34310   4.097  11.644   3.775 -0.3811  0.4569 -0.4327
16787W        W34311   4.199   3.156  12.214  0.1073  0.3245 -0.0410
16788W        W34312  17.221   0.278  15.818 -0.1326  0.3196  0.1271
16789W        W34313  12.353  12.793  17.054  0.0383  0.2076  0.0379
16790W        W34314  13.051  12.524   0.580  0.3855  0.4159 -0.2529
16791W        W34315  13.493  17.191  12.668  0.1589 -0.1688  0.1923
16792W        W34316   8.683  11.135   5.374 -0.0166 -0.2400 -0.2792
16793W        W34317  11.785  11.034   0.761  0.0172 -0.0977  0.5005
16794W        W34318  10.316   9.981   3.165 -0.1098 -0.0278  0.2139
16795W        W34319   8.356   7.019   5.013  0.2970  0.1165  0.0991
16796W        W34320   6.712   0.553   0.516  0.0281 -0.2494 -0.1700
16797W        W34321   4.004  14.229  13.721 -0.2561 -0.1487 -0.2152
16798W        W34322   2.256  10.135  14.551 -0.1301  0.2078 -0.1198
16799W        W34323  15.505   8.056   2.029  0.0032  0.1089 -0.1562
16800W        W34324  15.584   4.937  14.951  0.0506 -0.0578  0.1914
16801W        W34325  14.645   3.908   5.359  0.0360 -0.3772  0.2406
16802W        W34326  15.193   1.840  13.694 -0.1293 -0.0976  0.0595
16803W        W34327  16.557  11.698   1.151  0.1464  0.0862 -0.2528
16804W        W34328  14.722  12.173  12.466 -0.1186  0.0134 -0.1209
16805W        W34329  11.605   7.231  14.124  0.1624 -0.0802  0.0829
16806W        W34330   6.448   1.286  17.567  0.3694  0.0077  0.0090
16807W        W34331  10.848   0.810   4.979  0.1220  0.0689  0.1018
16808W        W34332  11.537  13.006  12.996 -0.4713 -0.1151  0.0307
16809W        W34333  11.583  14.652  14.812  0.0756  0.1706  0.0443
16810W        W34334   3.491   8.199   2.934 -0.1264 -0.1124 -0.1308
16811W        W34335   4.169  10.236  14.312 -0.2454  0.0578  0.2165
16812W        W34336  16.992  11.205   0.204  0.0739  0.1360  0.5045
16813W        W34337  14.841   7.977   3.503 -0.3966 -0.1335 -0.2720
16814W        W34338   5.298  15.630  12.209  0.2189 -0.1705 -0.0451
16815W        W34339   0.456   8.466  17.518  0.0256 -0.0163 -0.3668
16816W        W34340  12.695  16.462  14.663 -0.1168 -0.1578 -0.0386
16817W        W34341   7.436  10.202   0.591 -0.1059 -0.1664 -0.1822
16818W        W34342   2.239   5.719  16.214 -0.1286 -0.2819 -0.0916
16819W        W34343   4.800  13.202   2.932 -0.1688 -0.0212 -0.1354
16820W        W34344   0.887  10.881   2.498 -0.3807 -0.1893  0.3015
16821W        W34345  10.301  14.072  16.926 -0.1452  0.1138 -0.0517
16822W        W34346   9.768   0.062  16.121  0.1304 -0.5968 -0.1290
16823W        W34347   9.454   2.702   3.460 -0.0298 -0.1365 -0.0802
16824W        W34348   9.141   9.317  13.629 -0.1076 -0.2969 -0.2002
16825W        W34349   4.779   6.118   4.633 -0.0125  0.4298  0.2197
16826W        W34350   0.908  14.818   0.890 -0.0807  0.1201 -0.0234
16827W        W34351  10.877   9.912  15.083 -0.0295 -0.1537  0.1011
16828W        W34352   8.248  11.483  15.053 -0.1072  0.0027  0.0704
16829W        W34353  14.544  12.384   2.618 -0.0517 -0.0292  0.1607
16830W        W34354  14.928   6.295   2.766 -0.1512 -0.0536 -0.0316
16831W        W34355   0.481   1.535   2.819  0.1633 -0.1426  0.0833
16832W        W34356   7.001  14.971  12.554  0.2040  0.0929 -0.0351
16833W        W34357   8.115  11.818  16.649 -0.0627  0.1583 -0.0255
16834W        W34358   1.586   1.885   1.864  0.1273  0.0309 -0.1362
16835W        W34359   5.020  11.773  15.478  0.0661 -0.3838 -0.0005
16836W        W34360   0.896   2.583  12.227  0.2708  0.2123  0.1403
16837W        W34361  11.207   5.987  17.376 -0.0589  0.2210 -0.0966
16838W        W34362   9.887   9.464  12.938  0.2218  0.1254 -0.1691
16839W        W34363   2.826   0.454   2.103  0.2431  0.0208 -0.3430
16840W        W34364   7.139   1.667  16.078 -0.0853  0.1462 -0.2236
16841W        W34365   3.024   7.803   2.077 -0.3360  0.2852  0.1133
16842W        W34366   5.811  15.567   0.638 -0.1098  0.1093 -0.0127
16843W        W34367  12.409  13.721  14.815  0.2478 -0.0164  0.0247
16844W        W34368   5.660   0.861  16.357 -0.0050 -0.1753 -0.2315
16845W        W34369   7.586   6.092  12.441 -0.1415 -0.0644  0.0206
16846W        W34370   9.275   7.513   3.081  0.3721  0.0919  0.0263
16847W        W34371   8.009  13.004   4.739 -0.0873  0.3298  0.1625
16848W        W34372  13.532   4.003  16.304  0.1563 -0.0081 -0.0047
16849W        W34373  10.340  17.063  16.229  0.2364 -0.2149  0.0413
16850W        W34374  15.935   3.757  16.862 -0.3122  0.0158 -0.1577
16851W        W34375   5.764   2.897  12.144 -0.0314 -0.3350  0.1491
16852W        W34376  10.684   8.296  14.406 -0.3945 -0.0003 -0.0150
16853W        W34377   6.403  15.798   3.371 -0.0188 -0.0557  0.0155
16854W        W34378   2.112  15.972  16.689  0.0893 -0.0591  0.1059
16855W        W34379  10.944  14.732   0.242 -0.0354 -0.0155  0.0591
16856W        W34380   6.647   3.117   2.569  0.3221 -0.1743  0.0047
16857W        W34381  15.191   3.158  15.217 -0.1438  0.0253  0.2525
16858W        W34382   6.723  10.271  15.663 -0.1214 -0.1573 -0.1081
16859W        W34383   0.022  14.667   1.900 -0.3518  0.3224  0.0416
16860W        W34384  16.880   2.968   0.551 -0.1109  0.0102  0.1152
16861W        W34385   7.868  15.705  13.776  0.0666 -0.1830  0.1186
16862W        W34386   6.503   9.511  14.113 -0.3451 -0.1836  0.0288
16863W        W34387  17.004   6.174   1.821  0.1687  0.0105  0.2035
16864W        W34388  13.609   8.460   2.883 -0.3343 -0.1105  0.1024
16865W        W34389  16.303   8.676   3.202 -0.0452 -0.1204  0.0671
16866W        W34390  16.895  13.940  13.932 -0.2294 -0.1012 -0.2481
16867W        W34391  14.344   4.495  14.216  0.1621  0.2652 -0.1228
16868W        W34392   8.511   1.913   2.419  0.0146  0.0956 -0.0716
16869W        W34393  13.984  10.689   1.988  0.2870  0.1634  0.2313
16870W        W34394   9.916   3.845   4.190 -0.0620 -0.0774 -0.0744
16871W        W34395  13.151   9.487   1.883 -0.0637  0.0971 -0.0747
16872W        W34396  13.425   8.166  16.757  0.0787 -0.0206  0.2958
16873W        W34397  13.735   6.632   1.959  0.0744 -0.2994 -0.0513
16874W        W34398   9.553  13.251   0.953  0.2668 -0.0132  0.1393
16875W        W34399   3.265  15.344   2.017  0.1297 -0.0437 -0.1960
16876W        W34400   4.356  11.065   5.763 -0.2971  0.0517 -0.0235
16877W        W34401  15.402   8.179  16.101  0.1857  0.0071  0.1250
16878W        W34402   2.336   5.898   5.323  0.0163  0.1648  0.1072
16879W        W34403   6.326  13.948   5.900  0.1050 -0.0842 -0.1338
16880W        W34404  16.138   6.951  17.362  0.0137 -0.0632 -0.0712
16881W        W34405  11.960  14.238   0.786  0.1497  0.1518  0.0724
16882W        W34406  10.786   4.731   0.447  0.0834  0.1817  0.0851
16883W        W34407   9.597   6.054   3.626  0.0340  0.1481  0.0972
16884W        W34408   3.875   8.069  13.156  0.0920 -0.0996  0.1283
16885W        W34409  13.918   2.490   1.335  0.0690 -0.2343  0.3801
16886W        W34410   4.724   2.313   1.934 -0.3553  0.0116 -0.1084
16887W        W34411  16.580  15.052   4.792 -0.2665 -0.1280  0.3145
16888W        W34412   1.971   6.861  11.718  0.1332 -0.2076  0.1551
16889W        W34413  14.168   8.111  17.372 -0.1295  0.0251  0.0820
16890W        W34414  17.050  10.709   4.572 -0.1993  0.2082 -0.3319
16891W        W34415  15.848  15.367  12.574 -0.2080  0.2516 -0.0451
16892W        W34416   9.782  10.054   0.439  0.1236 -0.2283 -0.1182
16893W        W34417   1.557   2.517  16.290 -0.2422 -0.1657 -0.1004
16894W        W34418   4.332   4.774   0.833  0.0315  0.0636  0.0040
16895W        W34419  15.509   7.626  12.334  0.1685 -0.1179 -0.2642
16896W        W34420  12.194  13.639   0.597 -0.0058 -0.1039  0.0001
16897W        W34421   0.219   7.278  16.225 -0.3478 -0.2097 -0.0517
16898W        W34422   0.759   8.321   1.700  0.0946 -0.2521  0.2654
16899W        W34423  14.634  15.811  16.712  0.0645 -0.1400 -0.1465
16900W        W34424  16.628   8.870   0.726 -0.0704  0.0195 -0.1420
16901W        W34425  15.281  13.841   5.301  0.0683 -0.0311  0.2511
16902W        W34426  13.939   3.234  16.772  0.0500 -0.3151  0.2112
16903W        W34427  17.066   0.717  14.107  0.1980  0.1624  0.0592
16904W        W34428  15.607   6.522   1.861  0.1742  0.1791  0.0419
16905W        W34429   1.657   0.836  13.598 -0.2834 -0.2084 -0.4105
16906W        W34430  14.371  13.638  14.598  0.1893 -0.2400  0.4002
16907W        W34431   0.252   1.333   0.694 -0.0747 -0.1886  0.0120
16908W        W34432   1.996   9.390   2.886  0.0027  0.0500  0.0328
16909W        W34433  11.923  12.291  15.371 -0.2061 -0.0968 -0.1466
16910W        W34434  11.690  11.901   2.602 -0.3461 -0.1334 -0.5095
16911W        W34435  10.670   5.480  17.007 -0.0357  0.2312 -0.1611
16912W        W34436   9.143  15.853  16.806  0.1223  0.1123  0.1737
16913W        W34437   9.909   3.667   4.634  0.1093 -0.0720  0.0902
16914W        W34438  10.052   1.656   4.510  0.1403 -0.0614  0.0887
16915W        W34439  10.456   5.731   3.697 -0.0518  0.2609  0.0077
16916W        W34440  13.207  15.349  13.070  0.2074 -0.3764  0.0161
16917W        W34441   3.643   7.574  15.947  0.1046 -0.0833 -0.2696
16918W        W34442   4.546   4.009  14.760  0.0058  0.1207  0.3465
16919W        W34443  14.509   9.482   0.201 -0.1125  0.4348  0.2285
16920W        W34444   2.090   5.841  12.393 -0.0338 -0.2123 -0.1260
16921W        W34445   8.939  14.727   2.944 -0.2616 -0.3111 -0.1322
16922W        W34446   9.571   7.257  17.551  0.3032 -0.1297 -0.2936
16923W        W34447   7.522   7.964  11.577  0.0337  0.1753  0.0543
16924W        W34448   7.943   4.580   5.901  0.0281  0.2598 -0.0688
16925W        W34449  10.046   1.700  14.184 -0.4667 -0.1218 -0.0996
16926W        W34450   1.831   6.166  13.946 -0.2798  0.1258  0.3061
16927W        W34451   4.856  14.845  16.319 -0.2322 -0.0019  0.2302
16928W        W34452   9.958   5.049  15.555 -0.2281 -0.1307 -0.1563
16929W        W34453   8.216   9.272   0.770 -0.0209 -0.3166 -0.0682
16930W        W34454   9.811   0.558   5.887  0.1587 -0.0896 -0.1031
16931W        W34455   6.007   1.443   2.129  0.2314 -0.1385 -0.0204
16932W        W34456   6.273  13.976  17.376  0.1160  0.1769 -0.0078
16933W        W34457   5.581   7.442   2.576 -0.2751 -0.2210  0.3224
16934W        W34458  12.467   3.690   1.486 -0.2515  0.0841 -0.0584
16935W        W34459   0.948  16.344  13.133 -0.1694 -0.1537 -0.0848
16936W        W34460   5.985   9.187   0.607  0.2166 -0.2733  0.1716
16937W        W34461   4.745  16.697  13.265 -0.3130  0.0541  0.0315
16938W        W34462  14.207   1.165   3.676  0.0814 -0.0934  0.4045
16939W        W34463  11.282   7.477   1.583 -0.0080  0.1635  0.0812
16940W        W34464   2.780   5.991  14.499  0.2268  0.2654  0.1829
16941W        W34465  10.620   8.806  16.101  0.1199 -0.1871 -0.2407
16942W        W34466  10.569   4.525   2.603  0.1740 -0.0613  0.0463
16943W        W34467  10.661   1.357  17.609  0.3292 -0.1219  0.0596
16944W        W34468   6.134   0.138  13.963 -0.1485 -0.1748  0.0984
16945W        W34469  10.912  10.485   0.885  0.3941  0.1131  0.2205
16946W        W34470  13.629  14.703  16.542 -0.4804 -0.2456  0.1946
16947W        W34471  12.005  14.162  11.987  0.3033 -0.2529 -0.1009
16948W        W34472   8.186  17.148   2.260  0.2942  0.1083  0.2660
16949W        W34473  11.539  15.315   1.996  0.1498  0.1168  0.0066
16950W        W34474   7.604   9.684  14.871 -0.1195 -0.0455  0.0908
16951W        W34475   9.309   1.555  16.641 -0.2352  0.1253 -0.0810
16952W        W34476  11.930  12.624  16.751 -0.1138 -0.0863  0.1410
16953W        W34477  10.738   0.577   2.496  0.0746 -0.2630 -0.2672
16954W        W34478   7.005   6.275   1.335  0.0775 -0.0560 -0.1121
16955W        W34479   0.899   7.698  13.662 -0.1528 -0.2470  0.1993
16956W        W34480  16.125   8.836  16.950 -0.0440 -0.2693 -0.1731
16957W        W34481   4.357  14.745  17.388 -0.1869 -0.1695 -0.0163
16958W        W34482  13.021  11.780   4.532  0.3708  0.0633  0.1693
16959W        W34483  14.082   4.638   1.019 -0.0282 -0.2427 -0.0117
16960W        W34484   7.398   7.370  12.514 -0.1143  0.0484 -0.0272
16961W        W34485   4.881  15.192  15.236 -0.1850  0.0187  0.3528
16962W        W34486  11.314   3.921  13.302  0.2836  0.2202  0.1562
16963W        W34487   4.618   8.777  12.549  0.1650  0.0539 -0.1996
16964W        W34488   8.648   1.155   4.206 -0.1372 -0.0619 -0.0647
16965W        W34489   8.992   3.436  17.456  0.2489 -0.0674  0.2817
16966W        W34490   1.764   8.479   3.276  0.1255  0.1597  0.0036
16967W        W34491  10.385  12.554   2.412 -0.2768 -0.3024  0.2980
16968W        W34492  15.202   2.327   2.250 -0.1543  0.1597  0.1996
16969W        W34493  15.282  10.783  14.257  0.0489 -0.0761  0.4607
16970W        W34494   4.841  10.491  12.017  0.0510  0.2902 -0.1256
16971W        W34495  11.960   2.348  13.114  0.2170 -0.0209  0.0234
16972W        W34496   2.366   9.777  13.019  0.2485 -0.0626  0.3596
16973W        W34497   5.944  13.192   5.489  0.1298  0.0173  0.0765
16974W        W34498   9.612   4.291   3.171 -0.1804 -0.1203 -0.0431
16975W        W34499  16.309   5.466  13.000  0.3296 -0.1151 -0.0156
16976W        W34500   8.532   2.606   0.028 -0.0489 -0.3750 -0.0550
16977W        W34501   7.324  12.912   1.042  0.1333  0.2223  0.0915
16978W        W34502   5.611  13.300  14.603 -0.2434  0.0720 -0.1921
16979W        W34503   2.047   7.876  15.005  0.3276  0.0099  0.1285
16980W        W34504   2.774   9.664  11.690  0.2721  0.1627 -0.0913
16981W        W34505  15.362  15.582   0.163  0.2549  0.1026  0.2715
16982W        W34506  15.338   8.514   2.295  0.3370  0.2025 -0.3521
16983W        W34507   6.373  10.714   2.610  0.1972 -0.0844  0.3293
16984W        W34508   3.061  13.436  16.895  0.0160 -0.0067  0.1968
16985W        W34509  16.768   7.673  12.956 -0.1111 -0.2137 -0.0252
16986W        W34510   4.667   8.610   5.759  0.0311 -0.5103  0.0450
16987W        W34511   5.180  14.354  13.036 -0.0089  0.2445  0.1963
16988W        W34512   7.443   2.978   4.676 -0.0808 -0.1767 -0.1436
16989W        W34513   0.631  11.580  17.652  0.0724 -0.0638 -0.5092
16990W        W34514   2.358   8.141  12.216 -0.1544  0.3691 -0.2345
16991W        W34515   0.810   7.652  17.599  0.0902  0.1294  0.0832
16992W        W34516  17.026  15.303   1.792 -0.0205  0.1988 -0.1454
16993W        W34517   3.395   3.366  13.274 -0.1368  0.0523 -0.1094
16994W        W34518   9.996   4.383  16.489 -0.0970  0.0539 -0.2999
16995W        W34519   9.990   2.934  15.239 -0.0213 -0.0422  0.2687
16996W        W34520  15.107   4.296  15.923 -0.0360  0.1411  0.0846
16997W        W34521   3.274  16.488   4.342  0.2820 -0.1556 -0.2421
16998W        W34522  16.039   9.811  15.682 -0.1654 -0.1427  0.1190
16999W        W34523   7.410   4.677  12.680 -0.0614 -0.4353  0.2571
17000W        W34524   8.287   7.166   0.794 -0.2102  0.2726  0.1074
17001W        W34525  10.339   7.723  12.427  0.3636 -0.0831  0.0378
17002W        W34526  13.369   5.410  15.068 -0.1707 -0.0584  0.1615
17003W        W34527   2.829  14.753  16.909  0.1620  0.2045  0.1720
17004W        W34528  15.502  10.415  15.278  0.1830 -0.0182  0.4165
17005W        W34529  10.007  17.206   0.011 -0.2302 -0.1196  0.0786
17006W        W34530   4.965   1.282   1.313  0.2083  0.1020 -0.0810
17007W        W34531   6.651  10.865  14.142 -0.1299  0.1110  0.2032
17008W        W34532   4.760  10.908  12.786  0.1796  0.0374  0.1785
17009W        W34533   6.225   9.542  12.386 -0.3468 -0.0523 -0.1650
17010W        W34534   3.841   6.247   3.527 -0.0945  0.3470 -0.4063
17011W        W34535   0.821  16.569  13.629  0.1846  0.1775 -0.0965
17012W        W34536   6.696  16.151   4.870  0.0332 -0.1463 -0.3460
17013W        W34537   9.461  14.417   0.505  0.2129 -0.0684 -0.1056
17014W        W34538   6.537   6.772   4.985  0.0256 -0.2794 -0.1990
17015W        W34539   1.128   2.538   1.416  0.1062 -0.0846 -0.1110
17016W        W34540   3.314   9.707  13.261  0.2824  0.1275  0.0666
17017W        W34541   5.049   3.658  13.529  0.2994 -0.0227  0.0667
17018W        W34542   2.038   2.318   0.563 -0.1211  0.0234 -0.2888
17019W        W34543   5.990  11.542   1.556 -0.0878 -0.1942 -0.0088
17020W        W34544  11.412   5.069  16.229 -0.1444 -0.1059 -0.0325
17021W        W34545  14.160   7.556   0.827  0.0464  0.2383 -0.1482
17022W        W34546   6.421   5.046  13.738 -0.0971  0.3241 -0.0323
17023W        W34547   0.274   6.482  16.421  0.2445 -0.1933  0.0215
17024W        W34548   4.659  14.566  14.170  0.1350  0.6660  0.3363
17025W        W34549  10.705  14.809  13.922 -0.1680  0.2881  0.3223
17026W        W34550  14.896   5.788   1.821  0.1193 -0.1416  0.0234
17027W        W34551  13.179   8.896  17.154  0.1078 -0.1626 -0.1168
17028W        W34552  16.367  16.203   2.816  0.0039  0.0753 -0.0936
17029W        W34553   4.530  13.918  12.504 -0.0157  0.3375  0.0884
17030W        W34554   7.040  12.275   2.393 -0.2471 -0.1241  0.5236
17031W        W34555  13.871   6.303  17.130 -0.0284 -0.1523 -0.0123
17032W        W34556  10.353  15.968  16.251 -0.0853 -0.4746 -0.0425
17033W        W34557  14.465   1.744  17.351 -0.1381  0.0862 -0.1395
17034W        W34558   9.047   2.166  15.949 -0.3544 -0.1724  0.1679
17035W        W34559   8.869   0.263   3.730  0.1372 -0.0727  0.2816
17036W        W34560   2.070   8.400   2.367  0.0959  0.0843 -0.0806
17037W        W34561   8.978   7.242   4.892 -0.0231 -0.1173  0.0115
17038W        W34562   1.068   9.592   2.047  0.0933 -0.1227  0.0286
17039W        W34563   5.341   2.176   5.492 -0.0730  0.1381  0.0771
17040W        W34564   6.923   6.535  17.083  0.0349 -0.1508 -0.2283
17041W        W34565   3.493   0.819   6.511  0.0089 -0.1526 -0.2499
17042W        W34566   1.620  10.976   4.935 -0.1060  0.1643  0.1063
17043W        W34567   0.684   8.783   4.809  0.0009  0.1755  0.0320
17044W        W34568  16.273   0.877   0.210  0.0481 -0.2099  0.0260
17045W        W34569   1.732   9.048  17.039 -0.1615 -0.0428  0.1960
17046W        W34570   8.635  15.468   4.254 -0.2263 -0.2100 -0.1075
17047W        W34571   1.085   1.499  16.948  0.0303  0.0817 -0.2341
17048W        W34572   3.808   6.309  15.965  0.0243 -0.0093  0.1137
17049W        W34573  16.063   4.520  17.452  0.0555 -0.0486 -0.2449
17050W        W34574  15.697  17.240  12.798  0.0845 -0.1081  0.2278
17051W        W34575  10.703   2.417  12.961 -0.1519  0.0719  0.0212
17052W        W34576  15.250   2.997  12.468  0.2237 -0.3824  0.0997
17053W        W34577  11.955  10.514  14.991  0.1583 -0.0623  0.1123
17054W        W34578   5.957  15.235  15.992  0.2230 -0.0694 -0.0413
17055W        W34579  11.662   8.203   0.087  0.1302  0.0092 -0.3557
17056W        W34580   4.495   3.787   2.593 -0.0988  0.2715  0.0482
17057W        W34581   6.248   2.823   1.607  0.0109  0.0172 -0.3393
17058W        W34582  10.876  13.247   0.687 -0.2507  0.2216  0.1490
17059W        W34583  16.763   1.939   0.728  0.2722  0.2409 -0.0238
17060W        W34584   3.399  14.745   0.051 -0.0472 -0.2528  0.0792
17061W        W34585  11.028  12.028  12.888 -0.0627  0.2681 -0.0333
17062W        W34586   0.621  14.130  13.500  0.1939 -0.4138 -0.2435
17063W        W34587  15.049   8.505  13.950  0.1164 -0.1135 -0.0107
17064W        W34588   0.007  13.620  14.006 -0.3802  0.0626 -0.0067
17065W        W34589  10.004   9.400  15.486  0.1209 -0.3762  0.0339
17066W        W34590   5.945  13.834  13.237 -0.2056 -0.3336 -0.3491
17067W        W34591   7.547   8.290   5.706  0.1167  0.2615  0.2739
17068W        W34592  11.600   0.742  14.771 -0.4132  0.0503 -0.1621
17069W        W34593  15.485  16.148  14.786  0.0549 -0.0865 -0.2405
17070W        W34594   3.541   7.690   5.651 -0.2571  0.0560  0.1231
17071W        W34595   4.029  10.654   4.772  0.1236  0.2618  0.1944
17072W        W34596  11.828   0.026  13.953 -0.0172 -0.2007  0.2815
17073W        W34597   0.973  14.079   0.345  0.1190 -0.1858 -0.1512
17074W        W34598  16.594   5.159  15.075 -0.2103 -0.2103  0.1100
17075W        W34599   5.151  10.234  16.559 -0.0039  0.4393  0.0891
17076W        W34600   9.622   8.537  13.235 -0.0996 -0.4673 -0.2002
17077W        W34601   5.865   8.679  14.071 -0.2338  0.0006 -0.1260
17078W        W34602  15.614   5.660   1.414  0.1458 -0.1744  0.3155
17079W        W34603   6.656   8.711   0.277  0.0113  0.1100  0.1571
17080W        W34604   5.629   5.311  15.637 -0.1687 -0.1600  0.2791
17081W        W34605   7.630   1.104   3.050  0.1415  0.0866 -0.4339
17082W        W34606  14.678  14.710  12.648  0.0333 -0.1496  0.1145
17083W        W34607  16.423   8.544  13.907 -0.1753  0.3674 -0.0622
17084W        W34608   8.529   1.455  13.238  0.4871  0.0613 -0.0210
17085W        W34609   1.252  16.958  17.203  0.2919  0.3044  0.3093
17086W        W34610   7.760   3.749   1.845  0.3409  0.1916 -0.0528
17087W        W34611  14.748   7.763  14.222  0.1540  0.0618  0.0065
17088W        W34612  10.685   2.170   4.615 -0.0779  0.1100 -0.0574
17089W        W34613   4.533   9.185  13.760  0.0202  0.2323  0.0226
17090W        W34614  11.693  12.498  15.758 -0.0349 -0.1296  0.0861
17091W        W34615   7.899   5.437  15.554  0.0843  0.1067  0.1085
17092W        W34616   1.003   1.736   0.288  0.2697  0.0158  0.0709
17093W        W34617  14.775  15.735   1.598 -0.0690 -0.3233 -0.0368
17094W        W34618   9.142  15.441   4.211  0.2453  0.0201  0.3559
17095W        W34619   0.377  16.302  13.133 -0.0730 -0.2390  0.2179
17096W        W34620   2.439   4.755   4.298  0.0156  0.0686  0.1687
17097W        W34621   3.844  10.905  14.436 -0.0912  0.0064 -0.0458
17098W        W34622   8.452   4.126   0.647 -0.2721  0.1522  0.0030
17099W        W34623  13.336  11.268  11.701 -0.2659 -0.1641  0.0514
17100W        W34624  12.049   6.391   3.693 -0.3664 -0.1240 -0.2220
17101W        W34625   3.663   9.867   5.636 -0.1717  0.1108 -0.3534
17102W        W34626  12.074   3.495  13.840  0.0404  0.0651 -0.0426
17103W        W34627  13.758   6.511  17.648 -0.0600 -0.1195 -0.4250
17104W        W34628  12.456   5.727   1.515  0.0755 -0.0206 -0.0898
17105W        W34629  13.279   4.401   3.197  0.1074 -0.0723 -0.0252
17106W        W34630   7.454  11.545   5.044  0.0076 -0.0376 -0.0466
17107W        W34631   8.502   3.744   3.710 -0.0322 -0.2800 -0.3295
17108W        W34632  11.577   8.921   5.201  0.2665  0.1012  0.2976
17109W        W34633  15.038   2.834   5.291 -0.3403 -0.0487 -0.3185
17110W        W34634  17.042  11.725   1.261 -0.2212  0.0729 -0.2598
17111W        W34635  10.162   1.426  14.737  0.2359  0.3209 -0.0758
17112W        W34636  15.414  16.940   3.632  0.1591 -0.0592 -0.1443
17113W        W34637   2.130  11.758   0.391 -0.0438 -0.1913  0.1296
17114W        W34638   3.262  12.147   0.397  0.2001  0.0390  0.2947
17115W        W34639   4.099   5.707   0.920 -0.2888  0.2048  0.0605
17116W        W34640   1.437   1.673  17.651  0.0187  0.0916  0.0931
17117W        W34641   9.476  14.079  17.343  0.1402 -0.2429  0.2216
17118W        W34642   7.104  16.735   5.380  0.0752  0.1046  0.1520
17119W        W34643   3.443   2.320  12.071  0.2052 -0.0330 -0.1522
17120W        W34644  14.045  10.642  16.224  0.1344 -0.2937 -0.1242
17121W        W34645   0.387   6.140   3.085  0.1297 -0.0662 -0.2189
17122W        W34646   5.773   2.757   2.872  0.0215  0.0625 -0.0501
17123W        W34647   7.317   2.020  14.823 -0.2458  0.3459  0.1522
17124W        W34648  10.636   2.595   0.001 -0.1665 -0.0429  0.2052
17125W        W34649   1.869  16.517  15.409  0.0213  0.4665 -0.0126
17126W        W34650   8.593  16.966   3.368  0.0597  0.0159  0.1188
17127W        W34651  11.635  11.140   5.352  0.0845 -0.1851 -0.0105
17128W        W34652   2.645  13.212   4.750  0.0408  0.0690  0.0869
17129W        W34653  16.592   8.994   4.002  0.2390  0.0276  0.1223
17130W        W34654   7.916   5.236  16.732 -0.1554 -0.0765 -0.2683
17131W        W34655  12.051   4.734   3.880 -0.3430 -0.0080 -0.1211
17132W        W34656   1.822  11.103   2.267 -0.1338  0.1011  0.0152
17133W        W34657   5.112   6.602   0.492  0.3991  0.1145 -0.0194
17134W        W34658  14.287   3.708   1.435  0.0918  0.3509  0.1082
17135W        W34659   4.838   8.648   0.971  0.1596 -0.1299  0.0588
17136W        W34660   8.439  13.774   3.585  0.4902 -0.2883 -0.0824
17137W        W34661   6.148   1.818   4.966  0.0835  0.2197 -0.0595
17138W        W34662   6.822   7.035  14.974  0.1129 -0.0013 -0.1079
17139W        W34663   5.138   6.210  14.020 -0.1515 -0.1021  0.1142
17140W        W34664   4.638  14.120  16.688  0.3914  0.1438  0.0589
17141W        W34665   7.645   5.703   2.303 -0.1146  0.1205  0.0769
17142W        W34666  10.671  13.334  16.566 -0.0343  0.1903 -0.0304
17143W        W34667   1.145  15.652  13.573  0.2011 -0.0692 -0.1114
17144W        W34668  15.929  10.623   4.951  0.2266  0.4148 -0.0285
17145W        W34669  12.080   0.165  16.753  0.0664  0.0355 -0.1029
17146W        W34670   1.731  13.807   3.638 -0.0559 -0.1891 -0.0046
17147W        W34671   7.004   5.965  15.970 -0.3782  0.0406 -0.0454
17148W        W34672   1.478  12.487   1.203  0.2195 -0.0893 -0.4643
17149W        W34673  16.805  12.533  13.506  0.0459  0.0397  0.0088
17150W        W34674   3.915  11.398  17.489 -0.0869  0.1959 -0.1929
17151W        W34675  14.293  11.305   5.193 -0.2109  0.1311 -0.1201
17152W        W34676   6.443   4.494   4.646 -0.1735  0.1012  0.3527
17153W        W34677   6.346  14.900  12.311  0.1728 -0.2145  0.1489
17154W        W34678  12.756  14.039   2.207 -0.0608  0.0497  0.0360
17155W        W34679   6.708   1.720   3.763  0.0626  0.0859  0.2385
17156W        W34680  13.114   4.173  15.263 -0.1581  0.2074  0.0377
17157W        W34681  10.518  16.988   4.008  0.0611  0.0233  0.0120
17158W        W34682  12.621   6.210  13.728  0.0910  0.7903 -0.1249
17159W        W34683   9.558   6.746  12.565  0.0755  0.1428 -0.2222
17160W        W34684  12.679   6.518  16.698 -0.4756  0.4112 -0.1259
17161W        W34685   1.153  10.597   2.196 -0.0525  0.0621 -0.0408
17162W        W34686  16.884  15.542   2.713 -0.0699  0.3915  0.0345
17163W        W34687   3.161   5.573  14.310  0.5537  0.1334  0.0799
17164W        W34688   1.798  12.284   1.652 -0.0665  0.0650 -0.0286
17165W        W34689  10.544  11.421  17.185  0.2639 -0.2732 -0.2070
17166W        W34690  12.882   3.789   3.781 -0.0891  0.1707  0.0377
17167W        W34691   4.218   9.114  16.533 -0.2683  0.1937 -0.2846
17168W        W34692  16.938  11.199  12.165 -0.1527 -0.0849 -0.0889
17169W        W34693   1.561   6.651  16.196 -0.0493  0.2553  0.1664
17170W        W34694  10.256  11.514  15.670 -0.0371 -0.1613 -0.3090
17171W        W34695   1.490  10.516   5.009  0.0386  0.1261 -0.2576
17172W        W34696  11.819   7.016  11.994 -0.0207  0.2584  0.0643
17173W        W34697  16.857   9.649   1.560  0.1299  0.1500 -0.1382
17174W        W34698  12.119   1.474   5.677 -0.0749 -0.0003  0.2200
17175W        W34699   4.101  15.845   5.346  0.3179  0.1621 -0.2953
17176W        W34700  10.474  14.843   4.383 -0.0439 -0.1636 -0.0523
17177W        W34701  10.455  12.586   5.608 -0.0467 -0.0142  0.2878
17178W        W34702  12.156   5.891   3.769 -0.0641 -0.1179  0.1739
17179W        W34703  16.668  12.062  16.051 -0.3568  0.3345  0.1377
17180W        W34704   3.095   4.451   3.628 -0.2875 -0.1672  0.0308
17181W        W34705   6.786  14.331  13.412  0.1813 -0.0657  0.3721
17182W        W34706  14.355   5.122   0.556  0.1087 -0.0165 -0.3019
17183W        W34707  12.554  15.526  15.660  0.2151  0.1104  0.0607
17184W        W34708   6.601  12.357  13.788  0.2594 -0.1981  0.1309
17185W        W34709  13.194  15.149   0.388  0.0680 -0.0783  0.0206
17186W        W34710  11.552  14.593   5.088  0.2292 -0.1393  0.0037
17187W        W34711  14.532  10.942   2.751 -0.2158  0.2495  0.0822
17188W        W34712   6.108   1.892   4.429 -0.1721  0.1663  0.1536
17189W        W34713   4.380   9.929  16.807 -0.2164  0.0886 -0.0774
17190W        W34714   7.554   2.898   1.466  0.0356 -0.3404 -0.0868
17191W        W34715  12.301   4.224  16.797  0.0225  0.0389  0.1213
17192W        W34716  13.676  11.123  17.079 -0.2058 -0.2589  0.3397
17193W        W34717   3.084  13.847   3.640  0.2332  0.0543 -0.1736
17194W        W34718  15.673   8.714   3.885  0.3099  0.1389  0.1720
17195W        W34719  16.333   8.269  13.458 -0.0023  0.1952  0.2281
17196W        W34720   8.054   1.454  15.449  0.1976  0.1921  0.0025
17197W        W34721  11.533  11.532  15.540 -0.2918  0.1258 -0.0304
17198W        W34722   2.067   1.598  17.124 -0.1280 -0.0538 -0.1379
17199W        W34723  15.735  10.694   1.888 -0.0676  0.0945  0.4572
17200W        W34724  15.821  13.553  15.540 -0.1627  0.1409 -0.0116
17201W        W34725   1.990  11.275  15.246 -0.1245 -0.0560 -0.0236
17202W        W34726   0.894  13.919   0.822 -0.3412  0.0057 -0.1319
17203W        W34727  13.479   6.168  11.914 -0.3016  0.1054  0.2547
17204W        W34728  17.170   5.480  13.834  0.1575  0.1893  0.1878
17205W        W34729   3.316   3.992  17.560  0.3607  0.0076  0.2700
17206W        W34730  12.668  15.630  13.055  0.1195 -0.0734 -0.1138
17207W        W34731  16.225   6.642   3.331  0.4259 -0.1127 -0.2180
17208W        W34732   0.059  15.573   3.713 -0.0209 -0.1472  0.0417
17209W        W34733   7.900  10.051   1.247  0.0977  0.0750  0.1021
17210W        W34734   7.444  13.592   5.505 -0.0226 -0.0931 -0.0895
17211W        W34735   3.583  17.066  17.105  0.0059 -0.0776  0.0515
17212W        W34736   4.949   6.974   5.219 -0.0148  0.0043 -0.1878
17213W        W34737   4.976   2.029  14.872 -0.3303 -0.0111  0.0083
17214W        W34738   2.592  12.927   0.940 -0.3648 -0.0620 -0.2519
17215W        W34739   0.077   7.069   4.640 -0.0260 -0.3374 -0.2852
17216W        W34740  13.099   6.406  16.136  0.1175  0.0741 -0.1653
17217W        W34741  11.597   0.000   5.266  0.3779 -0.1225  0.1162
17218W        W34742   8.334  13.859  13.503  0.1496  0.1620  0.1108
17219W        W34743   4.676  16.330  14.132 -0.1777 -0.0589 -0.0587
17220W        W34744  13.453  12.572   0.134 -0.2812  0.0314 -0.3102
17221W        W34745   8.460  13.068   0.262 -0.1000 -0.1801  0.2091
17222W        W34746  13.879   5.168  13.483 -0.1505  0.2721  0.4210
17223W        W34747   7.032   0.250  13.726 -0.1898 -0.2234 -0.0832
17224W        W34748   6.203  15.705  14.915  0.0173 -0.3151  0.1463
17225W        W34749   3.708  14.226  13.330  0.5200  0.0575 -0.0307
17226W        W34750   8.196  11.688   2.907  0.0846 -0.2161 -0.0110
17227W        W34751  12.082  16.814   1.824 -0.1864  0.0944  0.0542
17228W        W34752  15.409   2.504  14.549 -0.3556 -0.1362  0.3266
17229W        W34753   5.964  14.690  13.271 -0.2441 -0.2049  0.1653
17230W        W34754   3.977   8.018   5.231  0.1642  0.0590 -0.1667
17231W        W34755  11.564   9.553  17.073  0.1153 -0.3517  0.0656
17232W        W34756  12.151   2.434  17.430  0.0324 -0.1428 -0.0859
17233W        W34757   8.706   1.156   0.212 -0.0778 -0.1766 -0.1564
17234W        W34758  13.889  10.870  11.618 -0.0300 -0.0522 -0.1170
17235W        W34759   3.327  16.647   1.300  0.2506 -0.0658 -0.1578
17236W        W34760   2.936   4.899   4.219  0.2015  0.1488 -0.1091
17237W        W34761  13.481   0.071  16.192  0.2953 -0.0723  0.0929
17238W        W34762  15.789   1.706   1.766 -0.1392  0.2925 -0.0113
17239W        W34763   6.130   5.401   0.809  0.0625 -0.0717 -0.2452
17240W        W34764   0.926   1.892   5.574 -0.3078 -0.0749 -0.0846
17241W        W34765   1.651   9.543  17.541  0.1629 -0.1052  0.0526
17242W        W34766   1.094   5.068   1.881  0.1253  0.2014 -0.0065
17243W        W34767   0.424  17.049  16.961 -0.1770 -0.2624  0.1771
17244W        W34768   8.930   9.174  16.568 -0.0992 -0.0004  0.0583
17245W        W34769   5.054   4.047   3.096 -0.0458  0.0778 -0.0392
17246W        W34770  10.835  11.394   5.433  0.1837 -0.1157 -0.0328
17247W        W34771  12.946   0.172   5.204  0.2141 -0.2080  0.0776
17248W        W34772  12.947   4.774  12.485 -0.0085  0.1882 -0.0071
17249W        W34773   7.319  11.213   5.458  0.0135 -0.2804 -0.2121
17250W        W34774   1.696  16.195  15.052  0.0805 -0.0183  0.2108
17251W        W34775  12.820  14.753   1.064 -0.3127 -0.0299  0.2196
17252W        W34776  16.622  11.059   0.536  0.2416 -0.0579  0.3723
17253W        W34777   4.725   2.162  15.304 -0.1006 -0.1116 -0.0989
17254W        W34778  12.967   4.032   3.116  0.0028 -0.0140  0.0691
17255W        W34779   5.458   3.976   1.430  0.1877 -0.3487  0.2843
17256W        W34780   1.346   8.581  17.282  0.0175 -0.1215 -0.2457
17257W        W34781   2.181   7.597   1.914 -0.1784 -0.1481  0.1768
17258W        W34782   6.980   8.245   2.365 -0.0272  0.0298 -0.1874
17259W        W34783   6.290  13.486   2.997  0.0101 -0.0633  0.0613
17260W        W34784  11.970   1.812  14.476  0.1579 -0.1209 -0.1735
17261W        W34785   2.543   4.630  12.211  0.0536 -0.1340  0.0864
17262W        W34786  11.805   3.751   3.036  0.3587  0.0454  0.4897
17263W        W34787  14.691   2.456   5.075 -0.1893  0.1138 -0.0761
17264W        W34788  13.274  13.094  16.511  0.1091  0.0421  0.0988
17265W        W34789   5.735   7.814   0.485  0.0407 -0.0420 -0.1169
17266W        W34790   1.438  15.556   2.600 -0.0828  0.1213 -0.0141
17267W        W34791  13.248   4.700   5.401 -0.1313 -0.2495  0.3167
17268W        W34792   7.089   3.742   0.461 -0.0216 -0.0870 -0.0573
17269W        W34793   6.544   6.258   5.057  0.0701  0.2352  0.2584
17270W        W34794   1.345   6.906   0.387  0.0855 -0.0948  0.0638
17271W        W34795  12.849   8.915  12.495  0.1734  0.1156  0.1540
17272W        W34796  12.531   9.602   2.599 -0.2467 -0.0849  0.0951
17273W        W34797   1.866   8.911   5.147 -0.0294  0.1962 -0.1737
17274W        W34798   3.445  10.674   1.552  0.3333 -0.3579  0.4002
17275W        W34799  10.952  12.500  14.414 -0.4355  0.3910 -0.0810
17276W        W34800  16.580  11.230   1.896 -0.0041 -0.3385 -0.3202
17277W        W34801  12.441  11.002  13.234 -0.3475  0.4456 -0.1321
17278W        W34802  15.901   0.476   3.927 -0.3168  0.1628  0.1540
17279W        W34803   1.530  15.657  14.911  0.2490  0.0431 -0.1781
17280W        W34804  11.263  16.334  12.723  0.0258  0.1435 -0.1789
17281W        W34805   9.880  11.181   2.449  0.1870 -0.2399 -0.4282
17282W        W34806  15.142   4.050   5.158  0.0828  0.0435 -0.3864
17283W        W34807   0.495   3.582   1.992  0.0955  0.0791 -0.0099
17284W        W34808   1.018   4.372  15.894 -0.1245 -0.1522  0.0762
17285W        W34809   6.308   4.928   2.614  0.0738 -0.1173  0.3034
17286W        W34810   4.888  11.867  15.015 -0.1320 -0.0266  0.1197
17287W        W34811  11.030  10.790  13.175 -0.4680 -0.0230  0.2420
17288W        W34812   0.498   4.030  15.237  0.4666 -0.2875  0.2353
17289W        W34813   1.998   5.058  11.270 -0.0168  0.1453  0.0494
17290W        W34814   7.768  12.410   4.810  0.0964  0.6646  0.2179
17291W        W34815   9.026  12.593  17.433 -0.1107 -0.0846  0.0061
17292W        W34816  15.132  11.482  12.928 -0.1145  0.0626  0.1392
17293W        W34817  15.921   4.457  12.878 -0.1431 -0.0420  0.0517
17294W        W34818   3.125   2.009  13.907 -0.1600 -0.1133  0.1108
17295W        W34819  10.080  13.595  13.719 -0.1118  0.2810  0.1441
17296W        W34820   0.076  13.794   0.194 -0.1816 -0.1387  0.2549
17297W        W34821   5.808  16.204  16.760 -0.5369  0.2524 -0.0071
17298W        W34822   8.366   2.138   5.280  0.0280  0.1003  0.0333
17299W        W34823   5.151   3.179   2.024 -0.0977  0.0735  0.0047
17300W        W34824   4.119  11.970   0.610 -0.1836  0.1571 -0.1735
17301W        W34825  10.614   3.140   2.224  0.0484  0.0750  0.2663
17302W        W34826  16.525   7.491  14.869  0.1241 -0.0984 -0.1089
17303W        W34827   3.464  14.447   0.925  0.0239  0.0125  0.1376
17304W        W34828   4.664   2.799  14.146  0.2190  0.3840 -0.0273
17305W        W34829   4.147  14.271  17.460 -0.3058  0.1910 -0.1334
17306W        W34830   7.485   3.481  17.008  0.0501  0.2839  0.0222
17307W        W34831   4.241   1.005  17.595 -0.0606 -0.0265 -0.2547
17308W        W34832  12.486  16.639   1.239 -0.0666 -0.0863 -0.2647
17309W        W34833   7.791   2.219  17.193  0.1015 -0.1627 -0.0157
17310W        W34834   6.553   3.004   0.940 -0.2943 -0.2768 -0.0286
17311W        W34835   9.979  13.131   3.443  0.2929 -0.1237 -0.1593
17312W        W34836   1.890   9.190  14.493  0.1063 -0.0740  0.1750
17313W        W34837  14.873   9.551   5.204 -0.2442 -0.1927  0.2556
17314W        W34838   3.231   3.139   0.942 -0.0982  0.1846  0.1024
17315W        W34839   3.659   7.294  16.747  0.0204  0.1199 -0.0099
17316W        W34840  15.562  15.862   2.915  0.3774 -0.2166 -0.1780
17317W        W34841  15.377   8.817   4.329  0.0116 -0.0563  0.0193
17318W        W34842   8.225  14.505   1.326 -0.3688 -0.0758  0.0802
17319W        W34843   4.536   5.597  14.204  0.2286  0.2545  0.1313
17320W        W34844   9.021   0.012   2.629  0.2766  0.2602  0.0317
17321W        W34845   9.269   0.715  17.576  0.0985  0.2121  0.2963
17322W        W34846  13.229  16.499   4.447  0.1209  0.1821  0.1031
17323W        W34847   5.144  15.326   5.149 -0.2977 -0.2384  0.0452
17324W        W34848   9.767   6.313  17.037  0.0384 -0.4710  0.1174
17325W        W34849   8.575  14.485   3.988  0.0548 -0.1797 -0.1451
17326W        W34850   7.621  16.761  14.695 -0.1025 -0.2890 -0.0025
17327W        W34851   1.686  12.935  15.707  0.3486  0.0459 -0.1687
17328W        W34852   4.258  16.568  16.846  0.0390  0.2490 -0.1691
17329W        W34853  11.021  14.864  14.667  0.0128  0.0240  0.1350
17330W        W34854   5.302   2.578  14.509 -0.0545 -0.0487 -0.0439
17331W        W34855  17.012  15.196   1.315 -0.1483 -0.1270  0.2134
17332W        W34856   3.039   3.602   5.270 -0.1127  0.1098  0.2241
17333W        W34857   1.037   0.509  16.659 -0.0322 -0.1182  0.2038
17334W        W34858   6.842   8.439   6.328 -0.1492 -0.1587  0.0735
17335W        W34859   6.969  15.850  13.168  0.0132  0.0216  0.0053
17336W        W34860   7.774   1.932  12.613  0.0470 -0.1489 -0.0698
17337W        W34861  15.353   3.431  16.178  0.1233  0.0193  0.3222
17338W        W34862  10.564   4.281  13.940 -0.1578  0.1752 -0.2375
17339W        W34863   0.248  13.011  12.230 -0.0844  0.1679  0.1856
17340W        W34864   6.636  14.398  13.925 -0.0231  0.0258  0.0782
17341W        W34865  15.668  10.698   4.197  0.0342  0.3165 -0.0387
17342W        W34866   1.607  10.717  14.268  0.0670  0.1316  0.2628
17343W        W34867  16.051   6.735   0.654 -0.2803 -0.0427 -0.0299
17344W        W34868  16.715   6.296  13.681 -0.1567  0.0627  0.0127
17345W        W34869  13.759  11.152  12.619 -0.4320  0.1419 -0.2899
17346W        W34870   4.470   9.628   4.688 -0.3559 -0.1198 -0.0189
17347W        W34871   2.746   1.238  14.058 -0.2820 -0.0125 -0.3215
17348W        W34872   3.733   0.266  12.130 -0.1546 -0.1965 -0.0501
17349W        W34873  16.901  15.135   0.842 -0.1170  0.0354  0.1383
17350W        W34874  14.848   0.823   0.458 -0.2398 -0.1329 -0.0381
17351W        W34875   8.012   3.778   3.660  0.1927 -0.0187  0.0455
17352W        W34876   4.990   5.426   0.545  0.1082 -0.0988 -0.1135
17353W        W34877  16.579  14.605   2.419  0.2324 -0.0963  0.0588
17354W        W34878  12.133   1.953   2.695  0.1225 -0.1333 -0.1375
17355W        W34879  10.271  11.123   4.798 -0.3087  0.1410  0.2102
17356W        W34880  12.005  12.945  13.821  0.0500  0.0634 -0.1779
17357W        W34881   5.167  13.983   1.302  0.0212  0.4675  0.2864
17358W        W34882   6.053   2.866   1.058  0.3288  0.1639 -0.2847
17359W        W34883   7.940  11.565   0.054  0.1224 -0.0547  0.0308
17360W        W34884  13.444   4.301   2.705 -0.1454 -0.2602 -0.0488
17361W        W34885  11.847   1.586  15.225 -0.1620  0.1648 -0.0671
17362W        W34886   3.750   1.106  17.412 -0.1796 -0.0692 -0.1420
17363W        W34887   5.915   8.226  16.975 -0.0597  0.0715  0.0356
17364W        W34888  15.429  11.038  16.899  0.2320  0.1214 -0.3213
17365W        W34889   4.461  16.674   2.008  0.1708  0.0106 -0.2191
17366W        W34890   3.226   1.372   2.026  0.1869 -0.0243 -0.0391
17367W        W34891   3.291  15.681   4.075  0.2861  0.1199 -0.2090
17368W        W34892  13.101   5.277  15.960  0.0650 -0.0240 -0.0984
17369W        W34893   4.135   6.570   1.204 -0.2475  0.0363 -0.1031
17370W        W34894  15.763   7.031   4.310 -0.1269 -0.1428  0.3064
17371W        W34895   3.951   1.729  13.642 -0.0507  0.0013  0.2200
17372W        W34896  14.716   9.440   1.162  0.4698  0.2746  0.2388
17373W        W34897  10.807  10.079   5.163  0.3912 -0.0502 -0.0789
17374W        W34898   6.918  14.795   4.507 -0.3456  0.5207  0.2416
17375W        W34899   2.118  15.125   0.030 -0.0878 -0.0794  0.1277
17376W        W34900  11.315   3.093   4.289 -0.0776  0.0109 -0.3460
17377W        W34901   0.601  10.900   4.054  0.1058 -0.1158  0.1662
17378W        W34902  16.651   2.823  12.884 -0.1342 -0.0855  0.0637
17379W        W34903   7.735   9.130  17.297  0.0363 -0.2699 -0.0367
17380W        W34904   7.410   9.045  15.084 -0.4706  0.1524 -0.0649
17381W        W34905   4.377  16.233  13.361  0.3344  0.1424  0.0656
17382W        W34906   2.326   0.349   3.426  0.2088 -0.2208 -0.1110
17383W        W34907   1.836   7.439   2.257  0.0034  0.2007  0.1228
17384W        W34908  10.103   4.429  13.818  0.0918 -0.2192  0.1715
17385W        W34909  16.793  15.734   0.056 -0.1444 -0.0838 -0.0195
17386W        W34910   6.354  10.642  14.642 -0.1158  0.0840  0.3177
17387W        W34911  12.990  14.788   5.189 -0.0226  0.2525 -0.2170
17388W        W34912   2.117  10.714  14.269  0.0664  0.1492 -0.0286
17389W        W34913   1.626   2.950  15.058  0.1763  0.0099  0.0150
17390W        W34914  15.184   2.633   0.942  0.3826 -0.2260  0.2830
17391W        W34915  11.282  13.254  15.317  0.0395  0.2043  0.0256
17392W        W34916  15.524   4.337  14.960  0.3081 -0.0082  0.0876
17393W        W34917  10.219  10.158  13.578 -0.3079  0.3235  0.1536
17394W        W34918   6.546   3.542   2.178  0.1398  0.2106  0.1502
17395W        W34919   5.111   0.423   3.079 -0.2368 -0.0277 -0.0466
17396W        W34920   4.378  12.303  12.454  0.1618 -0.2332 -0.0584
17397W        W34921  13.454  13.879  13.396  0.1893 -0.2493 -0.2935
17398W        W34922  11.923   6.932  16.207  0.2025  0.4291 -0.1688
17399W        W34923  15.852   7.678   0.122  0.1007  0.0309 -0.0573
17400W        W34924   2.973   1.155   4.366 -0.0216  0.0173 -0.0817
17401W        W34925   1.406  16.003   5.381  0.1735  0.2442  0.0932
17402W        W34926   3.846  11.032  15.443  0.0135 -0.1160 -0.0129
17403W        W34927   4.928   1.265  16.110 -0.1784  0.1438  0.1146
17404W        W34928  10.179   2.515  12.720 -0.2126 -0.0204 -0.1219
17405W        W34929   0.932   0.271   4.802  0.1081  0.2274 -0.0919
17406W        W34930   7.753   3.184  13.958  0.0707 -0.1015  0.1760
17407W        W34931   5.042   4.334   4.279  0.0320 -0.1897  0.1513
17408W        W34932  12.383   8.228  15.906 -0.0831 -0.1847 -0.1079
17409W        W34933  12.587  14.640   4.231  0.1033  0.2115  0.1627
17410W        W34934  15.042   5.224   2.091  0.0859 -0.1072 -0.2460
17411W        W34935  14.070   2.880  15.644 -0.2339 -0.0937 -0.0792
17412W        W34936   2.508   4.583  17.175 -0.1631 -0.0168 -0.1357
17413W        W34937  14.125   8.569   0.463 -0.0830 -0.1356 -0.0375
17414W        W34938  12.368  15.165  14.751 -0.1289 -0.0441  0.1453
17415W        W34939   3.705   2.457  14.643  0.1907 -0.0682  0.2031
17416W        W34940  13.441   3.908  12.929  0.0793  0.0293 -0.0319
17417W        W34941   8.721   2.490  13.391  0.4219  0.3478  0.0142
17418W        W34942   7.699  12.525   3.567  0.1621 -0.0382 -0.3642
17419W        W34943   6.392   0.101   0.766  0.0852 -0.1532 -0.0783
17420W        W34944  10.475   2.822   2.615  0.0875  0.1392  0.0262
17421W        W34945  11.620  15.410  17.293  0.1109  0.1820 -0.4093
17422W        W34946   9.348   6.318  14.837 -0.2632  0.1305  0.0967
17423W        W34947   8.333   7.899   5.135 -0.1484  0.0814  0.1257
17424W        W34948   1.982   5.359   0.113  0.0636  0.1976  0.3321
17425W        W34949   5.314   2.404   2.439 -0.1460  0.0276 -0.1255
17426W        W34950   7.933  16.733   3.356 -0.3847  0.2889  0.0494
17427W        W34951   7.920  15.666   1.307  0.2901 -0.2049  0.2139
17428W        W34952  13.960   5.322   2.020  0.0321 -0.1574  0.2943
17429W        W34953   8.135  14.061  17.015  0.0248  0.1308  0.1447
17430W        W34954   1.064   9.125   4.872  0.1325 -0.0249 -0.1859
17431W        W34955  13.374   3.017   3.937 -0.1507  0.1476  0.0175
17432W        W34956  16.718   6.127  15.888 -0.1354  0.1419 -0.0429
17433W        W34957  10.505  11.557  14.300  0.0997  0.0734  0.1342
17434W        W34958  15.475  15.537  16.740 -0.1443 -0.0739 -0.0788
17435W        W34959   0.397  10.409   5.237 -0.0411  0.0930 -0.1713
17436W        W34960  10.912  13.031  12.566 -0.2855 -0.3959  0.2198
17437W        W34961  10.355   8.145  16.968  0.1459 -0.3394 -0.0145
17438W        W34962   5.684   2.750   4.317  0.0191 -0.1743 -0.1264
17439W        W34963   6.980   9.768  11.402 -0.2687  0.0526 -0.0543
17440W        W34964   6.460  14.482  14.929 -0.2880  0.1614  0.0569
17441W        W34965  10.842   2.854   4.254  0.0610 -0.3737 -0.2214
17442W        W34966  14.113  13.056   2.057 -0.2480 -0.5035  0.0210
17443W        W34967  12.692  12.219   1.631 -0.0193 -0.0594 -0.0213
17444W        W34968   3.128   1.627  16.444 -0.3262 -0.0742 -0.0764
17445W        W34969  11.203   6.729  13.871 -0.1988  0.1464 -0.1852
17446W        W34970  16.818   4.094  17.523 -0.0937  0.1445 -0.1987
17447W        W34971  15.142  16.268   2.386 -0.0071 -0.1911 -0.1603
17448W        W34972   7.404  14.004   5.115 -0.2163 -0.1326 -0.2273
17449W        W34973   4.435   1.110  17.081 -0.0257 -0.3578  0.1248
17450W        W34974  17.172  16.534   3.912  0.3095  0.1239 -0.1646
17451W        W34975  15.515   7.217  14.222 -0.1693 -0.0288 -0.0348
17452W        W34976   5.714   7.537   4.426 -0.0283 -0.2627 -0.1286
17453W        W34977   0.692   6.680   0.928  0.2378  0.0781  0.1224
17454W        W34978  12.569  10.254   1.912  0.2356  0.0258 -0.0990
17455W        W34979   9.686   2.974  15.899 -0.2904 -0.0897  0.2135
17456W        W34980   2.264  11.062   4.905  0.0197  0.2446  0.2351
17457W        W34981   7.284  10.645   4.877  0.1078 -0.0953 -0.1993
17458W        W34982  17.100   3.617   3.640 -0.1536 -0.0398  0.1718
17459W        W34983   0.870   4.120  11.948  0.1468 -0.1536 -0.0749
17460W        W34984   1.403   7.776  16.122 -0.0031  0.2398  0.1191
17461W        W34985  15.984   5.619   3.458  0.0947  0.1826  0.0772
17462W        W34986  13.688   7.714   0.812 -0.0374 -0.2394 -0.0512
17463W        W34987   4.890   8.394   2.476 -0.0071 -0.2297 -0.0667
17464W        W34988   9.736   1.330  16.433  0.0627  0.1586 -0.1077
17465W        W34989  16.238   8.818  16.085 -0.1042  0.1677 -0.1613
17466W        W34990   8.694  11.051  14.201 -0.0985  0.1388 -0.1781
17467W        W34991   2.300   6.415  10.984 -0.0684 -0.3217  0.4944
17468W        W34992  15.949   4.599  15.059  0.0180 -0.1917  0.0609
17469W        W34993  11.323  14.188   4.919 -0.1224 -0.1352  0.0276
17470W        W34994   9.547   7.104   1.244  0.1931 -0.0139  0.0985
17471W        W34995   0.132  10.102  15.465 -0.4267  0.2523 -0.1246
17472W        W34996   3.611  10.635  13.398 -0.1158 -0.1944 -0.1697
17473W        W34997   3.305  10.320   2.496  0.3274 -0.0153  0.1442
17474W        W34998   5.102   7.102  17.053  0.0765 -0.0681  0.5549
17475W        W34999   5.792   6.663   5.101 -0.1740 -0.2811  0.0065
17476W        W35000  12.579   6.342   1.586  0.2491 -0.1850  0.0541
17477W        W35001   5.494  16.486  13.794  0.0829  0.0781  0.3095
17478W        W35002  16.664   1.087  14.199  0.1758  0.0151 -0.2875
17479W        W35003  11.268   0.055  15.843 -0.1886 -0.1105 -0.0856
17480W        W35004   5.019  10.891   5.737 -0.0058 -0.3710  0.0668
17481W        W35005  14.603  16.648   3.202  0.0158  0.2415  0.0812
17482W        W35006  16.571   2.337   1.594 -0.1093 -0.0272 -0.0059
17483W        W35007   8.775  16.439  14.053  0.0249  0.3088 -0.2195
17484W        W35008   1.929   2.540  12.355  0.0867  0.0951 -0.1149
17485W        W35009   9.207   5.763   3.263  0.1163 -0.0309 -0.0181
17486W        W35010   9.237  15.837   2.267 -0.0699  0.0814  0.2926
17487W        W35011  12.745   6.632   1.175 -0.0851 -0.1629  0.1275
17488W        W35012  16.479   2.314   0.967  0.3706  0.3255 -0.1613
17489W        W35013  14.489   2.326   3.561  0.1922 -0.0261 -0.0774
17490W        W35014   9.474   7.033  13.529 -0.2339 -0.1671  0.1371
17491W        W35015  16.877  13.501  11.923  0.1427 -0.1648  0.2294
17492W        W35016   1.208   9.592   4.284  0.0207  0.1051 -0.3910
17493W        W35017   1.855  14.768  14.593 -0.4046 -0.0601 -0.3846
17494W        W35018  12.605   2.791   0.867 -0.0892 -0.0959  0.1634
17495W        W35019   3.504  12.573  16.792 -0.0507  0.2355  0.1243
17496W        W35020   8.914   3.901   0.633 -0.0147  0.3163  0.1159
17497W        W35021   4.834  13.497   3.373  0.1340  0.1328  0.2367
17498W        W35022  12.590   1.969   3.041  0.1122  0.0937  0.1766
17499W        W35023  10.792  16.512  14.536  0.0014  0.0431 -0.0428
17500W        W35024  11.755   6.968   4.868  0.0853 -0.1073 -0.1100
17501W        W35025  12.639   1.058  15.100 -0.0523 -0.0618 -0.0386
17502W        W35026   3.773   0.728   4.670 -0.0507  0.0205 -0.0493
17503W        W35027   0.126  17.126  13.516  0.0582  0.0681 -0.1068
17504W        W35028  11.411   8.441  15.977 -0.0717  0.0665 -0.1990
17505W        W35029  10.820  13.192   5.610  0.2137 -0.0745 -0.1659
17506W        W35030   4.841   4.976   0.733 -0.1214 -0.1746  0.0011
17507W        W35031   9.129   5.552  15.626 -0.2558 -0.0600  0.1079
17508W        W35032  15.266   2.317   5.188  0.1943 -0.1229  0.1655
17509W        W35033   5.079   4.007  16.047 -0.1423  0.1085  0.0001
17510W        W35034   8.160  10.933   3.400 -0.0953  0.0725  0.0139
17511W        W35035  11.990  16.091  17.071  0.0545  0.3257  0.0292
17512W        W35036   7.418   1.097   0.950 -0.0564 -0.0893 -0.1817
17513W        W35037   4.560  16.072  15.855 -0.3020 -0.0675  0.2149
17514W        W35038   7.038   6.048  17.284  0.1266  0.2340 -0.2721
17515W        W35039  14.008   2.178  17.309  0.1746 -0.0641  0.3503
17516W        W35040   1.604   2.109   1.389  0.2447  0.4154  0.1640
17517W        W35041  11.082  12.974   4.572 -0.0024  0.0560  0.1350
17518W        W35042  10.567  16.665   1.278 -0.3465  0.0376  0.2156
17519W        W35043   9.120   8.080   1.838  0.3487 -0.0673  0.0303
17520W        W35044   9.112   4.920  14.785  0.1009 -0.2303  0.0512
17521W        W35045   0.689   1.413   5.463 -0.2032  0.1535 -0.2114
17522W        W35046  16.110  10.101  16.145 -0.3435  0.2193 -0.3441
17523W        W35047   6.730   0.223  15.029 -0.0597  0.1704  0.0300
17524W        W35048  14.818   6.050  16.887  0.1708 -0.1927 -0.1028
17525W        W35049  14.928  12.431  13.221 -0.0938  0.0998 -0.0990
17526W        W35050   4.654   5.784   0.605  0.1176 -0.3235 -0.3285
17527W        W35051   9.739  14.454  14.962 -0.1738 -0.1052  0.0586
17528W        W35052   1.991   6.511   3.819 -0.2165 -0.2502 -0.1852
17529W        W35053   0.399   1.615   2.237 -0.2582  0.3090  0.0891
17530W        W35054  11.634  16.355  13.886  0.0575  0.1030  0.3239
17531W        W35055   3.569  14.847  12.716  0.0796  0.3286 -0.0604
17532W        W35056   7.045   5.447  14.054  0.0681 -0.2612 -0.2021
17533W        W35057  12.464   3.658   6.053 -0.0404  0.1123  0.0822
17534W        W35058   6.752   9.921   1.540  0.0820 -0.1089 -0.1918
17535W        W35059   2.082   2.409  16.188 -0.0997 -0.0834 -0.3244
17536W        W35060  10.891   3.989  15.913  0.0020 -0.0099  0.0211
17537W        W35061   4.584   5.161  15.712  0.0400 -0.1769 -0.1401
17538W        W35062   5.553   7.817  14.624  0.2129  0.0583 -0.0944
17539W        W35063  11.762   7.200   2.013 -0.1471 -0.2094  0.1363
17540W        W35064  17.020   2.070  16.189 -0.1518  0.1412  0.1649
17541W        W35065  15.284  11.958  16.020 -0.1824 -0.0931  0.1953
17542W        W35066  14.797  17.212  16.017  0.3091  0.0625  0.0237
17543W        W35067  10.038   3.618  14.796  0.3434  0.0095  0.0505
17544W        W35068  14.879   5.275   2.581  0.3708 -0.1355 -0.0864
17545W        W35069  16.199  13.205  13.740 -0.0487 -0.0163  0.0786
17546W        W35070   4.176  17.040   0.395 -0.1400 -0.0623 -0.0355
17547W        W35071   2.635  13.801   3.356 -0.1372 -0.1168  0.2632
17548W        W35072   1.912   9.796   4.672  0.3587 -0.0184  0.0946
17549W        W35073   4.208   4.332  13.464 -0.1096  0.1788 -0.0932
17550W        W35074   4.231  13.415  12.488  0.2577 -0.2055  0.0052
17551W        W35075  17.024   2.885  13.479  0.0501  0.1504  0.1992
17552W        W35076  10.736  14.269   3.080 -0.2829  0.3846 -0.0939
17553W        W35077   3.028   2.771   5.499 -0.2556  0.0483  0.2778
17554W        W35078  12.855  13.206  15.172  0.0793 -0.0205 -0.1953
17555W        W35079  15.094   5.774   4.857 -0.1119  0.0277 -0.2019
17556W        W35080  12.905   6.105  17.538 -0.0030 -0.0011  0.1524
17557W        W35081   3.572  10.676  12.445  0.0118  0.2610 -0.0376
17558W        W35082  16.759  16.374   1.532 -0.0091 -0.0015  0.3851
17559W        W35083   6.913  11.264  12.967  0.1662 -0.0646 -0.0515
17560W        W35084  12.774   7.060   4.961  0.1110  0.1606  0.2502
17561W        W35085   8.755   7.973  15.911 -0.0812  0.2169  0.1232
17562W        W35086  16.695   0.193   2.807  0.1160 -0.2852  0.4148
17563W        W35087  10.649   4.195  15.094 -0.3944 -0.0735  0.1798
17564W        W35088   3.658   8.412   4.927  0.0795  0.0918  0.0847
17565W        W35089   6.858  14.895   0.629 -0.1382  0.1755 -0.0082
17566W        W35090   0.053  14.993   0.340 -0.1954  0.1300 -0.1179
17567W        W35091   8.616  16.479  16.393 -0.0691  0.0212  0.0406
17568W        W35092  16.803   8.710  13.024  0.2554  0.0018 -0.1112
17569W        W35093   6.652   0.732   5.651 -0.1108 -0.0563  0.1328
17570W        W35094   8.105   1.605   1.133 -0.0254 -0.0330  0.2236
17571W        W35095   7.858   7.458   2.558 -0.2804 -0.0455 -0.2357
17572W        W35096   5.379  11.218   1.022 -0.0602  0.1647 -0.1200
17573W        W35097  10.137  11.429   1.416 -0.0937  0.0318  0.1388
17574W        W35098   0.541  13.695  13.867 -0.2094 -0.1007 -0.2627
17575W        W35099   4.901   3.451   1.000  0.1116 -0.0930  0.0413
17576W        W35100  13.786   0.958  16.514  0.1840 -0.1657  0.1336
17577W        W35101   3.107   5.032   0.014  0.2718 -0.0822 -0.4818
17578W        W35102   6.457   4.049   5.241  0.0679 -0.0041 -0.1528
17579W        W35103  13.627  15.945  17.409  0.2192  0.2018 -0.1708
17580W        W35104   1.863   4.977  14.754  0.0705  0.0991  0.0211
17581W        W35105   4.740   5.886   1.073 -0.0644  0.0808 -0.1400
17582W        W35106  11.109  11.686   4.541 -0.2830 -0.2370 -0.1219
17583W        W35107  16.173   4.559  13.712  0.1600  0.3631 -0.3997
17584W        W35108   2.336   9.036   5.142  0.2872 -0.1022 -0.0271
17585W        W35109   4.356  11.588  13.888 -0.1212 -0.0429 -0.0344
17586W        W35110   7.601   6.551  14.551 -0.1015  0.0616 -0.1125
17587W        W35111   7.758   0.800   2.128  0.1145  0.0944  0.0436
17588W        W35112  16.264  16.396   1.419 -0.1891  0.1248  0.1536
17589W        W35113   4.968  15.759   0.525  0.1133  0.0785 -0.0402
17590W        W35114  12.265  13.878  13.761  0.2050  0.0249  0.2394
17591W        W35115  12.633  12.988   4.296 -0.0676 -0.1427 -0.1053
17592W        W35116   9.224  16.876   5.210  0.0219 -0.0014 -0.0688
17593W        W35117  13.962  16.050  16.009  0.0254  0.1664 -0.0857
17594W        W35118  17.176   4.394  15.875 -0.0075 -0.0512 -0.0999
17595W        W35119  10.227  10.819  12.925  0.2208  0.0025 -0.2059
17596W        W35120  14.053   9.066   4.237 -0.0680 -0.1606  0.1323
17597W        W35121  16.013   6.145   0.590 -0.0217  0.1434  0.1346
17598W        W35122  13.696  13.675   1.998  0.2703 -0.0965 -0.2782
17599W        W35123  12.979   4.425  15.690 -0.1599 -0.1004 -0.3230
17600W        W35124   4.020  10.812  14.958 -0.0785 -0.0971 -0.0444
17601W        W35125   1.190   8.739  13.065 -0.3815 -0.1218  0.1310
17602W        W35126   4.223   7.288   1.907 -0.0009 -0.0943 -0.0760
17603W        W35127   3.664  11.228   0.274 -0.1913 -0.3608  0.2269
17604W        W35128   4.387   9.369   5.425  0.1218  0.1007  0.0164
17605W        W35129   3.560   5.916   0.746  0.3081  0.0392  0.2153
17606W        W35130   0.505   4.456  12.647  0.1527  0.0372  0.0724
17607W        W35131  17.036   7.082  12.183 -0.0520 -0.4246 -0.0955
17608W        W35132   5.192  14.592  14.278  0.0751  0.1932 -0.0112
17609W        W35133   5.911   3.281  16.921 -0.0688  0.1635 -0.4330
17610W        W35134  12.919   4.653  14.608  0.1474 -0.1958 -0.0095
17611W        W35135  10.337   9.051   3.413  0.1631 -0.1881 -0.1778
17612W        W35136   7.142  14.391  12.584 -0.0169  0.0551 -0.1002
17613W        W35137   8.300  13.154   5.234  0.0570  0.0917  0.2644
17614W        W35138   2.979   8.640   0.635  0.1531 -0.2147 -0.0021
17615W        W35139   4.802  16.877  17.431 -0.0061  0.1726 -0.1927
17616W        W35140  13.714  11.133   3.411  0.1631  0.0928  0.0270
17617W        W35141   0.538   7.378   1.586 -0.1793  0.0588  0.2730
17618W        W35142  10.997   0.983  16.319 -0.0892 -0.0944  0.1610
17619W        W35143  12.787   3.526   0.537 -0.1299 -0.0453  0.3425
17620W        W35144   8.685   1.562   0.925 -0.2327  0.1299 -0.1766
17621W        W35145  13.401  10.677   3.513 -0.0175  0.1067  0.0914
17622W        W35146  10.021   1.002   5.719 -0.1957 -0.1953 -0.1474
17623W        W35147   0.009   8.555   0.092  0.2336 -0.0497 -0.3323
17624W        W35148   2.363  10.203  14.002 -0.1022  0.1624 -0.1403
17625W        W35149   6.782   7.379  17.570  0.0032 -0.1396 -0.1836
17626W        W35150  13.941  15.255   3.530  0.0670  0.0225  0.1295
17627W        W35151  10.822  16.156  12.346 -0.2396 -0.1284 -0.0334
17628W        W35152  11.343   4.599   3.072 -0.0170  0.1259 -0.0518
17629W        W35153   0.933   1.764  16.429  0.0325  0.1377  0.2499
17630W        W35154   1.432   2.415   1.050 -0.2846  0.1122 -0.1032
17631W        W35155   9.470   6.960   4.351  0.0305  0.0094 -0.1538
17632W        W35156  14.918   0.406  12.287 -0.0106 -0.2062  0.2601
17633W        W35157   7.396  13.901   4.125 -0.1640  0.2439 -0.0593
17634W        W35158   7.435  13.572  12.443 -0.1146 -0.0948  0.0686
17635W        W35159   6.005  16.747  12.430 -0.2066 -0.2085  0.0171
17636W        W35160  15.328   8.386   0.243 -0.0605 -0.2571 -0.0570
17637W        W35161   1.138   3.368  15.175  0.2500  0.1295  0.0617
17638W        W35162   1.128  10.385   5.907  0.0819 -0.1267 -0.2464
17639W        W35163  13.774  16.252   4.972 -0.2439 -0.1390  0.1695
17640W        W35164   9.169   8.524   5.522 -0.0259 -0.0079  0.2303
17641W        W35165   8.465  11.967   3.897  0.0347 -0.1293 -0.0179
17642W        W35166   5.805   6.363   5.480  0.0149  0.1467 -0.4385
17643W        W35167   8.568  12.616   1.516 -0.0097  0.0682  0.2721
17644W        W35168  14.715   7.064  14.527  0.1465  0.2910  0.1575
17645W        W35169   4.660  10.562   5.068 -0.2698  0.1786  0.0368
17646W        W35170   6.510   3.293  12.497 -0.0236  0.0762  0.1309
17647W        W35171   6.747  14.505   0.954  0.2346 -0.1657 -0.1289
17648W        W35172   1.109  13.030  11.308 -0.4635  0.2805  0.4229
17649W        W35173   1.041   6.083   2.077 -0.2880 -0.2963 -0.2835
17650W        W35174  13.812   0.792  13.758 -0.1720 -0.3623  0.2071
17651W        W35175   1.300   8.301   5.142 -0.0244 -0.0944  0.1743
17652W        W35176   0.836  12.436   3.015 -0.0312  0.0649  0.0358
17653W        W35177  15.982  10.615  15.309  0.1980 -0.1580 -0.0845
17654W        W35178   9.362  10.357   4.205 -0.3009  0.0637  0.2686
17655W        W35179  13.220  15.588   1.844 -0.0096  0.1545  0.1518
17656W        W35180   5.605  10.467   3.687 -0.0351  0.2048 -0.1319
17657W        W35181   0.754  16.498   3.791 -0.1854  0.2139 -0.2387
17658W        W35182  14.480   3.445   3.198 -0.1910 -0.0901  0.2320
17659W        W35183  15.053   2.508   0.286 -0.1004 -0.0125 -0.3959
17660W        W35184   1.759   4.248  11.792 -0.1498  0.2957 -0.0456
17661W        W35185  13.313   7.905  15.844  0.2661 -0.2309  0.0098
17662W        W35186   4.292  17.244   4.168 -0.2044 -0.3347 -0.3687
17663W        W35187   4.497  10.300   3.991  0.1135 -0.1784 -0.0855
17664W        W35188   1.785  16.270   3.316  0.0764 -0.1562 -0.2855
17665W        W35189  12.849   5.173  16.891  0.0520  0.0404 -0.1439
17666W        W35190  15.071   3.065   1.320 -0.1252 -0.2378  0.2296
17667W        W35191   6.151  14.303  13.099 -0.2114  0.0578 -0.0205
17668W        W35192   1.281   1.899  15.410 -0.2660  0.0463  0.0322
17669W        W35193   9.108   0.859   0.365  0.1589 -0.0996 -0.1816
17670W        W35194  15.651   8.029   0.416  0.1231  0.1488 -0.0363
17671W        W35195  16.687  16.101  14.747 -0.3654  0.0858  0.0076
17672W        W35196   6.249   3.063   5.526  0.0210 -0.2401 -0.2350
17673W        W35197   1.279   5.602  14.506 -0.2475 -0.1974 -0.0756
17674W        W35198   8.199   0.970   0.419 -0.0313  0.0671 -0.0948
17675W        W35199   6.850   3.297  14.913 -0.6434  0.1366 -0.2585
17676W        W35200   8.643   0.697  13.916 -0.0042 -0.1832 -0.0577
17677W        W35201  12.620   7.113   1.466 -0.0309  0.0079 -0.2684
17678W        W35202  14.428   6.233  15.230  0.1203  0.2224 -0.0466
17679W        W35203  12.950  14.389   4.494  0.0979  0.2093  0.1198
17680W        W35204   6.831  13.062  13.060  0.0177  0.1519 -0.2059
17681W        W35205  11.662  14.564  13.786  0.0110  0.0150 -0.2928
17682W        W35206  16.361  12.084  15.391  0.0683 -0.0362  0.1031
17683W        W35207   0.508  15.790   2.087 -0.4650 -0.0925  0.1485
17684W        W35208   0.483   8.451   4.548  0.3109  0.0989  0.0458
17685W        W35209   8.005   2.529  15.259  0.2523 -0.0474 -0.0536
17686W        W35210   0.234  11.263  17.411 -0.2955 -0.1597  0.2028
17687W        W35211   2.135   5.094   2.425 -0.3111 -0.1075 -0.2807
17688W        W35212   9.793   6.332   2.699 -0.0997 -0.0039  0.0269
17689W        W35213   9.574   7.965   1.650  0.0324  0.1583  0.0135
17690W        W35214   2.004  10.827  13.427  0.3981  0.0424 -0.0925
17691W        W35215   3.796   1.794   4.238 -0.3689  0.0922  0.1026
17692W        W35216   8.363  12.037   5.422  0.1201 -0.0412  0.1475
17693W        W35217  11.907  10.396  16.460  0.1753 -0.0121 -0.0543
17694W        W35218   7.657   3.933  17.200 -0.1174  0.0214 -0.0745
17695W        W35219   2.210   2.764   3.817  0.0582 -0.1897 -0.0242
17696W        W35220   6.547   5.506   1.150 -0.3695 -0.0352  0.3120
17697W        W35221   5.178  15.150   1.255  0.1030  0.3055  0.0606
17698W        W35222  13.177   4.386   0.414  0.0030 -0.0467  0.1519
17699W        W35223  13.860   9.931  12.440 -0.0627 -0.0179 -0.1948
17700W        W35224  12.729  15.973   0.146  0.1572 -0.3447  0.0469
17701W        W35225   9.465   0.982   3.792  0.0746  0.0906 -0.2020
17702W        W35226   8.551   9.544  14.610  0.2618  0.0636  0.0767
17703W        W35227  15.571  15.285  14.651  0.3000  0.0912  0.0882
17704W        W35228   3.319   0.040  15.260 -0.0547  0.1769  0.1668
17705W        W35229  13.487  11.433  15.788  0.1777 -0.0924 -0.0621
17706W        W35230  15.119   9.076   1.415 -0.0304 -0.3449  0.2359
17707W        W35231  10.146   6.297   5.906 -0.3261  0.1747  0.2604
17708W        W35232   6.842   4.439   1.007  0.0288 -0.1905 -0.0778
17709W        W35233  11.525   1.054  17.508 -0.1144 -0.1062  0.3259
17710W        W35234  14.267   3.252  11.087  0.3154 -0.2802  0.1739
17711W        W35235   8.285  11.792  17.458  0.2113  0.3366 -0.0419
17712W        W35236   0.422   2.715   1.675  0.1139  0.1610 -0.0444
17713W        W35237   7.714  10.979   2.705 -0.2836  0.0625 -0.0009
17714W        W35238  13.413  11.281  13.673 -0.0023  0.0814  0.2515
17715W        W35239   6.387   1.133   2.307 -0.0775 -0.2634  0.0866
17716W        W35240  15.842  15.147   4.929 -0.0206 -0.2233 -0.0811
17717W        W35241   2.457  10.369   5.165 -0.1472 -0.0461 -0.4603
17718W        W35242   1.995   0.907   2.753 -0.0839 -0.0969  0.1763
17719W        W35243   2.272   9.849   1.099 -0.1706  0.1742  0.1056
17720W        W35244   4.868   0.375  13.726  0.5141 -0.3082 -0.0967
17721W        W35245   2.193   3.190   0.580 -0.0930 -0.4150  0.1281
17722W        W35246  14.856  15.005  15.310 -0.0651 -0.1478  0.0149
17723W        W35247   1.360  14.953  13.853 -0.1222 -0.0139  0.1924
17724W        W35248   9.279  16.745   1.698 -0.1793 -0.2394 -0.0848
17725W        W35249   6.207   8.914  16.059  0.0807  0.0903  0.0857
17726W        W35250   2.895  10.921  14.859  0.0204 -0.0553 -0.1332
17727W        W35251  10.184  14.135   1.846 -0.2930 -0.0248 -0.0442
17728W        W35252   7.990  12.799  14.247  0.1695 -0.0384 -0.0605
17729W        W35253  11.153   5.136  12.533 -0.0607  0.2743  0.2274
17730W        W35254   4.239   4.177   2.645  0.1188 -0.2538  0.0891
17731W        W35255  15.906   8.510   1.073 -0.0838 -0.3666  0.0119
17732W        W35256  13.326   5.517  13.664 -0.0956  0.0992 -0.0395
17733W        W35257  16.652   2.204   0.310  0.2390 -0.0433  0.2866
17734W        W35258   0.081  14.979  14.282  0.1623 -0.3240  0.0054
17735W        W35259   1.978  11.308  13.715 -0.1315 -0.0346  0.3606
17736W        W35260   4.745  14.567  14.708  0.1755  0.0376 -0.1117
17737W        W35261  14.597  14.015   0.911  0.4146 -0.2758 -0.0112
17738W        W35262  15.597  10.195  16.383  0.0057 -0.0051  0.2080
17739W        W35263   3.725   8.471   0.787  0.0671  0.0315  0.1589
17740W        W35264   0.259  13.468  14.848  0.0821  0.0209 -0.1307
17741W        W35265  11.190  16.459  14.133  0.3542  0.2935  0.1127
17742W        W35266  11.705  16.779   5.243  0.2957  0.0926  0.2554
17743W        W35267   4.135  12.763   4.308 -0.0626  0.1224 -0.0994
17744W        W35268   4.697   7.880   3.502  0.1168  0.1456 -0.3824
17745W        W35269   4.159   9.396   3.056 -0.0050 -0.2321  0.2811
17746W        W35270   1.533   4.969   1.476 -0.0193  0.0262 -0.2251
17747W        W35271  13.620  11.774   1.660 -0.0576  0.4003  0.3945
17748W        W35272   2.900   9.798  15.704 -0.0101  0.3572 -0.0395
17749W        W35273   7.791   0.184  16.724  0.1903 -0.0033 -0.1059
17750W        W35274   9.735   1.672  14.600 -0.0608  0.0591  0.0499
17751W        W35275  13.840   2.881   3.150  0.2564  0.3513 -0.0204
17752W        W35276   4.129   1.065  13.697 -0.1572 -0.1398  0.2375
17753W        W35277  11.713  13.808   0.514 -0.2652 -0.1108 -0.1218
17754W        W35278  10.531   1.528  14.403 -0.1886 -0.1579  0.0359
17755W        W35279   4.431   0.793  16.030 -0.0664 -0.1419 -0.2478
17756W        W35280   9.179   7.481  16.879  0.2240  0.1066 -0.0882
17757W        W35281  14.645   1.935   0.535 -0.1373 -0.1635 -0.3001
17758W        W35282  11.398   3.723  14.498  0.0902  0.2342  0.4239
17759W        W35283   9.232  14.591   2.515 -0.0704  0.1358 -0.0462
17760W        W35284  10.709   4.786  14.526  0.2095  0.0447  0.1626
17761W        W35285   2.117   7.107  13.986 -0.3876  0.1344 -0.0163
17762W        W35286  11.407   4.623   2.491 -0.2684 -0.0393 -0.1297
17763W        W35287   4.157  11.865   1.141 -0.1690 -0.0203  0.0362
17764W        W35288  14.080  14.627   3.549  0.1960 -0.2615  0.0262
17765W        W35289  14.414   0.003  15.280  0.0023  0.1646  0.3483
17766W        W35290  12.847   0.781  15.469 -0.1839  0.0485 -0.0779
17767W        W35291  14.724   9.592  15.476  0.1146 -0.0933  0.0862
17768W        W35292   5.561   5.942  14.900 -0.0927  0.3037  0.1064
17769W        W35293  14.065   5.459  17.391  0.0820 -0.2049  0.0613
17770W        W35294   3.963  17.128  12.282  0.0260  0.0666 -0.0463
17771W        W35295  13.609  15.627  15.392 -0.1757  0.1350 -0.0088
17772W        W35296   3.205   7.703   3.815 -0.0102  0.0102 -0.1387
17773W        W35297   5.135  13.917  16.064  0.0474 -0.2977 -0.3515
17774W        W35298  15.763  13.059  12.905 -0.0797  0.0761 -0.2104
17775W        W35299   9.952  13.318   2.975  0.0294  0.0045 -0.2122
17776W        W35300   1.564   9.575   3.804 -0.0578  0.3445 -0.1411
17777W        W35301   9.663   9.359  15.028 -0.1180 -0.0760  0.0688
17778W        W35302   2.901   7.085  17.159  0.0747  0.1167  0.0166
17779W        W35303   8.028  13.341   0.849  0.2006 -0.0498  0.0579
17780W        W35304   1.847   9.943  15.801  0.1474  0.3597 -0.0713
17781W        W35305   7.646   7.923  14.515 -0.1986 -0.2632 -0.0127
17782W        W35306  15.218  16.457   3.746 -0.0441 -0.0742  0.1810
17783W        W35307  15.761   9.009   3.500 -0.1837  0.1527  0.0108
17784W        W35308   0.056   1.898   6.090  0.2461 -0.2277  0.0396
17785W        W35309   0.375   1.092   1.307 -0.2152 -0.0839 -0.1278
17786W        W35310  10.730   4.416   4.179 -0.1114 -0.1164  0.0583
17787W        W35311   3.983  14.585  13.165  0.0250  0.0799 -0.0145
17788W        W35312   5.577   1.138  13.462  0.3895  0.1603  0.1722
17789W        W35313  11.799   4.900  14.854 -0.3873 -0.2635  0.0081
17790W        W35314  15.986  13.985  11.856  0.2086  0.1062  0.0247
17791W        W35315   8.402   9.829  17.150 -0.3017  0.3096 -0.1514
17792W        W35316  16.159   7.371   4.161  0.0215 -0.1688  0.0265
17793W        W35317   8.746   7.993  17.238  0.0099  0.2535 -0.0580
17794W        W35318   4.269  10.101   4.869 -0.0424  0.2890 -0.0568
17795W        W35319  12.965  11.905  13.407 -0.0031  0.1235  0.1857
17796W        W35320   7.481   5.742  16.119  0.3814  0.1030 -0.2226
17797W        W35321  11.622   1.147  15.196 -0.1161  0.2567  0.1297
17798W        W35322  12.405   3.345  14.244 -0.2645  0.0412 -0.2892
17799W        W35323   4.615   9.027   4.623  0.1978  0.0468 -0.3050
17800W        W35324  15.976   9.612  12.444 -0.0646 -0.0301  0.2147
17801W        W35325   2.266  13.646  17.032 -0.3835 -0.0655 -0.2359
17802W        W35326   2.244  12.363   3.162 -0.5194 -0.4288 -0.0049
17803W        W35327  15.510  10.944  13.750 -0.2150  0.0012 -0.3053
17804W        W35328   4.876   8.272   4.028  0.1827 -0.1753 -0.0918
17805W        W35329   5.275   6.079   2.548  0.0650  0.0390  0.0949
17806W        W35330  13.267   0.948  15.710 -0.0404  0.0884  0.0500
17807W        W35331   3.289  10.478  16.665  0.3531  0.2192  0.1736
17808W        W35332  13.251  14.214   2.135 -0.0071  0.1104  0.0678
17809W        W35333  13.784   9.485  15.449 -0.1433  0.0726 -0.1326
17810W        W35334   5.140   1.322  13.206 -0.1069 -0.0115 -0.1550
17811W        W35335  15.242  15.683  14.608  0.1619  0.0953  0.0723
17812W        W35336   0.304  12.309   2.652  0.0338  0.1117 -0.0376
17813W        W35337  13.508   4.036  14.910  0.1087  0.1080  0.3113
17814W        W35338   1.207   1.020   2.333 -0.0069 -0.0402 -0.2155
17815W        W35339  13.734   1.086  17.622  0.1863  0.1204  0.2850
17816W        W35340   1.275  13.906  14.190  0.1284  0.1559 -0.0096
17817W        W35341  17.122  12.512  17.268  0.1050 -0.2167  0.2874
17818W        W35342   6.807  13.148  15.197  0.2226 -0.1391 -0.1072
17819W        W35343   5.111  14.006   4.179 -0.0897  0.2350 -0.4424
17820W        W35344  13.947   6.695   4.612 -0.1292 -0.1248 -0.0120
17821W        W35345   5.367  12.716   1.172  0.0866 -0.0518  0.1346
17822W        W35346   9.380  12.663   1.417 -0.0253 -0.3198 -0.0966
17823W        W35347   1.821   1.184  11.964  0.0366  0.1178 -0.1272
17824W        W35348  13.215  10.466  13.475  0.2428  0.1672 -0.0587
17825W        W35349   4.411   4.752   1.703 -0.3037 -0.2052  0.1792
17826W        W35350  14.801   9.824  12.329  0.1136 -0.0342  0.0108
17827W        W35351   0.668  10.287  13.575  0.5560 -0.0787  0.1006
17828W        W35352  12.822  16.598   5.396 -0.2554 -0.1693  0.2508
17829W        W35353   4.838  11.963   2.739 -0.0446 -0.0013  0.2113
17830W        W35354   5.897   1.695  15.077 -0.1610  0.1771  0.0123
17831W        W35355   3.084   0.791   1.732 -0.4111 -0.0239  0.3339
17832W        W35356   7.795  16.652   2.867 -0.0382 -0.0424  0.2729
17833W        W35357   9.116  11.498   1.442 -0.1813 -0.1027 -0.0518
17834W        W35358  16.368  10.229   1.093 -0.3493 -0.2999  0.0273
17835W        W35359   2.910  10.554   0.088  0.2736  0.0960 -0.0578
17836W        W35360   4.314  16.268   4.592  0.3172 -0.2697 -0.0561
17837W        W35361   0.727  11.613   2.374  0.2402  0.3040  0.1847
17838W        W35362  12.779  14.678   2.902 -0.0917 -0.0655 -0.2755
17839W        W35363   8.620   2.046   0.096  0.2173  0.1275  0.1171
17840W        W35364  16.133   5.329   4.059 -0.1519  0.1536 -0.0567
17841W        W35365   6.006   2.827  14.812  0.0117 -0.0810 -0.2388
17842W        W35366   3.068  14.407  16.540  0.0129 -0.0963 -0.1848
17843W        W35367   7.023  10.359  16.492  0.0429 -0.2358  0.3261
17844W        W35368  11.190   2.254  14.065 -0.1564  0.3000 -0.1487
17845W        W35369   5.135   3.555  15.691 -0.2263 -0.1521 -0.3403
17846W        W35370   7.546   1.778   1.964 -0.0982 -0.0118 -0.1270
17847W        W35371   5.363   9.754  15.557  0.1736  0.1264  0.0081
17848W        W35372  16.448   0.221  12.806 -0.1491 -0.0495 -0.3444
17849W        W35373  14.384  16.272  14.828 -0.0124 -0.0634  0.1753
17850W        W35374  14.402   9.784  13.102 -0.0241 -0.3266 -0.1530
17851W        W35375   8.341   4.902   1.543 -0.1900 -0.2833 -0.2049
17852W        W35376   9.962  12.400   2.084 -0.1884  0.0252 -0.2690
17853W        W35377  14.320  14.292   2.066  0.0172 -0.0918  0.2123
17854W        W35378   3.519   6.921   0.202  0.1696 -0.1440 -0.0339
17855W        W35379  13.566  14.656   2.343 -0.0050 -0.0991 -0.0050
17856W        W35380  16.718   1.961   4.077 -0.1624 -0.0795 -0.0340
17857W        W35381  16.610   6.003   1.004  0.0887  0.1431 -0.0713
17858W        W35382   4.153   1.033   1.035 -0.2164 -0.0441 -0.0250
17859W        W35383  15.112   6.003  12.769 -0.4988  0.2902 -0.2559
17860W        W35384   4.140   7.295   2.969 -0.0622 -0.1215 -0.0012
17861W        W35385   7.423  12.829  15.113  0.2859 -0.0564  0.1183
17862W        W35386  11.638  16.173   3.487  0.1473 -0.2302 -0.0717
17863W        W35387   1.818  11.792  17.510  0.0518  0.1643  0.0256
17864W        W35388  10.166  10.501   1.554  0.2800  0.0687 -0.0322
17865W        W35389   0.329   4.912  16.874  0.2843 -0.1875  0.0277
17866W        W35390   5.666   9.316   4.534  0.1688 -0.4040  0.0501
17867W        W35391   6.353   5.921  11.576  0.2340 -0.1170 -0.1053
17868W        W35392  11.988  11.568  12.588 -0.0091 -0.2180  0.3924
17869W        W35393   5.119  12.223  15.717 -0.1612 -0.2200  0.0386
17870W        W35394   3.448  14.207  12.401 -0.1672 -0.0206  0.0844
17871W        W35395   7.134  16.151  14.122 -0.0012  0.1029 -0.0951
17872W        W35396  16.585  10.127  15.961  0.0291  0.1244  0.0544
17873W        W35397  16.564   0.542  14.270 -0.1411  0.1713 -0.0115
17874W        W35398   1.414   8.898   5.696 -0.1691  0.1289  0.1658
17875W        W35399   2.003   5.521  15.372  0.1509  0.1423  0.1106
17876W        W35400  12.394  14.878   3.851 -0.1196 -0.4714  0.4116
17877W        W35401   0.177  10.194  12.283 -0.0501 -0.0743 -0.0615
17878W        W35402   4.762   9.909   4.340 -0.2349  0.1549  0.2047
17879W        W35403   4.812   5.777   1.951  0.0277  0.1703  0.0119
17880W        W35404   1.089  14.009  15.261 -0.1954 -0.0705  0.0979
17881W        W35405   1.030  10.540  13.767 -0.0488  0.1438 -0.2526
17882W        W35406   9.185   6.198   0.756  0.0308 -0.2123  0.2484
17883W        W35407  10.649   6.338  17.536 -0.1707 -0.1496 -0.2064
17884W        W35408   1.174   7.424   1.921  0.0797 -0.0617  0.1004
17885W        W35409   4.236   7.661   3.297  0.1087  0.3050  0.0046
17886W        W35410   0.566  16.862   3.533  0.0071  0.1644  0.1115
17887W        W35411   5.205  12.842   3.124 -0.1556 -0.1167 -0.0283
17888W        W35412   6.984   9.326   4.245  0.1519 -0.2641 -0.1479
17889W        W35413   5.546   0.200  14.900 -0.0322  0.2951  0.1744
17890W        W35414   0.537  16.544  15.204 -0.0378 -0.2127  0.1157
17891W        W35415  11.720   8.099  12.838 -0.1751 -0.1708  0.0679
17892W        W35416   6.177  15.393   3.500 -0.0947  0.0064  0.0900
17893W        W35417   6.832   9.803  15.554  0.0206 -0.1180 -0.2634
17894W        W35418  15.661  13.243   4.469 -0.1470 -0.0316  0.2277
17895W        W35419  16.855   5.352  13.378  0.0516  0.3767  0.1667
17896W        W35420  11.792  14.657   0.544 -0.0315 -0.2805  0.0635
17897W        W35421  16.854   4.799  17.104 -0.1115  0.1505  0.1104
17898W        W35422  13.972   4.008  15.947  0.1873  0.2220 -0.0322
17899W        W35423  15.995  11.037  14.616 -0.3105  0.0808 -0.1867
17900W        W35424   0.014  11.240   1.198  0.3171 -0.2752 -0.0350
17901W        W35425   6.431   5.766   2.456  0.1774 -0.0851  0.1648
17902W        W35426   6.640  15.712  14.551  0.2430 -0.0604 -0.2671
17903W        W35427  15.882   9.227  14.604  0.1825  0.0062 -0.0645
17904W        W35428   0.126  16.142   1.745  0.3407 -0.2369 -0.0195
17905W        W35429   1.738   9.436   4.319  0.0511 -0.3428  0.0569
17906W        W35430   8.105   9.063   3.117  0.2548 -0.1750 -0.0525
17907W        W35431  16.864   2.306   4.925  0.2238  0.1298 -0.2400
17908W        W35432   4.543  13.340   1.735  0.0622 -0.2348  0.3825
17909W        W35433  12.346  13.165   0.394  0.2846 -0.2663  0.1072
17910W        W35434  14.869   6.532   0.255  0.1153 -0.0808  0.0501
17911W        W35435   5.185  10.134   3.044 -0.1326  0.1322 -0.0249
17912W        W35436  10.020  16.896   5.770  0.0405  0.5652  0.1331
17913W        W35437   3.074   2.397   0.512  0.0105  0.0769  0.0261
17914W        W35438  10.714  16.948   2.419 -0.3395  0.0806  0.2390
17915W        W35439  13.734   1.652   1.795 -0.0401  0.0815  0.0408
17916W        W35440  10.636   0.943  13.763  0.2098  0.1851 -0.2220
17917W        W35441   6.938   0.645  14.301 -0.1045 -0.2734  0.2580
17918W        W35442  13.581   3.081   1.853 -0.1436  0.2272  0.1246
17919W        W35443   0.182  15.927   0.685  0.4172 -0.3502 -0.0913
17920W        W35444   5.961  15.417   4.616  0.2342 -0.3213 -0.0137
17921W        W35445  14.366  11.752  13.320 -0.0521 -0.1192 -0.0808
17922W        W35446  12.521  13.270  12.616  0.2101 -0.1122  0.0269
17923W        W35447   0.685  15.271  14.876  0.3215 -0.1869 -0.2212
17924W        W35448  11.221   5.842  16.477 -0.0615 -0.0001 -0.1080
17925W        W35449  16.112   3.606  15.585  0.1828  0.0556  0.1306
17926W        W35450   0.204   1.711   0.330 -0.0391 -0.0524  0.0503
17927W        W35451  12.892   2.541   4.819  0.0129 -0.1543  0.4880
17928W        W35452   2.395  10.667  15.569 -0.2391 -0.1859 -0.1386
17929W        W35453   3.974  13.049   3.102  0.2172 -0.2713  0.2926
17930W        W35454   4.977  15.371  12.488 -0.3924  0.2096  0.0861
17931W        W35455  15.968   7.256   3.702 -0.1710 -0.0606  0.1720
17932W        W35456   8.209   3.760   2.070 -0.1176  0.0690 -0.2097
17933W        W35457  14.468   1.965   3.914  0.0819  0.0657 -0.3154
17934W        W35458   1.640   6.040   4.330  0.2402  0.1110 -0.2130
17935W        W35459   7.913   9.627  17.080  0.0776 -0.2728 -0.0253
17936W        W35460   0.842  12.308  14.874  0.1605  0.2966  0.0087
17937W        W35461  14.046  13.683  17.597 -0.3774  0.2253  0.0276
17938W        W35462   2.195   2.332   3.421  0.0557  0.0615  0.1371
17939W        W35463  17.226  15.565   2.249  0.0559 -0.1195  0.0997
17940W        W35464  16.716   7.618  13.893  0.1714  0.3526 -0.0071
17941W        W35465   9.490   5.579   5.081  0.0133  0.0833 -0.2095
17942W        W35466  17.224   3.062   1.435  0.0406 -0.2200 -0.1885
17943W        W35467   4.427  11.375  17.589  0.3012 -0.1037 -0.4069
17944W        W35468   6.543   7.791  14.545 -0.0565 -0.1483  0.3032
17945W        W35469   2.262   5.232  13.568  0.1793  0.1666  0.0193
17946W        W35470   2.819  10.917  16.910  0.0545  0.0840 -0.0259
17947W        W35471   9.083   4.111  12.617 -0.0902  0.2995 -0.0337
17948W        W35472  13.194   6.578  11.770  0.0191 -0.0401  0.3308
17949W        W35473   6.602  13.975  15.607  0.2791 -0.3303 -0.4369
17950W        W35474   8.918   7.313   2.056  0.0014 -0.1972  0.0335
17951W        W35475   3.137   0.419  15.684 -0.0514 -0.1475 -0.0095
17952W        W35476  16.470   9.274  17.000  0.0387 -0.0951  0.0000
17953W        W35477   9.946   3.362   1.314  0.1844  0.2493 -0.0219
17954W        W35478  13.769   7.264   3.317 -0.1348  0.2138 -0.3842
17955W        W35479   7.995  12.025   0.833 -0.0080  0.1180  0.2433
17956W        W35480  12.864   5.639  14.425 -0.0100 -0.2946  0.1066
17957W        W35481  10.938   5.446  14.099 -0.0573 -0.0139 -0.1246
17958W        W35482   5.789   7.798  16.795  0.2505  0.1093  0.0123
17959W        W35483   2.012   4.681  17.204 -0.1151  0.4197  0.0193
17960W        W35484  10.249  10.901   1.956  0.1036 -0.1362 -0.0091
17961W        W35485   0.057   1.239   2.014  0.2001 -0.0059 -0.1869
17962W        W35486  13.999   4.981  15.381  0.0071 -0.0082 -0.2568
17963W        W35487  10.708   5.227  13.682 -0.0616 -0.0741 -0.0622
17964W        W35488   3.197  17.181   5.198  0.0819 -0.2097  0.1201
17965W        W35489   6.497   6.470   3.891 -0.1439  0.2032  0.2615
17966W        W35490   7.877  13.469   4.689 -0.0364 -0.0212  0.2798
17967W        W35491   0.598  16.270  13.922 -0.0935  0.2137  0.1372
17968W        W35492  11.006   3.596   1.428 -0.0027  0.1581  0.2385
17969W        W35493   1.829  11.707   0.871 -0.0135  0.0815 -0.2635
17970W        W35494  12.698  11.779   2.131 -0.1088 -0.2705 -0.2036
17971W        W35495   4.048  16.443   1.954 -0.1177 -0.1085 -0.0924
17972W        W35496  15.171  11.686  12.031  0.1603 -0.2236 -0.0753
17973W        W35497   6.536  13.869   4.954  0.1251  0.1053 -0.1716
17974W        W35498   1.745   0.910  12.418 -0.1565  0.1227  0.2466
17975W        W35499   8.054   1.801  17.464  0.2869 -0.0736  0.0445
17976W        W35500  15.554   7.457   0.498 -0.0330  0.2057  0.2714
17977W        W35501   6.189   3.143   2.190 -0.0960  0.1261  0.3147
17978W        W35502  11.721  15.265   3.145 -0.2402 -0.0671  0.4080
17979W        W35503  13.959   8.743   2.137  0.0773 -0.3869  0.2515
17980W        W35504  11.088   2.158  13.572 -0.1036  0.1105  0.4384
17981W        W35505  15.775   8.529   2.525 -0.2404  0.0005 -0.2675
17982W        W35506  16.509   8.509   2.713  0.3186  0.3617  0.2573
17983W        W35507  16.899  13.663   4.405 -0.0220 -0.2570  0.1861
17984W        W35508  11.726  10.679   1.917  0.0920  0.1313 -0.2380
17985W        W35509  13.659   4.693   2.529  0.0101 -0.1653 -0.1600
17986W        W35510   2.902   4.233   1.825 -0.2036  0.1310 -0.0844
17987W        W35511   7.111  15.519  12.494  0.0872 -0.0567  0.2861
17988W        W35512   5.225   6.304   3.905 -0.1115  0.2208  0.0313
17989W        W35513  15.295  13.259   2.799  0.1136  0.0081  0.1695
17990W        W35514  10.457   1.832   1.210  0.1629 -0.0886 -0.6622
17991W        W35515   5.000   9.164   1.950 -0.0096 -0.0312 -0.2291
17992W        W35516  14.265  16.372   4.559 -0.1458  0.1493 -0.1682
17993W        W35517   5.039   0.862  12.341 -0.2596 -0.0195 -0.0768
17994W        W35518  11.209  11.868   4.047 -0.0860 -0.0094 -0.0567
17995W        W35519  11.500  12.812  16.008  0.0991  0.0183 -0.2032
17996W        W35520  13.026  14.028   4.833  0.1627 -0.2816  0.1003
17997W        W35521  10.023   1.644  15.870  0.0773  0.0479  0.0118
17998W        W35522   7.730   7.575  14.902  0.2260  0.0179  0.1418
17999W        W35523  10.601  11.088  15.305 -0.3246 -0.1720  0.0501
18000W        W35524   5.471   3.866  12.816  0.0358 -0.2127 -0.2273
18001W        W35525   2.007   5.739   0.539  0.1395  0.3158  0.1504
18002W        W35526   2.275  11.097  16.807  0.1504 -0.0694  0.1588
18003W        W35527  15.166  15.471   2.416  0.0177 -0.5172  0.1088
18004W        W35528   3.947  11.906   1.621 -0.2889  0.5014 -0.2681
18005W        W35529   4.096  11.821  12.095 -0.0293  0.1393 -0.3624
18006W        W35530  13.631   4.664   0.285  0.2097  0.1807 -0.0039
18007W        W35531  11.828   3.030  16.335 -0.5979 -0.0541  0.2274
18008W        W35532  15.057  15.868   2.728  0.0489 -0.3100  0.1981
18009W        W35533  12.630   6.815  12.540 -0.1562  0.1564  0.1110
18010W        W35534  14.057  11.221   0.237  0.1215 -0.0359 -0.1119
18011W        W35535   8.897  14.338   5.055  0.0594  0.0266  0.1028
18012W        W35536  11.300   9.259   2.012 -0.2616 -0.1490  0.2357
18013W        W35537   3.649   4.795   3.721 -0.1156 -0.1246  0.0499
18014W        W35538  11.545   7.119   5.490 -0.2233 -0.0103 -0.1919
18015W        W35539   4.652   3.328  15.774  0.2728 -0.0341 -0.2453
18016W        W35540  10.824   6.516  12.525  0.2410 -0.0188 -0.1666
18017W        W35541   5.749   5.106   4.948  0.3020 -0.0647 -0.0332
18018W        W35542  13.186  11.655  14.851 -0.0467  0.0072 -0.2701
18019W        W35543   2.623  15.724   2.216  0.1410 -0.0976 -0.0222
18020W        W35544  10.835  12.669  16.013 -0.0420 -0.0379 -0.3549
18021W        W35545  10.888  14.516   5.021  0.1345 -0.2445  0.3854
18022W        W35546   8.488   1.675  15.579 -0.2305  0.1977 -0.0819
18023W        W35547   8.342   2.320   0.640 -0.0798 -0.0995  0.1154
18024W        W35548  12.833   9.314   4.686  0.1166 -0.1313  0.0837
18025W        W35549  14.842  15.044  12.315 -0.2508 -0.1795 -0.0883
18026W        W35550  13.891   6.123   4.543 -0.0920 -0.3626  0.2424
18027W        W35551   9.529  14.992  13.683 -0.1194  0.2312  0.1714
18028W        W35552   1.767  10.848  15.125  0.1445  0.4275 -0.1909
18029W        W35553  11.484  12.953  14.886 -0.0682  0.2832 -0.0314
18030W        W35554   8.363   1.158   3.812 -0.3722 -0.3315  0.0228
18031W        W35555  12.865  15.038  16.530  0.1465 -0.1908 -0.0569
18032W        W35556  12.253   8.954  16.733  0.0862  0.0859 -0.2043
18033W        W35557  10.626  11.721   5.812  0.2677 -0.1927 -0.0623
18034W        W35558  14.420   2.850  12.313  0.0116 -0.1659  0.1712
18035W        W35559   0.764   1.374  12.601  0.3052 -0.1798  0.0858
18036W        W35560   3.423  13.100  17.553  0.0577  0.1334 -0.1730
18037W        W35561   4.178  10.435   5.174  0.3012 -0.1010 -0.0535
18038W        W35562   3.948   8.559  12.983  0.1622  0.0727 -0.2573
18039W        W35563  14.370  10.911   1.736  0.2641 -0.1478  0.1583
18040W        W35564   7.906   7.923   3.611  0.0385 -0.1990  0.0309
18041W        W35565   4.424   8.230   5.143  0.0729  0.3483  0.0950
18042W        W35566  11.704   7.741  17.065  0.0006  0.2094 -0.0389
18043W        W35567  14.004  14.752   4.343 -0.0464  0.0302  0.1878
18044W        W35568   9.428  13.914   5.799  0.3077 -0.1737  0.1207
18045W        W35569   8.958  11.456   5.646  0.0625  0.0946  0.1519
18046W        W35570  14.489   2.735   3.186 -0.2023  0.1687 -0.2413
18047W        W35571   8.988  16.224   1.860 -0.2007  0.1929 -0.1078
18048W        W35572   6.564   4.772   2.045 -0.0161  0.1184  0.3582
18049W        W35573   8.246   9.596  12.128 -0.1607  0.4330 -0.2815
18050W        W35574   8.440   5.302  13.893  0.0630 -0.0742  0.0250
18051W        W35575   7.688  13.736  15.292  0.3872  0.1711  0.2555
18052W        W35576   3.173  10.985  12.775  0.3132 -0.0482  0.0635
18053W        W35577   0.948   6.585  15.392 -0.0543 -0.0430 -0.0830
18054W        W35578  13.162   7.389  14.131  0.5352  0.0244 -0.2573
18055W        W35579   3.268   1.140  17.279  0.1246 -0.0039  0.0001
18056W        W35580   5.348  10.519  13.187 -0.1347  0.1297 -0.3613
18057W        W35581   7.199  11.527   0.774  0.0816  0.0722 -0.1352
18058W        W35582   9.108   9.347   2.673 -0.0388 -0.1111 -0.1029
18059W        W35583   0.671   3.672   1.089  0.2959  0.0040 -0.1521
18060W        W35584  15.347   2.281   3.277 -0.0482  0.4566  0.0418
18061W        W35585   2.715   2.855  12.795 -0.0754 -0.1268  0.0372
18062W        W35586   9.896   0.495   1.490 -0.2427  0.3448 -0.1135
18063W        W35587  11.417   7.259   1.129 -0.4511 -0.0560  0.2124
18064W        W35588   6.205  14.535  17.608  0.3020  0.4890  0.1452
18065W        W35589   4.667  10.461  13.968  0.1053  0.3949  0.3695
18066W        W35590  15.743   6.303  14.092  0.2288 -0.2700 -0.1659
18067W        W35591   3.746   9.015   1.011  0.2106 -0.1338  0.0117
18068W        W35592   5.999   3.839  14.653 -0.2791  0.2695  0.1639
18069W        W35593   9.326   8.856  12.795  0.1756  0.0412  0.1827
18070W        W35594  10.419   2.701  15.108  0.1374  0.1149  0.4044
18071W        W35595   0.665  15.459   1.701 -0.0948 -0.3079  0.1219
18072W        W35596   5.340   3.338   1.244 -0.0171  0.0779  0.1951
18073W        W35597  16.248  12.819  15.935 -0.0141 -0.1267  0.0005
18074W        W35598  15.797   2.559  14.193 -0.2049 -0.0869 -0.2759
18075W        W35599  12.034   0.656   4.161  0.0543 -0.2341 -0.3177
18076W        W35600   0.661  16.519  17.148  0.0383 -0.0664  0.3975
18077W        W35601   8.673  14.208  16.316 -0.0202  0.2312  0.0595
18078W        W35602   4.543  14.402  15.266 -0.0452 -0.0014 -0.0305
18079W        W35603  12.676  11.162  14.808  0.0003  0.0263  0.0870
18080W        W35604  15.151  13.011   5.771  0.0799 -0.0279 -0.0574
18081W        W35605   5.573   1.246  16.734  0.1816  0.1616  0.0736
18082W        W35606  14.460   8.834   2.380  0.1818 -0.1833  0.0569
18083W        W35607   2.243   0.618  13.583  0.0854 -0.1620 -0.0068
18084W        W35608  11.720  10.693  13.089 -0.0296 -0.2579 -0.1308
18085W        W35609   2.053   8.339  14.265  0.0408  0.2397 -0.1195
18086W        W35610  13.808  14.288  16.839  0.1403 -0.0238 -0.2647
18087W        W35611  10.376  13.404  15.171  0.3323 -0.0443  0.1031
18088W        W35612   3.912   4.968  17.248  0.1238  0.1818 -0.0665
18089W        W35613   6.202   8.662  13.524 -0.2746 -0.0720 -0.3135
18090W        W35614  11.264  16.783  12.950 -0.1172  0.0260  0.0519
18091W        W35615   5.308   1.639   4.929  0.3316 -0.4542 -0.3453
18092W        W35616  13.649   1.665   4.413  0.2837 -0.1868 -0.0926
18093W        W35617  11.736   0.947  13.124  0.0702 -0.3696 -0.1493
18094W        W35618  16.114   4.033  14.365 -0.1484  0.1625  0.1778
18095W        W35619  11.774   9.964   2.414  0.4534 -0.2175 -0.0119
18096W        W35620   3.547  16.640   3.992 -0.2318 -0.0655 -0.1533
18097W        W35621   5.809  15.244  12.889  0.0117 -0.0371 -0.1848
18098W        W35622   2.755  16.677   4.426 -0.2984 -0.2834  0.0265
18099W        W35623  15.290  15.926  16.046 -0.0824  0.0243 -0.0221
18100W        W35624  10.772  11.605   4.189 -0.1862 -0.3545  0.2084
18101W        W35625  13.200   4.662  13.268  0.2077 -0.0399  0.4250
18102W        W35626  13.727  10.214  17.009  0.1540 -0.3916 -0.1745
18103W        W35627   5.268  14.328   3.194  0.2169  0.1645  0.1865
18104W        W35628  12.277   1.056  17.064  0.0534 -0.0347  0.0122
18105W        W35629  13.232  12.303  12.525 -0.1244  0.1016 -0.2594
18106W        W35630   5.589  10.292   5.432 -0.1279 -0.1637  0.0567
18107W        W35631  15.342   4.885   1.782 -0.3737 -0.1392  0.2228
18108W        W35632   6.936  16.560  14.422  0.1271  0.1592 -0.0110
18109W        W35633  12.109   3.875  16.068 -0.2176 -0.1861 -0.0920
18110W        W35634  14.385  11.326  15.606 -0.2954 -0.1282 -0.0171
18111W        W35635  16.913  14.244  13.232  0.1761 -0.1802 -0.0322
18112W        W35636   6.966   3.966   5.190  0.1992 -0.1429  0.2167
18113W        W35637   7.507   6.080   2.045 -0.3770 -0.1774 -0.0484
18114W        W35638  11.469   2.342  13.324 -0.2063  0.0774  0.1358
18115W        W35639  13.902   2.658  16.825  0.0987 -0.1687  0.0012
18116W        W35640  15.791   7.111  13.597 -0.2208  0.2280 -0.0737
18117W        W35641   1.765   7.520   2.767  0.0700  0.0888 -0.2159
18118W        W35642   0.937  14.969  16.232  0.0905 -0.0078 -0.0131
18119W        W35643   5.955   0.716  12.446 -0.4385 -0.1180  0.2042
18120W        W35644   7.079   4.640   1.826  0.0766  0.0918 -0.0602
18121W        W35645   4.044  15.118   3.625  0.2261  0.1107  0.0849
18122W        W35646   9.352  15.281   2.550  0.0880 -0.1113  0.4667
18123W        W35647   5.787  11.654   1.075  0.0268 -0.0609 -0.0658
18124W        W35648  12.225   9.420   4.224 -0.1310 -0.3599  0.1384
18125W        W35649   3.172  12.869  11.591 -0.0738 -0.1945  0.1507
18126W        W35650   0.141   5.262  16.048  0.0835 -0.0096 -0.3088
18127W        W35651   9.229  10.949   1.860  0.1619  0.0541 -0.0875
18128W        W35652   1.783  14.639  14.073  0.1605 -0.4886 -0.2586
18129W        W35653  12.129  14.516   4.189  0.1057  0.0264  0.0518
18130W        W35654   7.506   8.548  13.082 -0.2086  0.1380 -0.0119
18131W        W35655  13.196   9.409   3.128  0.1810  0.0542 -0.0762
18132W        W35656  10.733  10.818   3.125  0.1269  0.1973 -0.1076
18133W        W35657   2.959   7.026  14.900 -0.0377 -0.1303 -0.2317
18134W        W35658   5.858   5.767   1.654 -0.1601  0.0009 -0.0603
18135W        W35659  15.521  11.307  12.055 -0.1715  0.1866 -0.1341
18136W        W35660  16.578  11.157  13.799 -0.2416  0.1627  0.0385
18137W        W35661  13.970  14.039   5.405 -0.2511 -0.0507 -0.0824
18138W        W35662   8.555   7.916   2.531 -0.1183 -0.0643 -0.1409
18139W        W35663  16.328   3.493  13.013  0.1536 -0.1508  0.1663
18140W        W35664   3.469  11.764  16.291 -0.1620 -0.3978 -0.0950
18141W        W35665  11.977   4.753   6.460  0.0781 -0.2035 -0.0050
18142W        W35666   1.607   7.181  16.224 -0.1082 -0.1264  0.0465
18143W        W35667   0.953  14.181  16.965 -0.4564 -0.0573  0.0638
18144W        W35668  14.574   0.511  14.345 -0.3289 -0.1256 -0.0640
18145W        W35669  14.954   9.104  15.154  0.0605  0.1180  0.0610
18146W        W35670   6.531  12.281   0.297  0.0942 -0.0290  0.0624
18147W        W35671   0.691   9.292  13.459 -0.2071  0.0719 -0.2183
18148W        W35672  15.398   5.460  16.754 -0.1548 -0.1122 -0.0021
18149W        W35673  13.990   9.679   4.703  0.0395  0.0423 -0.0420
18150W        W35674   9.109  16.472  16.816 -0.0946  0.0698  0.0543
18151W        W35675  12.242  14.288  17.428 -0.4183 -0.1887 -0.3045
18152W        W35676   9.916  16.156   3.012  0.0727 -0.0414 -0.0824
18153W        W35677   3.897  13.446  16.984 -0.1062 -0.0867  0.0242
18154W        W35678   8.604  10.149   3.018  0.0387 -0.2530  0.0565
18155W        W35679  16.119  13.635  16.321 -0.3070 -0.3255 -0.0693
18156W        W35680  14.236  13.485  13.265 -0.1039  0.0380 -0.0315
18157W        W35681  15.557  13.643   3.723 -0.1377 -0.0530 -0.1476
18158W        W35682   1.317   1.930   5.145 -0.3554  0.3087  0.1564
18159W        W35683   0.473  14.104  12.226  0.0228  0.2972 -0.2262
18160W        W35684   5.750  15.457   1.881 -0.4101  0.1234  0.2053
18161W        W35685   5.207   9.440   1.578 -0.1384  0.0372  0.1835
18162W        W35686  13.105  17.074  17.612  0.0565 -0.3144 -0.2517
18163W        W35687  11.744   5.569   4.077 -0.0683 -0.1089 -0.2467
18164W        W35688   1.680   1.293   4.685  0.3500  0.0779  0.2555
18165W        W35689   3.360   7.288   4.783 -0.0286 -0.0817 -0.1393
18166W        W35690   1.772  15.759  12.895  0.0110  0.0305  0.1972
18167W        W35691  14.850  10.385   1.070  0.0387 -0.2506  0.1242
18168W        W35692  10.238  15.612  15.500  0.0487  0.1276  0.1224
18169W        W35693   0.127   1.387   4.121 -0.1566  0.1949 -0.2868
18170W        W35694  11.789   7.577  12.829  0.2858 -0.3060 -0.1752
18171W        W35695   9.075   3.646   3.348 -0.1037  0.0554 -0.2923
18172W        W35696   1.658  10.350  15.068  0.0889  0.0321  0.2547
18173W        W35697   7.858  13.002   6.079  0.4746 -0.0455 -0.0576
18174W        W35698   3.790  17.127  16.258 -0.4322  0.0371 -0.2569
18175W        W35699   5.842   5.386  13.475  0.1671  0.0072 -0.0196
18176W        W35700   0.740  16.672   5.057  0.0124  0.2585  0.0718
18177W        W35701  12.327   0.013  12.461  0.1743  0.0193 -0.4132
18178W        W35702   9.912   7.252   4.945  0.1896 -0.1351  0.3432
18179W        W35703   9.934   0.881   1.144 -0.1072  0.1467  0.2491
18180W        W35704   4.232  11.433  16.114 -0.0056  0.0138  0.0972
18181W        W35705   7.794  15.687   3.785  0.0284 -0.1849  0.0331
18182W        W35706  16.912   1.533  13.908  0.1268 -0.1154  0.3016
18183W        W35707  17.229   6.008  13.560  0.1685 -0.1314 -0.1068
18184W        W35708   9.921   2.577  13.695 -0.0035  0.1318  0.0484
18185W        W35709  14.738   0.022  17.624  0.0227 -0.1625 -0.0955
18186W        W35710   1.354   4.493  15.518  0.0009 -0.0815 -0.1884
18187W        W35711   1.541   3.006  15.531 -0.0332 -0.0309 -0.0340
18188W        W35712  16.569   3.458   0.606  0.1307 -0.0251  0.0840
18189W        W35713  13.630   3.479   2.669  0.1755 -0.3239 -0.0541
18190W        W35714   7.558  15.411   4.221 -0.3542 -0.3477  0.0497
18191W        W35715   7.716   0.109   1.397 -0.0673 -0.1843 -0.2919
18192W        W35716   8.024   1.085  15.124  0.1847 -0.2576 -0.2702
18193W        W35717  15.774  12.235  12.544 -0.1940 -0.0417 -0.1504
18194W        W35718  15.201  12.416   0.280 -0.0210  0.0484 -0.0088
18195W        W35719  10.316  16.046   0.009  0.0981 -0.0935 -0.1764
18196W        W35720   7.563   8.211   1.508 -0.3999 -0.3276 -0.3045
18197W        W35721  10.432   3.004  16.778 -0.1895 -0.0215 -0.0782
18198W        W35722  13.791  14.035  17.324 -0.1993  0.0146 -0.0538
18199W        W35723   4.358  12.785  15.789  0.0706 -0.1206 -0.0351
18200W        W35724   6.301   9.572   5.202 -0.1553  0.0818  0.0813
18201W        W35725  10.021   0.712  14.969  0.1472  0.0624 -0.2886
18202W        W35726  12.373  17.001   0.390  0.0447  0.1418 -0.0388
18203W        W35727   0.156  14.583  13.747  0.0438 -0.1280 -0.3149
18204W        W35728  10.141   6.630   5.486  0.1104  0.0314  0.1010
18205W        W35729   6.296   0.311  12.650  0.4040 -0.0561 -0.3989
18206W        W35730   5.668  14.809  16.287 -0.0529  0.2503  0.0732
18207W        W35731   6.377   6.280   1.757 -0.3051  0.6253  0.0357
18208W        W35732   2.427   0.369   0.047  0.0803  0.1294 -0.0306
18209W        W35733   1.424   7.008   2.108 -0.1595 -0.1216 -0.0634
18210W        W35734   4.347   5.370   3.267  0.0737 -0.0945 -0.2891
18211W        W35735   6.737   3.656   2.733  0.1748 -0.1191 -0.1169
18212W        W35736  13.174  12.815  15.493  0.0077 -0.1080  0.2148
18213W        W35737   4.837   3.487   2.350  0.0684 -0.1896 -0.1182
18214W        W35738   9.815  14.787   0.755  0.2073  0.1687 -0.0599
18215W        W35739   0.250   2.042   1.308 -0.1108 -0.0740 -0.1332
18216W        W35740   4.502   1.114   1.476 -0.3031 -0.0682 -0.1075
18217W        W35741   2.494  10.156  12.493 -0.0222 -0.1676  0.1682
18218W        W35742   4.569   9.453   0.584 -0.1618  0.1582 -0.1264
18219W        W35743   8.179   2.320   4.182  0.1617 -0.3495  0.1807
18220W        W35744  10.265   4.364   6.139  0.3831  0.1660 -0.2429
18221W        W35745  13.684  17.173   3.985  0.2407 -0.1980  0.1290
18222W        W35746   2.173   5.697   1.920 -0.0318 -0.0334 -0.4179
18223W        W35747   2.539   4.145   2.895 -0.1083 -0.1341 -0.1012
18224W        W35748   4.708   4.267   0.372 -0.0406 -0.1034  0.0143
18225W        W35749  10.224  16.454  17.098 -0.0985  0.0624  0.0475
18226W        W35750   2.011  13.712   1.887  0.2758  0.3190  0.2969
18227W        W35751  14.245   3.418  16.350  0.3382  0.3591 -0.1343
18228W        W35752   6.902   8.641   3.439  0.2554 -0.0348  0.0349
18229W        W35753   9.204  14.572  14.979  0.0343 -0.1483  0.2096
18230W        W35754  12.440   6.762   5.239  0.1034  0.0577 -0.0400
18231W        W35755  15.907   4.704   5.375 -0.0732 -0.0044 -0.4574
18232W        W35756  15.287   1.981  13.232  0.2019  0.1252  0.1375
18233W        W35757   1.077  12.627   0.924 -0.1271  0.4378 -0.1473
18234W        W35758   2.775   3.959  16.667  0.0129  0.1921  0.0441
18235W        W35759   6.188  16.066  14.533 -0.0388 -0.0126  0.0498
18236W        W35760   1.777  17.092  14.614 -0.2693 -0.3954 -0.0977
18237W        W35761  16.614  11.611   0.340 -0.2691  0.0730  0.0997
18238W        W35762   7.002  14.703   3.113  0.0746 -0.1251 -0.0685
18239W        W35763   0.815  11.406  12.621 -0.1763 -0.0293  0.0711
18240W        W35764  11.081  16.970  13.639  0.0525 -0.1992 -0.3711
18241W        W35765  11.900  12.696  15.045 -0.0500  0.1495 -0.1722
18242W        W35766  16.248  10.176   3.534  0.3031  0.4935 -0.2532
18243W        W35767   5.258   4.648  13.795 -0.2431 -0.0638  0.1452
18244W        W35768   1.841   0.019   5.241  0.0954 -0.3439 -0.0211
18245W        W35769   7.149   1.074  14.753  0.1400  0.0328  0.0590
18246W        W35770  12.700  13.594  13.512 -0.2809 -0.1042 -0.2853
18247W        W35771  10.946   0.488  14.157 -0.0170 -0.1045 -0.0918
18248W        W35772  16.718  10.343   2.705  0.0809  0.0579 -0.0589
18249W        W35773  15.193  15.305  14.280 -0.0010 -0.2086  0.0165
18250W        W35774   5.352   8.809  13.817  0.0150  0.5513  0.1524
18251W        W35775  15.066  11.530   6.430 -0.4212  0.4147  0.2956
18252W        W35776   3.193   4.331  14.757 -0.3262 -0.0311  0.1073
18253W        W35777  12.971   6.312   2.081 -0.0213  0.1192 -0.2852
18254W        W35778  17.146   4.182  12.019  0.1293  0.1065 -0.1819
18255W        W35779   9.382  11.217   2.269 -0.2016 -0.0453  0.0696
18256W        W35780   1.408  16.994  14.237  0.1175  0.3277 -0.0663
18257W        W35781  16.158  11.210  13.389 -0.0392  0.0237  0.1731
18258W        W35782  12.416   5.859  14.586  0.2191  0.1926 -0.0071
18259W        W35783  16.032   7.727  12.138 -0.0939  0.0811 -0.1539
18260W        W35784   5.799   0.111   3.356 -0.0699 -0.1692  0.0175
18261W        W35785  15.795  16.854   2.050 -0.1797 -0.1705 -0.1610
18262W        W35786  11.892  14.809  12.456 -0.0514  0.1600  0.1116
18263W        W35787   8.678  15.283  13.938  0.0917 -0.2053 -0.0793
18264W        W35788   8.051  15.635   0.864 -0.0610  0.1194  0.0767
18265W        W35789  11.830  14.901   4.718  0.3193 -0.0696 -0.0045
18266W        W35790   0.553  11.470   0.536  0.2780 -0.2349  0.0469
18267W        W35791  13.174   2.854  16.658  0.0771 -0.0097  0.2633
18268W        W35792  15.853  15.816  17.126 -0.0861  0.1692 -0.2684
18269W        W35793   0.747   3.585   4.121 -0.0317  0.0412 -0.2771
18270W        W35794  14.707   5.806  15.425  0.2469 -0.0767  0.0143
18271W        W35795   4.130  12.499  12.855 -0.0688  0.0609 -0.3058
18272W        W35796   9.010   9.691  12.519  0.1489 -0.0468 -0.0736
18273W        W35797  13.393   9.910   2.924  0.0950  0.1814  0.1433
18274W        W35798  16.619  12.857   1.183 -0.3559 -0.3530 -0.0773
18275W        W35799   4.808  10.429   0.831  0.2018 -0.5137  0.1003
18276W        W35800   2.748   7.134   5.599 -0.0318  0.2005  0.1501
18277W        W35801   8.356  12.604   2.728  0.2300  0.0386  0.0287
18278W        W35802   6.198   1.588   5.959 -0.2611 -0.0545 -0.0632
18279W        W35803   2.944   9.798  12.345  0.0507  0.1286 -0.0182
18280W        W35804   9.735   0.549  14.640  0.1060  0.0899 -0.3252
18281W        W35805  10.261  15.434   5.530  0.4347 -0.0834  0.1519
18282W        W35806   2.096   1.554  15.635 -0.0935 -0.1195  0.0815
18283W        W35807  12.128  15.107  17.297 -0.0987  0.3495  0.1456
18284W        W35808   6.841   9.754   1.030 -0.1257  0.0677  0.0396
18285W        W35809   1.409   4.007   1.784  0.2015  0.0072 -0.1922
18286W        W35810   2.473   8.922   3.814 -0.0447  0.1586  0.2695
18287W        W35811   5.876  14.531  14.942 -0.0998  0.5053 -0.0127
18288W        W35812  17.125  15.635  12.913  0.3982  0.1449 -0.1900
18289W        W35813  11.438  12.165  16.678  0.2397 -0.2143  0.2654
18290W        W35814   5.820  12.179   3.193  0.1374  0.1580 -0.0836
18291W        W35815  10.260  16.220   4.110  0.0595  0.0771  0.3130
18292W        W35816   1.308   9.275   1.477 -0.0079  0.2775  0.0212
18293W        W35817   9.901   0.615  15.993  0.0688  0.0480  0.2828
18294W        W35818  10.601  10.493   1.892 -0.1999  0.0067  0.1819
18295W        W35819   2.424  15.522  17.552  0.0951 -0.1433 -0.1493
18296W        W35820   0.194   9.247   0.232 -0.2183 -0.2009 -0.0798
18297W        W35821  13.288   9.991  13.707 -0.0573 -0.3660 -0.1448
18298W        W35822   4.255   7.472   6.787 -0.2229 -0.5092 -0.1180
18299W        W35823   7.698  16.721  17.473 -0.3170  0.1310  0.0651
18300W        W35824   2.392  15.471  13.031 -0.1162  0.2037 -0.2157
18301W        W35825   1.015   5.980  13.139 -0.3032 -0.2115  0.0633
18302W        W35826  15.111  12.513   1.758 -0.1949 -0.1793  0.0551
18303W        W35827  11.401  15.881   6.325 -0.3418  0.2069  0.3708
18304W        W35828   1.216  15.147  14.770 -0.1883  0.2831  0.1869
18305W        W35829  12.686   1.206  14.555  0.0496 -0.1059  0.2699
18306W        W35830   2.873  11.303   0.810 -0.1246  0.2355 -0.2206
18307W        W35831   3.308   1.506  15.421 -0.1748 -0.0416 -0.2143
18308W        W35832  16.141  11.457   3.178 -0.0190  0.0176  0.0663
18309W        W35833   7.633   3.809   4.610  0.0162 -0.0320 -0.0009
18310W        W35834   8.664   5.357  15.976 -0.1376  0.1480  0.0974
18311W        W35835   1.491  10.631  16.025  0.1177  0.1918 -0.0392
18312W        W35836  11.044   0.345   4.877 -0.1217  0.0269  0.0741
18313W        W35837   5.259  10.056  12.426  0.0874 -0.0016  0.1980
18314W        W35838  10.463   5.761   4.696 -0.3071 -0.2021 -0.2368
18315W        W35839   8.619  11.344  14.704  0.0560  0.1493 -0.0620
18316W        W35840   8.325   9.729   5.692  0.5739 -0.2000  0.0627
18317W        W35841   9.506   0.001  13.809 -0.0520  0.2145  0.2110
18318W        W35842  15.015   6.751   2.848  0.1419 -0.1859  0.2462
18319W        W35843  16.900   7.805  16.851  0.0120 -0.1687  0.1736
18320W        W35844  15.428   2.023  12.142  0.1993 -0.2178  0.2706
18321W        W35845   6.273  15.628   5.444  0.2507  0.4010  0.0740
18322W        W35846   9.204   7.085  15.935 -0.0670  0.0397  0.3113
18323W        W35847   5.308   2.991   1.611 -0.1287 -0.2233  0.1281
18324W        W35848   6.447  13.189   3.871  0.2634 -0.2077  0.0212
18325W        W35849   7.165   2.529   1.514 -0.2006  0.0089 -0.0168
18326W        W35850  14.934   1.207   4.337 -0.1325  0.1668  0.2117
18327W        W35851  13.797   4.052   3.363 -0.0363 -0.0408 -0.1411
18328W        W35852   4.581   7.784  14.742 -0.1850  0.0232  0.0581
18329W        W35853  10.308   9.763  14.022 -0.0328 -0.3635  0.0093
18330W        W35854   9.481  13.717  12.063  0.2158  0.0776 -0.0242
18331W        W35855  13.224   4.418  13.822  0.2008 -0.1358  0.0699
18332W        W35856  13.021   9.569   2.553 -0.2143 -0.0317 -0.4722
18333W        W35857   2.380   0.397  17.210  0.0084  0.1613  0.2407
18334W        W35858   4.126   1.878   3.254  0.3714 -0.3201  0.2440
18335W        W35859   0.434   5.637  12.376 -0.3673 -0.0880  0.0441
18336W        W35860   3.492  11.443   4.522 -0.0753  0.0805  0.1044
18337W        W35861   8.238   7.522   4.831  0.2505 -0.0565  0.1628
18338W        W35862   3.866  13.956   1.537 -0.0368 -0.1044  0.1184
18339W        W35863  16.066   6.655   1.911 -0.1408  0.0527  0.0508
18340W        W35864   4.183  15.395  13.114  0.0404 -0.1429  0.2057
18341W        W35865   8.330  12.971   2.266 -0.0371 -0.2044 -0.0940
18342W        W35866   9.866  14.341  12.602 -0.0119  0.0606 -0.4088
18343W        W35867  13.497  15.920  15.005 -0.0074  0.2050 -0.0471
18344W        W35868   2.986   5.370   5.892  0.0148  0.3598  0.1030
18345W        W35869  12.566  17.050  13.248 -0.0679  0.1061  0.1474
18346W        W35870   1.657  12.767   5.423 -0.2809  0.1564  0.1929
18347W        W35871  11.370   8.629  12.330  0.0430 -0.4315 -0.2327
18348W        W35872   3.288   0.586   2.642 -0.0550 -0.0217  0.0443
18349W        W35873   0.827   0.424   3.459  0.0225 -0.0635 -0.1658
18350W        W35874   9.987   5.187  11.572 -0.0890  0.0863 -0.1070
18351W        W35875   9.129   0.584  13.899  0.3025  0.4337 -0.0651
18352W        W35876   7.471  15.505   1.172 -0.0883 -0.2933  0.1904
18353W        W35877  13.974   2.107   2.928  0.3082 -0.1438  0.2321
18354W        W35878  15.586  10.839  15.563 -0.1286 -0.0782 -0.1039
18355W        W35879   9.414  12.802   5.260 -0.0686  0.0674  0.0311
18356W        W35880   6.029   9.962   4.940 -0.0330 -0.1125 -0.0154
18357W        W35881   6.179  10.538  14.080 -0.4691 -0.0468  0.0400
18358W        W35882   0.133   0.714   1.969  0.2769  0.0464  0.4458
18359W        W35883   6.358  15.555  13.117  0.0257  0.0145 -0.3519
18360W        W35884   3.200   2.420  15.220  0.0222  0.0712 -0.0477
18361W        W35885   5.290   3.853  17.548 -0.1593  0.1111  0.0333
18362W        W35886  15.533  15.490   2.051 -0.0126 -0.1493 -0.0334
18363W        W35887  12.815  11.844   1.334  0.1541  0.1287  0.1309
18364W        W35888   6.460  10.240  17.215  0.0212  0.2676  0.1111
18365W        W35889   5.698  14.400  15.914  0.2450  0.0142  0.0742
18366W        W35890   3.945   0.909  12.938 -0.0397  0.1043  0.0190
18367W        W35891   1.324   2.146  16.593 -0.1889 -0.0926 -0.5497
18368W        W35892   5.664   2.542   0.771  0.2003 -0.1192 -0.1978
18369W        W35893  12.538  13.452   2.215  0.2587 -0.1912  0.2629
18370W        W35894   3.672  16.758  13.224 -0.1361  0.3017  0.1708
18371W        W35895   1.460  11.399   4.634 -0.2041 -0.0125 -0.1020
18372W        W35896  12.561   0.780   4.119  0.3447  0.2151 -0.0948
18373W        W35897   4.280  12.491  13.949 -0.1577  0.0868 -0.0980
18374W        W35898   7.588   8.711   0.408  0.1497 -0.1669 -0.1824
18375W        W35899   5.738  15.594  14.659 -0.0280  0.0437 -0.2108
18376W        W35900   9.271   6.695   1.944 -0.0458  0.0440 -0.1637
18377W        W35901   8.315  16.071  16.452 -0.0174 -0.0324 -0.3790
18378W        W35902  13.652   9.626   3.248  0.0828  0.2589 -0.2196
18379W        W35903  11.575   4.791   2.036  0.0446  0.0745 -0.1560
18380W        W35904  13.278  13.923  14.157 -0.1630  0.1602 -0.0921
18381W        W35905  16.900   5.578   1.828 -0.0032  0.0911  0.0357
18382W        W35906   5.360  15.585   3.432  0.0910  0.2147  0.3101
18383W        W35907  15.752   9.736  16.202 -0.2684 -0.0215 -0.0387
18384W        W35908   6.223   4.367   1.565 -0.0907  0.3015 -0.0745
18385W        W35909   2.595   4.903  16.792  0.3586  0.0122 -0.0420
18386W        W35910  16.561   9.306   1.918  0.1330 -0.0621  0.1934
18387W        W35911   9.019   5.978   4.384  0.0398  0.0242 -0.1448
18388W        W35912  16.367   5.815   4.922  0.0176 -0.0320  0.0067
18389W        W35913   7.074  10.728   5.471  0.0896  0.0276 -0.4336
18390W        W35914  16.402   3.669  13.468 -0.0733  0.1733  0.0438
18391W        W35915   6.113   7.950  12.193  0.4805  0.0272 -0.1198
18392W        W35916  10.841   9.880  13.955  0.1664 -0.0358  0.2607
18393W        W35917   8.380  16.910   0.453  0.1666  0.2816 -0.1206
18394W        W35918  15.859   4.865   1.125 -0.2610 -0.3167 -0.0362
18395W        W35919   4.652  14.324   0.154 -0.1136 -0.0878 -0.1922
18396W        W35920  11.492  16.705  16.983 -0.0289 -0.0309 -0.1985
18397W        W35921  13.280   6.181   0.631 -0.1307  0.2843 -0.0559
18398W        W35922   4.537  10.845  15.387 -0.4138  0.0915  0.4086
18399W        W35923   8.651  12.215  16.605  0.1134 -0.0371 -0.0174
18400W        W35924   6.538   3.371  13.031  0.3531 -0.1042  0.0918
18401W        W35925  14.914  10.938  16.777 -0.0593 -0.2630 -0.1702
18402W        W35926   4.341   0.951   4.791 -0.2139  0.0965  0.1423
18403W        W35927   8.372   0.618  16.561  0.0161  0.4535 -0.2352
18404W        W35928   5.232  13.853   3.400  0.0931  0.1510  0.3148
18405W        W35929   0.526   2.517   3.281  0.3516  0.0336 -0.1203
18406W        W35930  15.326   7.212   3.104  0.0777 -0.0013  0.0639
18407W        W35931   7.182   2.763   5.029 -0.3866 -0.1318  0.3339
18408W        W35932   9.935   1.787  17.273  0.0488 -0.2762  0.0672
18409W        W35933   2.471   7.770   1.509  0.1119 -0.1840  0.1635
18410W        W35934  10.403   9.112  14.580 -0.1318  0.2273 -0.0469
18411W        W35935  12.997  14.411  17.388 -0.0607 -0.2687  0.1761
18412W        W35936  11.270   4.836  12.904  0.0844 -0.1287  0.1563
18413W        W35937   4.071   4.928   0.037 -0.1505  0.1370 -0.0863
18414W        W35938   4.091   4.154   1.219 -0.1360  0.1224  0.0650
18415W        W35939  13.157   3.001   0.542  0.0187  0.0036  0.0219
18416W        W35940   6.989   7.798  16.690  0.3809 -0.3387  0.0880
18417W        W35941   2.314   2.242   4.969  0.2741 -0.2771  0.0114
18418W        W35942   2.906  13.715  13.664 -0.3677  0.1003  0.2903
18419W        W35943   9.316  15.373   4.927 -0.4347  0.2233  0.1156
18420W        W35944  14.917   7.169  14.009 -0.2895  0.2303 -0.0388
18421W        W35945   1.098  15.035  12.921 -0.0742  0.1056  0.1725
18422W        W35946   3.701   4.192   0.182 -0.1358  0.2584 -0.0687
18423W        W35947   3.270  14.385  15.711 -0.0461  0.0319 -0.3846
18424W        W35948   9.231   7.987  17.025 -0.0491  0.0070  0.1765
18425W        W35949  14.735  14.649   1.168  0.1576  0.1151 -0.2368
18426W        W35950  15.547   5.883   4.324  0.0720  0.0925 -0.3388
18427W        W35951   1.169  14.483   0.092 -0.1673 -0.1210  0.1613
18428W        W35952   0.430  10.547   2.218  0.1231 -0.0186 -0.0103
18429W        W35953   4.210   5.133  12.651  0.1362 -0.2928  0.0419
18430W        W35954   3.069   3.930  17.067  0.0343  0.1655 -0.0427
18431W        W35955   8.025   0.341   3.082  0.0938  0.0659 -0.3026
18432W        W35956  16.462   1.265  13.760  0.1689  0.0235 -0.0968
18433W        W35957   9.004   2.498   5.744 -0.0600  0.1565  0.2377
18434W        W35958  16.888   6.103  12.684  0.1683  0.4182 -0.0522
18435W        W35959  17.184   2.163  12.705 -0.4939 -0.1279  0.3292
18436W        W35960   2.289  10.924   4.388 -0.1048  0.1642 -0.1183
18437W        W35961  12.596  10.370  17.309 -0.1390  0.0149 -0.1317
18438W        W35962  10.114   1.123  17.566 -0.0896 -0.0035  0.1506
18439W        W35963   0.071  11.524  12.184 -0.2558 -0.2389  0.2511
18440W        W35964  15.509   8.254   3.774 -0.3012 -0.2627  0.2622
18441W        W35965   1.279  11.802   0.206 -0.0879  0.0539 -0.0274
18442W        W35966   8.270  10.821  14.335 -0.0978 -0.1119  0.1010
18443W        W35967  15.411   3.948  12.171 -0.0074  0.1215 -0.0449
18444W        W35968   5.963   4.063  12.927  0.0117 -0.4127  0.0939
18445W        W35969  14.595  13.823  13.247 -0.1187  0.0295  0.1702
18446W        W35970  15.929   7.356   2.453 -0.1684  0.0187  0.0061
18447W        W35971   9.957   7.204   4.402  0.0466  0.0941  0.1087
18448W        W35972   9.493  14.211  15.797 -0.0947  0.3307  0.0001
18449W        W35973   4.456   9.358   2.392 -0.0948 -0.0358 -0.0279
18450W        W35974  10.285  11.973   3.671  0.1328 -0.0098 -0.0373
18451W        W35975  16.925   0.259  16.865  0.0614 -0.2224 -0.2529
18452W        W35976  14.596   5.336  12.979  0.1138 -0.1254  0.0826
18453W        W35977   3.083   3.584   1.917 -0.2702  0.2139 -0.3371
18454W        W35978  15.278  10.359  15.719 -0.0416 -0.0001  0.0252
18455W        W35979  11.246   2.980  15.098 -0.0275 -0.1071 -0.5609
18456W        W35980  14.468   5.598   2.919 -0.1412  0.0313  0.1292
18457W        W35981  13.841  16.510  16.787  0.0107 -0.1045  0.2115
18458W        W35982   0.299   7.303  13.596  0.0250 -0.0041 -0.0964
18459W        W35983  15.512   1.683  17.053 -0.1180  0.4577 -0.0327
18460W        W35984  14.367   2.473   5.451  0.1759  0.2616  0.2189
18461W        W35985  10.159   5.986   2.839  0.2066 -0.1639  0.2191
18462W        W35986  16.690  16.003  16.187 -0.2055 -0.5574  0.1376
18463W        W35987  11.471  14.345   5.942 -0.0102  0.0476  0.0792
18464W        W35988   5.923  16.292   3.919  0.2432  0.1550  0.0326
18465W        W35989  13.585  14.651   3.313  0.1339  0.1775  0.1598
18466W        W35990  15.888   2.497   4.009  0.0533  0.0894  0.2847
18467W        W35991  11.145  11.694  15.101  0.0062 -0.1401  0.2225
18468W        W35992  17.224   8.736  13.309  0.2630  0.0660 -0.0538
18469W        W35993   8.178  14.932   5.226 -0.1860  0.1966 -0.1170
18470W        W35994  16.491   6.453   0.531  0.0226 -0.1350  0.0183
18471W        W35995  11.736   6.278   0.903 -0.0822 -0.2214  0.1528
18472W        W35996   6.161  13.110   0.818 -0.1635  0.2138 -0.3063
18473W        W35997  14.600  11.659  11.507  0.0791  0.1274  0.1520
18474W        W35998  13.178  12.927  16.009  0.0073 -0.0142  0.0940
18475W        W35999  13.954  14.906  11.086  0.2989 -0.0820  0.0792
18476W        W36000  11.935  11.100   1.493 -0.2869 -0.1680  0.2991
18477W        W36001   8.223   3.051   3.047 -0.0513 -0.3157 -0.2235
18478W        W36002   5.319   0.777  11.313  0.0767  0.1232 -0.0090
18479W        W36003   5.933  11.414  12.939 -0.0373  0.1208 -0.3561
18480W        W36004  13.315  12.782   3.022 -0.1782 -0.2144  0.0884
18481W        W36005  15.713   5.470   0.034  0.3524 -0.0694 -0.0574
18482W        W36006  14.070  14.132  15.940 -0.0009  0.2627  0.1863
18483W        W36007   2.925   7.811   3.341 -0.3847 -0.1330  0.1761
18484W        W36008   2.203  11.388   0.816 -0.0449 -0.1834 -0.3250
18485W        W36009   5.868   1.126  14.975  0.0428 -0.1068 -0.0243
18486W        W36010   0.393   7.209  17.286  0.2878  0.0452 -0.0980
18487W        W36011  11.842   1.935   5.424 -0.1715  0.1535 -0.1398
18488W        W36012  16.405  13.678   2.337 -0.0491  0.0465  0.0954
18489W        W36013   4.331   5.854  17.363  0.0586 -0.0941  0.0866
18490W        W36014   2.708  12.138  17.225  0.0085  0.2705 -0.1392
18491W        W36015   0.601   4.045   4.011 -0.0080 -0.0624 -0.0128
18492W        W36016  10.035   3.148   1.712  0.0073  0.1106  0.1548
18493W        W36017   3.089  17.051   4.213 -0.2213  0.1027  0.1914
18494W        W36018  12.932  15.822  14.329  0.1758 -0.2520 -0.1728
18495W        W36019  14.034   3.144   3.575  0.0828  0.0644 -0.3013
18496W        W36020  11.065   0.149  12.917 -0.0359  0.0682 -0.1495
18497W        W36021   5.064  12.272  17.564  0.1940 -0.2143  0.0675
18498W        W36022   2.774   6.579  11.793  0.0579 -0.0754  0.2216
18499W        W36023   2.658   6.742   0.043  0.1151  0.0502 -0.1605
18500W        W36024  12.408  14.383   1.719 -0.2928 -0.2443 -0.0935
18501W        W36025  11.531  12.040  15.641  0.0176 -0.0329 -0.0514
18502W        W36026   5.616  14.162  16.757  0.2844 -0.2947 -0.1202
18503W        W36027  13.255   2.822   4.996 -0.0322  0.0747  0.2309
18504W        W36028  15.957   5.875  17.461  0.2368 -0.0240  0.1286
18505W        W36029  11.635   6.650   5.612  0.0582 -0.0048 -0.2446
18506W        W36030   5.641  16.849   2.714 -0.1063  0.0061  0.0581
18507W        W36031   7.527  12.361   0.992  0.1259  0.0733 -0.0046
18508W        W36032  15.041  10.553  13.584  0.2097 -0.1305 -0.1708
18509W        W36033   8.331   6.855  12.497 -0.0125  0.0412 -0.0755
18510W        W36034  16.904   2.526   4.104  0.1839  0.0770  0.1410
18511W        W36035   4.132   0.485   2.853  0.4111  0.2190 -0.0205
18512W        W36036   9.232   1.108  16.510 -0.0705 -0.1564  0.1139
18513W        W36037   7.747   5.125   4.858 -0.2150  0.1876 -0.1144
18514W        W36038  14.673  11.704  12.088  0.3036 -0.0876 -0.1865
18515W        W36039  14.290   7.792  14.460  0.2113  0.0765 -0.0286
18516W        W36040  13.339   1.425  12.678 -0.0627  0.0183  0.0751
18517W        W36041   8.967   2.862   3.342  0.0576  0.0874 -0.0298
18518W        W36042  10.815   6.598   2.308  0.2671 -0.1748 -0.2656
18519W        W36043   1.726  12.573  16.039  0.0243 -0.0883 -0.2215
18520W        W36044   7.787  11.804  15.151 -0.0063 -0.1258  0.0260
18521W        W36045  16.632   9.950  14.435  0.0234 -0.2810  0.0015
18522W        W36046  13.649   8.944  17.343  0.0429  0.0930 -0.4087
18523W        W36047   4.473  15.528   5.095  0.1220 -0.0895  0.3975
18524W        W36048  14.366  10.629  14.827  0.0773  0.3899  0.0648
18525W        W36049   8.453  16.435  15.871 -0.0127  0.0115  0.0241
18526W        W36050   5.107  11.799  16.389  0.0290  0.3743  0.0505
18527W        W36051   3.866   5.495   3.215  0.2507 -0.0378  0.0955
18528W        W36052   3.243   6.267   4.451 -0.0106  0.0034 -0.1166
18529W        W36053   7.899   0.439   4.607 -0.0296 -0.0046 -0.0783
18530W        W36054   7.242   2.841  16.862  0.0624 -0.3552 -0.2211
18531W        W36055   6.248   4.160   3.869  0.1731  0.0833 -0.1271
18532W        W36056   3.148   3.798   3.770  0.0728 -0.0578 -0.1942
18533W        W36057   9.650   1.140   3.048 -0.2378 -0.0944  0.1246
18534W        W36058   7.282   5.192   3.438 -0.0768 -0.0053  0.0278
18535W        W36059  14.988   0.615   3.664 -0.3060  0.0295  0.2367
18536W        W36060  16.316  16.790  17.487 -0.0489  0.1785 -0.2499
18537W        W36061   2.675   1.892   3.860 -0.3168 -0.0539 -0.1944
18538W        W36062   9.851  16.175  14.747 -0.3210  0.1216  0.0158
18539W        W36063   9.299   7.458   3.953 -0.0603  0.0650 -0.1989
18540W        W36064   2.328   2.828  12.426 -0.1485 -0.0888  0.0730
18541W        W36065   2.518   6.261  16.033 -0.2487  0.2341 -0.3053
18542W        W36066   7.745  13.010   2.225  0.5058 -0.0561  0.3435
18543W        W36067  10.759   5.928  17.168  0.0252 -0.0569 -0.0089
18544W        W36068  14.322   9.119  16.787 -0.4622  0.0595  0.0468
18545W        W36069   3.561  14.799  15.312  0.0046  0.1307  0.1258
18546W        W36070   5.938   5.586  14.915 -0.2318 -0.0539 -0.2765
18547W        W36071  13.045  13.385  14.746 -0.1336 -0.0678  0.1917
18548W        W36072   6.008   8.206  14.030 -0.0052 -0.1738 -0.0749
18549W        W36073   5.316  12.626  12.383 -0.1134  0.1200 -0.0801
18550W        W36074   5.955  13.297   0.306  0.5108  0.1625  0.0710
18551W        W36075  15.426   5.880  13.284  0.0725  0.0304  0.1239
18552W        W36076   1.955  15.225  16.646  0.1448 -0.1415 -0.0196
18553W        W36077   8.184   7.429   5.420 -0.0437 -0.0696 -0.2869
18554W        W36078   0.640   4.633  16.164  0.1940 -0.0790  0.0422
18555W        W36079   3.487   9.647   4.905 -0.2429 -0.0557 -0.1382
18556W        W36080   1.157  11.651   4.196 -0.0902  0.0392 -0.0338
18557W        W36081   7.974  11.121   0.786 -0.3518 -0.3514 -0.1825
18558W        W36082  16.696   3.105   1.396  0.1043 -0.0405 -0.1890
18559W        W36083  12.901  10.035  13.424  0.2389  0.0763  0.1343
18560W        W36084  14.505  15.019  16.533 -0.0662  0.3078 -0.0148
18561W        W36085   6.890  12.062  12.331  0.0761 -0.0713 -0.1102
18562W        W36086   4.099   3.794   2.279 -0.0142  0.0531  0.0439
18563W        W36087   1.344   7.268   4.309  0.3510  0.0682  0.0947
18564W        W36088   4.856  11.034   2.794  0.0087 -0.0734 -0.0788
18565W        W36089   6.518  12.468   2.686  0.3559  0.1182 -0.0246
18566W        W36090   1.418   5.583   1.264 -0.2736  0.1722  0.0653
18567W        W36091   1.046  10.455  16.357 -0.5240 -0.1464  0.0009
18568W        W36092  13.498  13.070   4.423 -0.3811  0.0016  0.0100
18569W        W36093  17.119   6.749  16.073 -0.2936 -0.2062 -0.0829
18570W        W36094  17.137  15.294  13.300  0.1727  0.0571 -0.1946
18571W        W36095   9.203  12.542   3.729  0.0274 -0.0693 -0.2206
18572W        W36096   1.961  12.433   4.518 -0.3131  0.0716  0.0886
18573W        W36097   1.731   3.835  15.052 -0.0440  0.1580 -0.0531
18574W        W36098   7.870   4.579  13.363  0.3667 -0.0650 -0.2588
18575W        W36099   9.980   4.421  12.547  0.1079  0.0159  0.2949
18576W        W36100   9.573  16.225   4.597 -0.2758 -0.3128 -0.1501
18577W        W36101  16.481   2.867   0.883 -0.0454 -0.2388  0.0342
18578W        W36102   8.572   5.220   1.976 -0.0547 -0.0329  0.0142
18579W        W36103   7.419  13.074  14.644  0.0439 -0.1739 -0.0025
18580W        W36104   3.584   3.950   2.574  0.2542 -0.0101  0.3224
18581W        W36105   4.162   4.701   2.656 -0.2456 -0.1770 -0.0597
18582W        W36106  13.621   9.545   1.604 -0.0906 -0.2567 -0.0257
18583W        W36107  15.394   9.197   3.848  0.0357 -0.1509 -0.0608
18584W        W36108  11.742   4.201   0.189  0.0370  0.0887 -0.0447
18585W        W36109   5.156  13.403  16.591  0.2868  0.0010 -0.0731
18586W        W36110   8.602   4.665   1.937 -0.1356  0.0356 -0.3334
18587W        W36111   6.396  11.257  12.989  0.0024 -0.0616 -0.0638
18588W        W36112   8.793   7.423   3.905  0.4436 -0.2046  0.0953
18589W        W36113  11.028   9.707  13.499 -0.0302 -0.0566 -0.0013
18590W        W36114   4.589  11.504  14.770 -0.2025  0.3268 -0.1111
18591W        W36115   0.847  10.110   0.040 -0.1411  0.1309  0.2175
18592W        W36116   4.840  14.328  16.221  0.0254  0.3605 -0.1342
18593W        W36117   0.853   8.838  13.454 -0.0932  0.1399  0.0325
18594W        W36118  16.945  12.266  11.239  0.1250 -0.1374 -0.2504
18595W        W36119  16.435   5.075  16.957 -0.1879  0.2827 -0.2161
18596W        W36120   2.945   2.719  13.807 -0.2710  0.1944 -0.3378
18597W        W36121   9.533   0.867  16.184 -0.1720  0.3254 -0.0837
18598W        W36122   0.465   3.319   4.553  0.1904 -0.1879  0.0108
18599W        W36123   0.536  10.055   3.348  0.1556  0.4020  0.1217
18600W        W36124  14.315  15.483  16.691 -0.0651 -0.1715  0.1572
18601W        W36125   4.971  12.289  12.525 -0.0874 -0.3320 -0.1958
18602W        W36126  12.382   9.956  17.649 -0.0768  0.0648 -0.0655
18603W        W36127  14.678  10.638   4.019  0.3596 -0.1599 -0.2974
18604W        W36128   9.598   6.029  13.407 -0.0374 -0.1451 -0.1543
18605W        W36129  15.502   7.770  14.322 -0.0382 -0.2704 -0.1257
18606W        W36130   1.725   9.411  15.770  0.0760  0.0380 -0.0719
18607W        W36131   5.954   3.307  14.691 -0.0941 -0.1409 -0.1426
18608W        W36132  14.693  14.409  17.230  0.2693 -0.1902  0.0725
18609W        W36133  16.916  11.741   2.456  0.0272 -0.3609  0.0538
18610W        W36134   3.641   7.486   5.159  0.2030  0.1135 -0.2691
18611W        W36135  14.697  10.509  14.469 -0.0791  0.0666  0.0643
18612W        W36136  17.106  14.643  15.154  0.1461  0.1215 -0.2241
18613W        W36137  10.852   2.734  13.480  0.0767 -0.1007  0.0099
18614W        W36138   1.910   6.401  13.019 -0.0726 -0.0672  0.0956
18615W        W36139  11.847   8.196   3.121 -0.3225 -0.0618  0.2627
18616W        W36140   6.797   5.492   3.520 -0.1655  0.0505 -0.1671
18617W        W36141   1.139   0.187  17.047  0.0448  0.0076  0.1766
18618W        W36142   4.829  13.207   4.953 -0.3179 -0.1597  0.0229
18619W        W36143   0.904   9.610   5.082  0.1487 -0.0708  0.1620
18620W        W36144  15.327   8.556  17.401 -0.1481  0.2657 -0.0293
18621W        W36145  13.431   0.616   1.029  0.3472 -0.0347 -0.3393
18622W        W36146   2.553  13.435  12.962 -0.1057 -0.2480 -0.0518
18623W        W36147  14.837   2.683   2.159  0.2992  0.0500 -0.3929
18624W        W36148  12.837   2.007  12.265  0.0797  0.1695  0.0036
18625W        W36149   8.125  13.532   1.423  0.1221 -0.1438 -0.0677
18626W        W36150  16.009   1.669   2.237 -0.3471  0.0582  0.0027
18627W        W36151  14.355   4.652  15.329 -0.1939 -0.0124  0.1035
18628W        W36152  14.075  11.188   2.305  0.2806 -0.2149 -0.1486
18629W        W36153  14.098   3.878  17.619 -0.0174  0.2662  0.2253
18630W        W36154   5.759   5.570  17.409  0.1990 -0.1870  0.0647
18631W        W36155   3.479   0.080  16.633 -0.3867 -0.0478  0.0974
18632W        W36156  13.253  11.777   3.949 -0.1990 -0.0269 -0.0094
18633W        W36157   2.542   2.441   2.939 -0.0325 -0.1193  0.0458
18634W        W36158   7.339   4.056   0.044 -0.0481  0.2543  0.1131
18635W        W36159   2.886  14.131  13.399  0.2994 -0.1744  0.1114
18636W        W36160   6.655  15.857   1.656  0.0835 -0.2724 -0.1814
18637W        W36161  14.616  11.712  15.901 -0.4507  0.1359 -0.0280
18638W        W36162   1.867  16.699  14.178 -0.0399 -0.1848 -0.1258
18639W        W36163   1.997  14.347  14.382 -0.2382 -0.0003  0.2073
18640W        W36164   5.531  13.579  12.389 -0.0648  0.0911 -0.1210
18641W        W36165   3.269  15.540   6.239  0.0767  0.0093  0.0514
18642W        W36166  12.570   3.375  14.980  0.1096  0.1116  0.2580
18643W        W36167   4.750   4.185   3.463  0.0888 -0.1303  0.3105
18644W        W36168   5.667  16.149  14.368 -0.3954  0.0806 -0.0506
18645W        W36169  15.059   3.538  12.267  0.0974  0.1676  0.0746
18646W        W36170   9.803  14.341   1.470  0.1744  0.0040  0.0729
18647W        W36171   4.869   9.188  15.867 -0.2613  0.1182  0.2055
18648W        W36172  17.042   4.998  13.918 -0.1330  0.4964  0.2178
18649W        W36173   2.163   8.144  13.811 -0.2903  0.1906  0.1662
18650W        W36174   1.051   8.653  15.581  0.3042  0.2013  0.2190
18651W        W36175  12.385   2.889  15.134 -0.4029  0.0684 -0.0878
18652W        W36176  13.364  12.387  15.640  0.1489 -0.0839  0.0010
18653W        W36177  11.335   5.932   0.965 -0.0048  0.1077  0.1000
18654W        W36178  12.580  15.988  12.238 -0.2952 -0.0691 -0.0518
18655W        W36179  10.962   9.773   1.022 -0.2321 -0.0610 -0.1513
18656W        W36180  16.122  11.458   1.288 -0.0462 -0.0868 -0.0016
18657W        W36181   8.207  13.577  13.873  0.0701  0.3065 -0.0711
18658W        W36182  11.122   2.037   2.722 -0.0102 -0.1027 -0.0778
18659W        W36183   9.022  11.292  16.249  0.0011 -0.2935  0.2748
18660W        W36184   8.336   3.821   1.175  0.3387  0.0783 -0.0343
18661W        W36185   6.982   7.329   4.762  0.2057  0.0757 -0.1836
18662W        W36186  11.774  17.038   1.443  0.2504 -0.0755  0.1324
18663W        W36187   2.388  15.600   5.359 -0.1653 -0.0023  0.0327
18664W        W36188  15.022   2.460  15.421  0.0784  0.1340 -0.1289
18665W        W36189  17.047   6.896   1.995  0.0052 -0.1275 -0.2778
18666W        W36190   8.746   5.719   4.060 -0.0137 -0.1018  0.4456
18667W        W36191  10.709  14.486  15.917 -0.1653  0.0231 -0.0258
18668W        W36192   7.324  13.431   1.153  0.1171  0.4393  0.1874
18669W        W36193   8.685   1.106   3.297  0.2734  0.3232  0.2633
18670W        W36194   0.627  11.159   1.489  0.2687  0.1191 -0.3572
18671W        W36195   2.085   0.294   5.982  0.1941 -0.1908  0.0660
18672W        W36196   9.413   6.633   1.418  0.3256 -0.2348 -0.0220
18673W        W36197  16.152   1.088  15.380 -0.0100  0.2771  0.0362
18674W        W36198   7.156   0.733  13.809 -0.2281  0.2072 -0.0749
18675W        W36199   7.973  11.841   1.714  0.0597  0.2264  0.0354
18676W        W36200   4.210  11.052   0.989  0.1502 -0.0439  0.0924
18677W        W36201   3.004   4.405  17.173 -0.0894  0.0350  0.0391
18678W        W36202   9.457   8.324   0.328 -0.1511  0.2708 -0.0126
18679W        W36203  16.836  12.023  12.695  0.1000 -0.1807 -0.0461
18680W        W36204  10.890  11.014  13.573 -0.1547 -0.4072  0.0699
18681W        W36205  15.045  10.380   5.522  0.0830 -0.1684 -0.0360
18682W        W36206  12.306   1.121  16.572 -0.0470  0.2082  0.2355
18683W        W36207   7.628  12.482  15.455  0.0756 -0.1681 -0.2367
18684W        W36208   3.428  13.982   4.162 -0.4211 -0.1154 -0.0710
18685W        W36209  15.139  10.280  16.205  0.0439 -0.0651 -0.0644
18686W        W36210   5.841   7.968   1.220 -0.1240  0.0289 -0.2475
18687W        W36211   7.431  13.014  16.236 -0.1177  0.0319  0.1860
18688W        W36212   3.849  14.769  16.697 -0.1960 -0.3006 -0.1661
18689W        W36213   1.271  14.925   3.153 -0.0099 -0.0312  0.0919
18690W        W36214  17.014   9.743  15.382  0.1871 -0.1577  0.0783
18691W        W36215   8.532  17.058   4.554 -0.1194 -0.2425  0.0910
18692W        W36216  15.545  16.714   3.123 -0.0111  0.0482 -0.2741
18693W        W36217   5.343   7.052   4.818 -0.0461 -0.1969 -0.0941
18694W        W36218  11.186  16.439  17.269  0.0116 -0.1846  0.2176
18695W        W36219  15.612   2.556  16.450 -0.0183  0.3032  0.0054
18696W        W36220   1.218  16.547  14.680  0.1839 -0.0554 -0.2911
18697W        W36221  11.771  12.118  13.417  0.1051  0.1572  0.0293
18698W        W36222   8.583   3.222  12.694  0.0150  0.1861  0.0405
18699W        W36223  11.812   1.957  17.464 -0.0640 -0.0695 -0.2431
18700W        W36224  10.820   0.436  17.570 -0.4220  0.2647  0.2738
18701W        W36225  12.031  15.297  13.216  0.3067 -0.0800  0.0048
18702W        W36226   3.012  13.921  14.489  0.0745 -0.0268 -0.0138
18703W        W36227   4.648  13.677   2.763 -0.2114  0.3778 -0.0810
18704W        W36228   1.529   2.586  17.348 -0.0317 -0.4587  0.0978
18705W        W36229   0.559   6.586  14.233 -0.0379 -0.4150 -0.1033
18706W        W36230  17.078   2.159   1.615  0.0832 -0.0438 -0.1818
18707W        W36231   7.207   1.588   1.018  0.2186 -0.2310  0.3930
18708W        W36232  12.140   6.031  14.175  0.0217 -0.0522  0.2108
18709W        W36233   5.791  13.064  15.514  0.1475  0.2920 -0.1100
18710W        W36234  10.036  12.326   3.917  0.0144 -0.0117  0.0547
18711W        W36235   6.179   0.751  16.315  0.1133 -0.2612 -0.2122
18712W        W36236   3.397   7.141   1.510 -0.1285  0.0649  0.1959
18713W        W36237  12.071   0.301   5.407  0.2156 -0.0705  0.1299
18714W        W36238   7.785  14.290  14.267 -0.2037 -0.0234 -0.0944
18715W        W36239   2.789  13.700   5.048  0.1209 -0.2754  0.5318
18716W        W36240   7.992   8.252   4.892 -0.2251  0.1867 -0.2512
18717W        W36241   3.144  10.938  13.258  0.2671 -0.2692  0.0389
18718W        W36242  12.544   2.940  13.972  0.0980  0.0619 -0.1456
18719W        W36243  12.702   7.739   4.061  0.2387  0.2422 -0.3385
18720W        W36244   6.200   1.194  14.225 -0.0186  0.0790  0.1126
18721W        W36245  15.652  16.086  12.593  0.1596 -0.1923  0.1949
18722W        W36246   9.916  14.708   3.779  0.0591 -0.0299  0.0271
18723W        W36247   0.873   3.020   2.493 -0.1464 -0.1743  0.1131
18724W        W36248   5.986   1.418  13.478 -0.0842  0.0110 -0.1873
18725W        W36249   1.664   7.320  13.271  0.1883 -0.2137 -0.2395
18726W        W36250  16.160  11.912   3.030  0.1934 -0.3651 -0.1278
18727W        W36251   8.482  17.147  13.781 -0.2455  0.0027  0.1343
18728W        W36252  10.952  11.617  17.469  0.0643  0.1440 -0.1072
18729W        W36253   6.767  10.344   5.539  0.0679  0.2698  0.2813
18730W        W36254   4.641  14.251   2.750 -0.0498  0.1419  0.1158
18731W        W36255  13.483  10.722  14.957  0.1201 -0.0257 -0.0453
18732W        W36256   1.845   0.133  16.518  0.2784 -0.0236 -0.1277
18733W        W36257   6.822  13.666   0.267 -0.0949 -0.1660 -0.0624
18734W        W36258  15.724   0.921  15.574 -0.2882  0.1117 -0.1504
18735W        W36259  10.251   9.807   3.645 -0.2038  0.3273 -0.1698
18736W        W36260  14.155  15.817  11.375  0.2447 -0.0244 -0.2040
18737W        W36261   4.293  16.270   5.862  0.0846  0.5560  0.0015
18738W        W36262   4.803   2.718   0.348  0.2262  0.1386 -0.2337
18739W        W36263   0.617   5.685   2.325 -0.1277 -0.1003 -0.1657
18740W        W36264  11.164  16.903  17.473 -0.1849  0.0450  0.1567
18741W        W36265  16.512   6.267   2.116  0.0904  0.0482 -0.0984
18742W        W36266   3.809  12.329  15.253  0.2311 -0.0146  0.3156
18743W        W36267   9.331  16.426   5.430  0.0998 -0.2398 -0.4021
18744W        W36268   5.636   4.077  11.319 -0.0592 -0.3326 -0.1969
18745W        W36269  11.208   4.971   4.948 -0.2690  0.1161  0.2740
18746W        W36270   0.480  11.196   0.964  0.0258  0.1116  0.0149
18747W        W36271   8.153  11.109  14.753 -0.1226  0.1933  0.2169
18748W        W36272   8.173   8.681  12.403 -0.1859  0.1734 -0.4239
18749W        W36273   8.971  16.750  15.765  0.2929  0.2732  0.1149
18750W        W36274   9.059   6.981   4.028  0.1635  0.2098  0.0659
18751W        W36275  12.401  11.385   2.221  0.1094  0.1972 -0.0166
18752W        W36276   6.398   2.755   4.651  0.0179  0.0608  0.2675
18753W        W36277   0.248  11.874   4.516 -0.0043 -0.2253 -0.0282
18754W        W36278   1.937  10.346  13.025  0.0217  0.0593 -0.0279
18755W        W36279   9.912   6.457  14.235 -0.1203 -0.1259  0.3573
18756W        W36280   9.446  12.738  12.749  0.0031 -0.2912  0.0017
18757W        W36281  14.898  12.008  13.814 -0.1390 -0.0853  0.0559
18758W        W36282  16.651  16.136  15.265  0.1137 -0.2121  0.0079
18759W        W36283   0.890  12.912  15.702  0.0600  0.1169 -0.2241
18760W        W36284   9.350   8.856  15.768 -0.0414 -0.4643 -0.2586
18761W        W36285  14.222   6.464   1.652  0.3479 -0.3621  0.0557
18762W        W36286   2.286   0.293   1.184  0.0895 -0.1067 -0.0452
18763W        W36287  16.836  10.955   2.727 -0.0145  0.3406 -0.2958
18764W        W36288   3.121   4.117   0.840 -0.0389 -0.2357 -0.3099
18765W        W36289  16.620  14.807  17.527 -0.1352 -0.1259  0.2264
18766W        W36290  11.359   0.920  15.984  0.3515  0.3454  0.1225
18767W        W36291  16.127  15.587   5.089  0.1100  0.2185 -0.2694
18768W        W36292   4.735   7.197   1.058 -0.1941  0.2736 -0.0033
18769W        W36293   6.135  11.156   2.423  0.0893 -0.0057 -0.0637
18770W        W36294   4.224  13.724  16.448 -0.4705 -0.0222  0.0805
18771W        W36295  13.831   9.877  11.863 -0.0493  0.2031 -0.1835
18772W        W36296   4.685   5.043   1.224  0.1728 -0.3182  0.0111
18773W        W36297   0.667   6.542   3.524 -0.1166  0.0312  0.0212
18774W        W36298  16.155  14.158   2.282  0.4539 -0.1184  0.0208
18775W        W36299   9.184   2.349  16.981  0.0884 -0.0958 -0.1544
18776W        W36300   3.249   5.330  12.737 -0.1814  0.0226 -0.3253
18777W        W36301   3.718   6.937   3.412  0.0189  0.2219 -0.3246
18778W        W36302  12.236  13.741  12.675 -0.0474 -0.0754 -0.1297
18779W        W36303   8.811   7.404  17.213 -0.4163  0.0912  0.1127
18780W        W36304   1.734   9.094   3.506  0.2798 -0.3578 -0.0208
18781W        W36305   2.327   0.066   2.191  0.0719  0.0394  0.1323
18782W        W36306   7.786   3.941   5.620  0.3346 -0.1972  0.0948
18783W        W36307  14.818   3.808   4.843  0.0449  0.0896 -0.0776
18784W        W36308  15.080   7.841  16.358  0.1804  0.1084  0.0347
18785W        W36309  15.200   7.178   5.579  0.4050  0.0668 -0.2907
18786W        W36310  15.055  11.549  15.703 -0.2120  0.2485  0.0611
18787W        W36311  13.601   9.667   1.124 -0.4508 -0.0109 -0.1935
18788W        W36312   8.739  13.016  13.251  0.2639 -0.1248  0.1349
18789W        W36313  10.174   2.390   2.517 -0.0539  0.1671 -0.6027
18790W        W36314   8.351   3.499   5.030 -0.0005 -0.0674 -0.1631
18791W        W36315   7.461   8.125  13.390  0.0631 -0.1305 -0.1451
18792W        W36316   8.291   8.788   1.020  0.2003 -0.0127  0.1019
18793W        W36317   4.287  13.081  16.270 -0.0144  0.1621 -0.2481
18794W        W36318   2.719  11.934  16.750 -0.0202 -0.0720  0.0383
18795W        W36319  13.999   3.168   2.177  0.1196 -0.1012 -0.0341
18796W        W36320   3.148  16.026  16.798 -0.0653 -0.0631  0.2307
18797W        W36321   3.737  10.599  16.964 -0.2276  0.5799 -0.2692
18798W        W36322  15.965   4.986  15.419 -0.1425 -0.1803  0.3216
18799W        W36323   2.880   8.631   1.261  0.3619 -0.2300  0.1750
18800W        W36324   9.058   5.345   5.251  0.2053 -0.1402 -0.0189
18801W        W36325   6.360  12.242   3.278 -0.1194  0.1058  0.3462
18802W        W36326   7.787   0.678   5.122  0.0353  0.1086  0.2489
18803W        W36327   9.827   0.862   4.652 -0.1541 -0.0057 -0.0335
18804W        W36328   0.872  11.960  12.491 -0.0259 -0.2002 -0.0536
18805W        W36329  17.002   7.444   1.571  0.0123  0.0014  0.0627
18806W        W36330  15.871  11.829  17.321  0.1027  0.2692 -0.0151
18807W        W36331  17.129  15.835  14.620  0.1687 -0.2686 -0.3818
18808W        W36332  13.655  13.194   5.749 -0.2357 -0.0645 -0.5092
18809W        W36333   9.730   3.379  15.138  0.0682 -0.1933  0.1819
18810W        W36334   2.380   6.292  14.776  0.1352  0.1058  0.2390
18811W        W36335   7.912   4.415  16.320  0.3210  0.0822  0.0375
18812W        W36336  16.910   1.440  13.376 -0.0614  0.2100  0.2901
18813W        W36337  10.377  14.527   4.013  0.1689  0.2764 -0.1907
18814W        W36338  11.864  11.393   1.123  0.0695 -0.3333 -0.0832
18815W        W36339   6.508  11.308   5.120  0.0606  0.1438 -0.1165
18816W        W36340   4.498   9.147   1.938  0.0075  0.2826  0.1267
18817W        W36341   9.233  12.909  16.529 -0.2304 -0.1603 -0.0748
18818W        W36342  12.752   8.570  14.781  0.1825  0.2006  0.3549
18819W        W36343   0.723   8.895  17.290 -0.3959 -0.3063 -0.0243
18820W        W36344  11.474   4.124  17.327  0.0033  0.0277  0.1022
18821W        W36345   7.252   9.701   3.512 -0.2119  0.3151  0.2107
18822W        W36346   5.300   0.573   1.589  0.0123  0.0991 -0.2373
18823W        W36347   8.954  11.525  12.102 -0.2293  0.0792  0.0691
18824W        W36348   3.981   4.418   1.705  0.0920  0.1902 -0.0801
18825W        W36349  15.026   4.715   3.739 -0.0414  0.2783  0.4078
18826W        W36350  10.243   7.527  13.288 -0.2800  0.3130  0.1725
18827W        W36351  13.200   7.453   0.729 -0.1721 -0.0838  0.0889
18828W        W36352   5.539  14.761   5.234 -0.1887  0.0626  0.2077
18829W        W36353   0.880  13.677   4.733 -0.1221  0.0947  0.0050
18830W        W36354   0.332  15.886   5.256  0.3395  0.1588  0.2415
18831W        W36355  11.258   5.829  14.030  0.2154  0.0179  0.0428
18832W        W36356   1.049   3.527  13.938 -0.2523  0.1085  0.2864
18833W        W36357   0.995  11.421  15.937  0.0698 -0.0132 -0.0311
18834W        W36358  12.807   6.768  11.959 -0.2299  0.0651  0.0568
18835W        W36359   8.938  12.704  12.849 -0.1071  0.0561 -0.1354
18836W        W36360   8.670   2.446   3.505 -0.0032  0.1453 -0.1803
18837W        W36361   0.314  13.185   1.001 -0.1284 -0.2529  0.1917
18838W        W36362   6.626  14.521   1.740 -0.0435  0.0718  0.1179
18839W        W36363   0.065   0.366  12.787  0.0373 -0.2101 -0.0394
18840W        W36364  11.330   0.312  17.523  0.2073  0.2674 -0.2350
18841W        W36365  12.633   2.842   1.733  0.2864  0.2917 -0.0869
18842W        W36366   9.029   8.262   1.405 -0.0139  0.0050 -0.1684
18843W        W36367  13.831  15.812  16.429  0.0784 -0.0281  0.3077
18844W        W36368  14.655   6.406  16.108 -0.2528 -0.0616 -0.0016
18845W        W36369   6.893   1.474   4.510 -0.1513  0.1472  0.0554
18846W        W36370   4.372   3.025   5.457 -0.2372 -0.2988  0.2841
18847W        W36371  14.826  10.559  15.830 -0.0568 -0.2738 -0.1939
18848W        W36372  15.385  17.248   3.200  0.1003  0.1526 -0.1240
18849W        W36373  14.455   0.426  13.870  0.1682  0.0858 -0.0882
18850W        W36374   7.161  14.813  13.986  0.1588  0.4174 -0.1568
18851W        W36375  10.575  11.034  16.205  0.0606  0.3032 -0.2084
18852W        W36376   1.110   9.075  15.833  0.1597 -0.3337 -0.1226
18853W        W36377  12.811  10.942   2.561  0.0464 -0.1915  0.0992
18854W        W36378  16.274  15.342  15.405 -0.2001  0.0176 -0.0164
18855W        W36379   8.460   0.105  15.691 -0.0456 -0.2143 -0.1144
18856W        W36380   8.454   1.591   1.498 -0.0628  0.0589  0.1806
18857W        W36381  10.609  15.989  15.419  0.2503 -0.0567 -0.0127
18858W        W36382  15.714   5.277   3.771  0.2860 -0.4050 -0.0482
18859W        W36383  11.913   8.469   4.142  0.2096 -0.0717 -0.2079
18860W        W36384   3.786   5.668  17.350 -0.2037  0.0105  0.2678
18861W        W36385   1.503  13.730  12.251  0.2177  0.1900  0.1087
18862W        W36386  15.669  14.508   4.099 -0.0926 -0.0320 -0.1300
18863W        W36387  14.493  12.223  13.461  0.1399  0.1288  0.1100
18864W        W36388   1.126   0.922   4.874  0.0867 -0.2169  0.0309
18865W        W36389   8.948   8.651  12.530  0.1360 -0.0266 -0.3594
18866W        W36390   4.268  11.376   4.566 -0.2858 -0.0133  0.0800
18867W        W36391   3.339   2.917  17.458  0.2742 -0.0987  0.1723
18868W        W36392  11.921  17.083  15.208 -0.0893  0.2657  0.0121
18869W        W36393  10.652   0.834   5.837 -0.0683  0.1546  0.2124
18870W        W36394   7.227  16.306  13.111 -0.2631  0.1718 -0.2587
18871W        W36395  12.503  16.409   4.548 -0.0435  0.0338  0.2140
18872W        W36396  16.358   9.077  14.442  0.0494  0.3796  0.1512
18873W        W36397  16.900   3.129  16.522 -0.0646  0.1510 -0.3375
18874W        W36398  14.918  11.393   5.492  0.0767  0.0613 -0.0531
18875W        W36399   9.020   3.564   4.207 -0.1756 -0.5412  0.0251
18876W        W36400   0.424  14.806   2.152 -0.0333 -0.0605 -0.1176
18877W        W36401   6.311   7.022  15.667  0.1506  0.2821  0.3518
18878W        W36402  10.010   1.530   1.451  0.2942  0.0617 -0.0620
18879W        W36403  12.632   3.998  17.386  0.0563 -0.1158 -0.0974
18880W        W36404   9.361  13.554   3.155 -0.1713  0.0718  0.1404
18881W        W36405   8.817   1.266  15.625  0.2172 -0.2398  0.1031
18882W        W36406   7.534   0.607  12.649 -0.1424 -0.2515 -0.4355
18883W        W36407   5.512  14.831   0.999  0.0991  0.0498  0.0218
18884W        W36408  10.147   0.865   2.305 -0.1432 -0.0398  0.2375
18885W        W36409   9.704  15.250  16.166 -0.0290  0.0003 -0.0547
18886W        W36410   8.770   2.860   1.847  0.0432  0.3661 -0.0169
18887W        W36411   4.649  12.482  12.879 -0.0325  0.2581 -0.0453
18888W        W36412   3.048  10.000   2.131  0.2671 -0.0676  0.3443
18889W        W36413   7.318  16.726   2.634  0.0397  0.0199  0.0580
18890W        W36414   4.677  10.355  16.735  0.0634  0.1098 -0.2955
18891W        W36415   0.943  15.249  12.306  0.2213  0.0699 -0.0907
18892W        W36416  10.233   1.543  13.112 -0.1385 -0.0149 -0.2250
18893W        W36417  11.640  17.190   2.017 -0.0575 -0.0108  0.1341
18894W        W36418  14.310  10.418  12.241 -0.2070  0.1481  0.1964
18895W        W36419   5.582  12.520  15.785 -0.2277  0.2481 -0.1248
18896W        W36420   1.184   2.263  13.634 -0.0538 -0.2514 -0.0030
18897W        W36421  10.884   0.946  16.805  0.0282  0.0157 -0.0045
18898W        W36422   6.587  15.660   0.448  0.3489 -0.0071 -0.0238
18899W        W36423   6.661  15.656   5.150  0.0556 -0.0674  0.0402
18900W        W36424   2.653   5.078   3.832 -0.0556 -0.0744 -0.1142
18901W        W36425   0.399   6.688   3.144  0.1161 -0.2217  0.0516
18902W        W36426   6.951   1.922  17.036  0.2216 -0.5248  0.2551
18903W        W36427   7.053   4.539  15.211  0.0515  0.1094  0.0087
18904W        W36428   5.550  10.835   4.050  0.4063  0.3828  0.1015
18905W        W36429   7.776   1.076  12.808 -0.3291  0.0408 -0.2873
18906W        W36430   1.820  12.906   0.223 -0.3742 -0.1259  0.2377
18907W        W36431  16.503   7.994   2.104  0.0941 -0.1388 -0.1054
18908W        W36432  14.234   0.307   4.555 -0.0578 -0.0905  0.1567
18909W        W36433  16.372   1.517  13.303  0.2889  0.1688 -0.0386
18910W        W36434   5.939   7.518  13.776 -0.0107  0.2081 -0.0481
18911W        W36435   1.930   6.494   1.385 -0.1919 -0.0107  0.1606
18912W        W36436  16.156  11.915  15.843  0.0284  0.0593 -0.2786
18913W        W36437  16.404   8.556   5.153 -0.0330  0.2399 -0.1778
18914W        W36438   3.536  17.074   2.683 -0.0708  0.2173 -0.0238
18915W        W36439   0.506   2.871   0.068 -0.0389 -0.0301  0.1664
18916W        W36440  10.835   9.492   2.634 -0.0891 -0.2183 -0.1812
18917W        W36441   2.256   4.187  12.256 -0.0939 -0.0975 -0.0840
18918W        W36442  17.121  11.539  13.509  0.0644 -0.1925  0.0329
18919W        W36443   1.459  16.861   0.461  0.1236  0.2309  0.2408
18920W        W36444  11.967  14.468   2.590  0.1678  0.1506 -0.0716
18921W        W36445  12.373   9.606   1.333  0.0520 -0.0973 -0.3955
18922W        W36446  11.820  10.102   2.922  0.2164 -0.3011  0.0008
18923W        W36447   6.036   4.209   0.629  0.0100  0.1584  0.0458
18924W        W36448  14.769  10.259   1.736 -0.0056 -0.1137 -0.1395
18925W        W36449   1.334   1.857   4.114 -0.1136 -0.1428 -0.0046
18926W        W36450  10.420   1.176   3.995  0.0732  0.0756  0.2070
18927W        W36451   6.288   0.250  13.135  0.2209  0.0613  0.1214
18928W        W36452   2.550  16.763  16.885 -0.2712 -0.3186  0.0355
18929W        W36453  14.953   0.709  17.090 -0.0074  0.2052 -0.1608
18930W        W36454   8.885   5.239  16.473  0.1199  0.0795  0.1576
18931W        W36455   1.399   6.969  15.798  0.1228 -0.0621  0.3129
18932W        W36456   5.187  16.235   2.146  0.2448 -0.2684 -0.0284
18933W        W36457   6.895   8.915  17.015 -0.2215 -0.0541  0.1659
18934W        W36458   1.632   6.295  16.877  0.0031  0.1176  0.2688
18935W        W36459   1.632  12.527  12.292  0.0060 -0.2860 -0.2131
18936W        W36460   2.393  16.977   1.783  0.1773 -0.3459 -0.3574
18937W        W36461  11.323   6.468  12.553  0.0887  0.3163 -0.5629
18938W        W36462   2.134   7.396  13.374  0.0106  0.1031  0.1099
18939W        W36463   7.557   0.707   0.635  0.0039  0.0632 -0.0134
18940W        W36464   8.235  12.336   3.602  0.1996 -0.5018  0.3886
18941W        W36465   7.504  12.608  15.908  0.1573 -0.0379 -0.2728
18942W        W36466  16.896   6.814  15.120  0.2510  0.0646  0.1874
18943W        W36467   6.221   3.783  17.042  0.1319 -0.0975  0.1229
18944W        W36468   4.341   8.795  15.735 -0.2889  0.0765 -0.2203
18945W        W36469   9.141  12.687  14.602  0.1110  0.0119 -0.0695
18946W        W36470   6.301  14.423  17.109 -0.2096 -0.1718  0.1151
18947W        W36471  16.177  13.816   4.917 -0.3091 -0.3015  0.0950
18948W        W36472  15.622  12.673  15.873 -0.1746 -0.2539 -0.0019
18949W        W36473   0.622   0.506   1.974  0.0127  0.1946 -0.3135
18950W        W36474   6.967   3.215  12.616 -0.3425 -0.0257  0.1840
18951W        W36475  15.505   1.109  16.358  0.2911  0.1151  0.0741
18952W        W36476   9.923   9.599  17.290  0.0013  0.0906 -0.0770
18953W        W36477  12.981   7.054   1.031  0.0080  0.3171 -0.2325
18954W        W36478   7.074  15.823   1.369 -0.1252  0.2065 -0.1492
18955W        W36479   6.498   2.298   5.312 -0.2030 -0.1626 -0.1184
18956W        W36480   7.665   3.994   4.047  0.0270 -0.1368  0.0142
18957W        W36481   0.758   1.868   3.450  0.2118 -0.0263 -0.3648
18958W        W36482   9.394   4.184  15.635 -0.1731 -0.1172 -0.1754
18959W        W36483   4.517  10.779  12.322  0.0322 -0.0144 -0.0244
18960W        W36484  14.798  13.030  12.561 -0.0663 -0.0409  0.1252
18961W        W36485  11.104   0.899  13.971 -0.0294 -0.0502 -0.2226
18962W        W36486   1.345  13.544  14.513 -0.0176 -0.0844  0.0120
18963W        W36487   3.004  14.266  14.054  0.0265  0.2248 -0.1613
18964W        W36488   8.261   4.466  13.632 -0.0676  0.0513  0.2545
18965W        W36489  12.544  14.677  14.093  0.0599  0.0269 -0.0017
18966W        W36490   5.254   9.007   5.367  0.2437  0.2715 -0.0421
18967W        W36491  10.394   2.936  15.551 -0.0501  0.0742 -0.3258
18968W        W36492   5.546  16.321   5.408  0.1076 -0.1499 -0.2555
18969W        W36493   9.659  14.219   6.216  0.2514  0.0560 -0.1530
18970W        W36494   8.449  15.404   3.822  0.1136  0.2400  0.2113
18971W        W36495  10.837   8.934   0.134  0.0458  0.2259  0.1496
18972W        W36496  14.438  12.803   4.710 -0.1466 -0.1451  0.0822
18973W        W36497   0.724  16.008  16.043  0.2155 -0.3950 -0.2495
18974W        W36498  14.639  14.117   1.429  0.1038 -0.3741 -0.0873
18975W        W36499   6.447  13.604  17.029  0.0150  0.0367 -0.1026
18976W        W36500   4.491  11.428  16.581 -0.0414  0.4856 -0.1967
18977W        W36501  11.998   2.869  12.984  0.0121 -0.3281  0.1923
18978W        W36502  13.460  14.928  17.626  0.3888 -0.1515 -0.1526
18979W        W36503  11.069   6.169   2.648  0.0858  0.0555 -0.2627
18980W        W36504   1.345  16.974  15.914 -0.0364  0.1275  0.2612
18981W        W36505   1.978   4.104   5.098 -0.0803 -0.2201  0.2823
18982W        W36506   0.947  17.140   3.500  0.0089  0.3186 -0.0444
18983W        W36507   7.298   8.637   2.560  0.1393  0.1505  0.0483
18984W        W36508  15.482  14.678  16.208  0.4791  0.2780  0.0365
18985W        W36509   4.640  12.722   4.687  0.1597 -0.2935  0.0284
18986W        W36510  14.005   2.682   0.502 -0.1113 -0.3127 -0.3143
18987W        W36511   5.856  16.204   4.988  0.1439  0.1092 -0.1228
18988W        W36512  12.569   5.836  12.160  0.1361  0.0685 -0.1028
18989W        W36513   2.085   1.840  13.465 -0.2420 -0.0782  0.1532
18990W        W36514  14.850  11.073  12.767  0.0004 -0.4743  0.0116
18991W        W36515  13.424  12.462  11.515  0.0008 -0.2832 -0.0072
18992W        W36516   9.593   4.711  14.746  0.0120  0.2063 -0.0696
18993W        W36517  15.700  15.428   2.616 -0.1961 -0.3205 -0.1214
18994W        W36518   7.266  17.018  14.313  0.0355 -0.0411  0.0645
18995W        W36519   3.120  11.851  17.121  0.0488 -0.1411 -0.0662
18996W        W36520  11.740  12.881  14.449  0.0270 -0.4689  0.0669
18997W        W36521   0.810  14.413  15.011 -0.1170  0.1702 -0.2242
18998W        W36522   0.363  14.605   0.821 -0.4610  0.1481 -0.3939
18999W        W36523   9.406  13.418   5.747 -0.0720  0.1916  0.1702
19000W        W36524   4.445   5.155   3.725  0.2621  0.0649  0.2415
19001W        W36525   7.743  16.514  13.086  0.0695 -0.0238  0.0784
19002W        W36526   8.855   1.224   5.855  0.0040 -0.1950  0.2642
19003W        W36527   2.136   2.277  15.626 -0.0151 -0.1117  0.3054
19004W        W36528   6.228  12.536   1.479 -0.3116 -0.0773 -0.0251
19005W        W36529   2.550   9.492  12.593 -0.0089 -0.0023 -0.1866
19006W        W36530   4.829  15.484   5.537  0.1917 -0.2586 -0.1048
19007W        W36531   2.202  11.276  16.314  0.0810  0.0467 -0.0883
19008W        W36532   2.761  12.256  14.724  0.2571 -0.0266 -0.1778
19009W        W36533   2.982  13.648   0.982 -0.0241  0.2334  0.0762
19010W        W36534  11.777   2.266   2.131  0.5076 -0.1140  0.1004
19011W        W36535   1.858   3.565   3.308 -0.0116  0.2861 -0.3481
19012W        W36536   8.797  12.068  17.534  0.5099  0.1767  0.1178
19013W        W36537   7.184  13.707  14.532 -0.1735 -0.0560 -0.0551
19014W        W36538   3.682  12.264  12.902  0.1600 -0.0652  0.2127
19015W        W36539   4.589  10.040   2.251 -0.4180  0.2035  0.0717
19016W        W36540   5.268   6.615   5.095  0.0625 -0.4171 -0.2176
19017W        W36541   7.198   1.372   5.455 -0.3750  0.0064 -0.1586
19018W        W36542   1.463   7.729   4.750 -0.1251  0.0736 -0.3759
19019W        W36543  13.136  11.268   2.710  0.0316 -0.1366 -0.1361
19020W        W36544  16.062  15.570  16.683  0.0103  0.0479  0.1700
19021W        W36545   1.919   0.624  17.022  0.0940  0.3641 -0.0029
19022W        W36546   9.303  13.555   4.709 -0.0605 -0.2272  0.0048
19023W        W36547  11.671  15.433   6.583 -0.1937  0.2557  0.1510
19024W        W36548   9.669   5.597   3.362  0.0319 -0.1165 -0.0522
19025W        W36549   9.476   0.962  13.875  0.0618 -0.0599 -0.1244
19026W        W36550  16.542  14.085   1.973  0.0180  0.1147 -0.0455
19027W        W36551   9.387   6.098   5.128  0.3034  0.0630  0.2004
19028W        W36552  16.076   2.164  12.747 -0.0726 -0.0729 -0.2038
19029W        W36553   8.206   9.383  17.380  0.1822  0.1303 -0.1973
19030W        W36554   9.376   6.622  15.702  0.2501  0.0892  0.0567
19031W        W36555   8.363   0.158   3.965 -0.2028 -0.0054 -0.1563
19032W        W36556  16.578  16.165   0.574  0.1520 -0.1388  0.1162
19033W        W36557   7.238  12.645  16.884  0.0959 -0.0627  0.4482
19034W        W36558  15.121   1.572  14.130 -0.0920 -0.3485 -0.1381
19035W        W36559   0.991  15.239   1.371  0.1556  0.1773 -0.1849
19036W        W36560  12.653   2.550  15.379 -0.1194 -0.2671 -0.1392
19037W        W36561  15.441  10.478  13.834  0.1633  0.4287 -0.2075
19038W        W36562  10.911   4.439   2.240  0.2228  0.1727 -0.1168
19039W        W36563  14.305   3.618   2.714 -0.1537  0.1159  0.3875
19040W        W36564  15.251   9.964  14.821 -0.0356 -0.0307 -0.0734
19041W        W36565   2.805  12.936   0.139 -0.4620 -0.2647  0.3943
19042W        W36566  14.087   0.463  13.454 -0.2721  0.2606 -0.2611
19043W        W36567   4.845  16.332   0.588  0.1657 -0.0862 -0.1066
19044W        W36568  10.000   2.083  15.552 -0.1341 -0.0631  0.0234
19045W        W36569   6.219   3.173   0.150  0.4154  0.1081 -0.0388
19046W        W36570   0.195  14.137  15.433  0.0581  0.0443  0.0063
19047W        W36571   2.667   5.494  17.050  0.2502 -0.0631 -0.1604
19048W        W36572  15.145   7.337  16.260 -0.0935  0.1101 -0.1467
19049W        W36573  11.138   0.311   3.790  0.2845 -0.2034  0.2068
19050W        W36574  16.735   6.495   4.226  0.3495 -0.1412 -0.0510
19051W        W36575   4.441  16.029   5.010 -0.0053  0.1315 -0.1858
19052W        W36576  16.499   7.887   0.953  0.0181 -0.1105  0.0211
19053W        W36577  12.613   5.146   3.760  0.1074 -0.1041 -0.4919
19054W        W36578   8.379  13.569   0.498  0.2383  0.2186 -0.1492
19055W        W36579   1.626   5.074  16.467  0.0293 -0.2294 -0.0383
19056W        W36580  10.341   7.496   2.266  0.0727  0.5676 -0.2877
19057W        W36581   5.262   1.223   0.299  0.1017  0.2432  0.3933
19058W        W36582  12.365   0.088   2.461  0.0522  0.0249 -0.1891
19059W        W36583   7.038   5.486   0.299 -0.2368 -0.0552 -0.0016
19060W        W36584   5.212  13.767   2.553 -0.0981  0.0935 -0.4664
19061W        W36585  11.809   9.210   1.883  0.0240  0.1229  0.2967
19062W        W36586   9.892   5.879  15.907  0.0182  0.3110  0.2969
19063W        W36587  14.308   3.267  15.449 -0.1387  0.0333  0.0234
19064W        W36588   5.452   5.458   0.284 -0.3409  0.0957 -0.0596
19065W        W36589  15.241  17.184   4.997  0.1029  0.0892 -0.2264
19066W        W36590   8.619  11.838  12.844  0.0920 -0.2043  0.3468
19067W        W36591  14.451  14.964   3.584 -0.2051 -0.1058 -0.0517
19068W        W36592   4.342   1.217  12.824  0.0610  0.0166 -0.0151
19069W        W36593  13.995   0.732   1.523 -0.0652  0.0121 -0.2042
19070W        W36594   4.908   7.922  12.652 -0.2890  0.0912  0.0456
19071W        W36595  16.734  13.152  17.428 -0.0643 -0.2338 -0.0605
19072W        W36596  13.128   0.680   5.156 -0.2956 -0.1977  0.2953
19073W        W36597   5.291  11.157   4.439  0.1472  0.2652 -0.0741
19074W        W36598   0.723   5.579  13.143 -0.0142 -0.1552 -0.0092
19075W        W36599  15.825   0.727  16.129  0.3393 -0.3058  0.0753
19076W        W36600   0.640  10.248   4.031  0.2156 -0.3421 -0.3043
19077W        W36601  14.998  10.720   4.638 -0.0456  0.1546  0.1538
19078W        W36602   2.212  14.834   1.318  0.2530  0.0089  0.1838
19079W        W36603   8.624   5.812  14.948  0.0215  0.2337 -0.1757
19080W        W36604   0.876   5.527  16.517 -0.1317 -0.0911  0.2654
19081W        W36605   6.934   4.070   4.648 -0.0347  0.2515 -0.0414
19082W        W36606   7.544   8.057   4.455 -0.3467  0.1101  0.0877
19083W        W36607   4.343   5.904   4.544 -0.1031 -0.0366 -0.2071
19084W        W36608  11.139   8.435  11.061  0.0963 -0.2343  0.1884
19085W        W36609   8.939  16.592   3.750 -0.0823  0.0392  0.0036
19086W        W36610   9.823   0.467  16.862  0.1184  0.1198  0.0891
19087W        W36611   9.889   9.207   4.840  0.0707 -0.0014 -0.1800
19088W        W36612   6.035   4.900  16.220  0.0547 -0.3990 -0.2737
19089W        W36613   0.296   3.946   2.932 -0.2116  0.0332  0.0158
19090W        W36614  14.642   8.780   3.953 -0.1348  0.0261  0.0278
19091W        W36615  13.265   0.456  13.789 -0.3088 -0.1319 -0.0928
19092W        W36616  13.545   9.830   3.743  0.0711  0.1942  0.1038
19093W        W36617  17.230   9.815  13.644 -0.0282 -0.2153 -0.2305
19094W        W36618   2.757  12.769  14.359  0.2356 -0.3001 -0.2021
19095W        W36619   0.973  16.648  14.261 -0.1711  0.1517  0.3355
19096W        W36620   0.406   2.314  15.845 -0.1040  0.0701 -0.0420
19097W        W36621   2.583  13.339  13.454 -0.1064  0.1756  0.1430
19098W        W36622   5.328   2.556  12.421  0.4035  0.0527 -0.2344
19099W        W36623  13.501   2.842   5.455  0.0712 -0.0128 -0.1339
19100W        W36624   7.865   8.762   3.952  0.1064 -0.3015 -0.1352
19101W        W36625  16.074  13.640  15.128 -0.0539  0.2653 -0.0765
19102W        W36626   9.908  16.714   2.255  0.2511 -0.2494  0.0333
19103W        W36627   1.650  16.947   5.983 -0.0876 -0.0501  0.2027
19104W        W36628  12.338  16.835  15.985 -0.1264  0.1742  0.0787
19105W        W36629   4.791  14.883   5.657 -0.0095  0.3951 -0.1447
19106W        W36630   1.674   4.512   1.065 -0.1849 -0.1453 -0.2931
19107W        W36631  11.866  12.637   2.975  0.0082 -0.0879 -0.2305
19108W        W36632   0.196  10.430   3.698 -0.1917  0.1562  0.2539
19109W        W36633   5.726  14.966   5.745  0.1241  0.2193  0.2024
19110W        W36634   8.131   2.321  16.698 -0.0447  0.0637 -0.3447
19111W        W36635   2.025   4.253  16.333 -0.1596  0.0010 -0.2655
19112W        W36636   5.567  11.411  15.364  0.1057  0.0198 -0.0660
19113W        W36637  14.488   7.978   4.528  0.2069  0.0186  0.1119
19114W        W36638   3.369  12.576   5.389 -0.0657 -0.0503  0.0342
19115W        W36639   9.587  15.692   0.841 -0.1839 -0.1433  0.0108
19116W        W36640  12.235   9.942  17.044 -0.1647 -0.0640  0.2702
19117W        W36641   9.511  11.443   1.783 -0.0720 -0.1487  0.0567
19118W        W36642   7.156   7.711  13.583 -0.2812 -0.0940  0.1105
19119W        W36643  10.131   1.215   4.390  0.3741  0.1831 -0.1666
19120W        W36644  13.541   3.908   2.341 -0.2779  0.3574  0.1079
19121W        W36645  14.944   5.670  17.189 -0.0799 -0.2092 -0.1793
19122W        W36646  10.362   1.480  17.262 -0.2304 -0.0087 -0.0175
19123W        W36647   2.017   4.485  12.706  0.2116  0.1033 -0.0652
19124W        W36648  14.248   5.007   1.776 -0.1354  0.3609  0.0516
19125W        W36649   2.430   5.558   2.634 -0.0176 -0.1075  0.0140
19126W        W36650  12.447  17.199   6.043  0.1080  0.0926  0.1434
19127W        W36651  13.826   7.683   4.175 -0.0451  0.0528 -0.0682
19128W        W36652  12.117  15.574   0.851 -0.0531 -0.1535 -0.1862
19129W        W36653  11.456   1.619  16.737 -0.1448 -0.0123 -0.1468
19130W        W36654   7.296   4.627  13.346 -0.1852  0.1745 -0.0949
19131W        W36655   9.419   5.856  17.557 -0.0262 -0.1169 -0.2036
19132W        W36656  12.862  13.822  14.549  0.0881  0.5542 -0.1107
19133W        W36657   4.908   8.754  13.630  0.0543  0.4369 -0.2718
19134W        W36658   2.013   1.970  15.974  0.0162 -0.1766 -0.2976
19135W        W36659   0.773   3.790   1.641  0.2976 -0.3319  0.2331
19136W        W36660  11.417   8.232   3.359  0.3546 -0.0886  0.1102
19137W        W36661   6.923   9.089   1.547 -0.0255 -0.2259  0.2140
19138W        W36662  10.692  10.640  12.143 -0.0375  0.5332 -0.0382
19139W        W36663  15.303   0.181   3.621 -0.0215  0.1779  0.1911
19140W        W36664   1.869   2.868  15.915 -0.1547 -0.0296  0.3320
19141W        W36665   3.834  10.534  15.856 -0.1026  0.0421  0.0395
19142W        W36666   1.227   3.685   0.044 -0.0281 -0.3091 -0.0225
19143W        W36667   1.326   7.481  16.516  0.1684  0.0658  0.1445
19144W        W36668  10.406   8.148  12.243 -0.0788  0.1376 -0.0898
19145W        W36669  14.329   8.067   3.451 -0.2145  0.0849  0.1754
19146W        W36670  14.679  11.516   4.147 -0.0467  0.1617 -0.2515
19147W        W36671   3.701  11.840   0.922 -0.1373 -0.0357 -0.0062
19148W        W36672   3.887  15.004   4.094  0.2578 -0.4703  0.2993
19149W        W36673  15.126  13.293   3.617  0.1833  0.1676 -0.1133
19150W        W36674  13.432   0.053  13.141 -0.0297  0.3338  0.1023
19151W        W36675   5.164  14.514   0.260 -0.2641 -0.2312  0.0842
19152W        W36676  16.219  11.519  14.741 -0.2455  0.0176  0.2185
19153W        W36677   9.018  15.377  13.510 -0.0165  0.2893 -0.0296
19154W        W36678  12.423   2.252  13.144 -0.0232  0.3062 -0.0999
19155W        W36679   3.992  15.696   0.626 -0.0286 -0.0118 -0.1022
19156W        W36680  15.561  14.996  15.832 -0.0588 -0.1464  0.0272
19157W        W36681   3.248   4.016   5.430 -0.1786  0.0014 -0.1361
19158W        W36682   1.283  13.092   2.886 -0.0529 -0.0038 -0.5391
19159W        W36683   6.011   9.015  13.787  0.0691  0.0730  0.4677
19160W        W36684  11.059   2.165   3.549  0.2195  0.0371 -0.0215
19161W        W36685  10.291  13.277   1.324 -0.0388  0.0212  0.0221
19162W        W36686   0.058   2.528   3.497  0.2380 -0.2571 -0.2000
19163W        W36687   2.334   3.678  17.489  0.0358  0.2543 -0.0506
19164W        W36688   7.996   3.400  14.410  0.0609 -0.1819  0.0689
19165W        W36689   5.947   8.992  16.851 -0.0224 -0.0207  0.1233
19166W        W36690   3.673  15.479  14.648  0.1284  0.0205  0.0835
19167W        W36691   1.767  11.272  14.283 -0.0125  0.1598 -0.2540
19168W        W36692   9.464   2.541   4.922  0.0206 -0.1577 -0.2806
19169W        W36693   1.442  17.209   0.078  0.0190  0.0435 -0.2084
19170W        W36694   2.760   8.135   4.723  0.1244  0.0895  0.0988
19171W        W36695  10.788  13.222   2.982 -0.3131 -0.1014 -0.0325
19172W        W36696   8.495  12.165  13.732 -0.1457 -0.2021 -0.0392
19173W        W36697  13.139   8.177  13.049 -0.0430  0.0211  0.2414
19174W        W36698   1.540   9.166   2.986 -0.1940 -0.1613 -0.1731
19175W        W36699   4.906   5.103  17.382  0.3255  0.1272  0.1717
19176W        W36700  14.439  10.785   1.227 -0.0702 -0.0703  0.0712
19177W        W36701   5.905   2.605  16.690  0.2330 -0.0550  0.0527
19178W        W36702  15.990   7.941   2.029  0.3069 -0.0891 -0.2842
19179W        W36703   0.049  11.302  13.073  0.1267 -0.1081 -0.1586
19180W        W36704   1.667   8.281  13.043  0.1966 -0.0530  0.2469
19181W        W36705  11.997   9.246  15.991 -0.1488  0.4413 -0.1067
19182W        W36706   2.215   8.017  15.938  0.0593 -0.0115 -0.1701
19183W        W36707  17.161   8.265  14.335  0.0268  0.4438 -0.1759
19184W        W36708   8.075   4.512   1.755  0.0851  0.1475  0.2413
19185W        W36709  15.319   4.531  17.586 -0.3264 -0.1415  0.2983
19186W        W36710   5.098   8.209  13.006 -0.3981 -0.1017 -0.1378
19187W        W36711   4.775   5.106  14.375  0.1013  0.3535  0.0240
19188W        W36712  13.174   7.849  11.970 -0.1098  0.1575 -0.2384
19189W        W36713   7.723   1.524   6.503  0.0708 -0.0375 -0.1261
19190W        W36714  12.064   0.379  14.478  0.1048  0.0060 -0.1202
19191W        W36715  13.111   2.178   4.340 -0.1353 -0.0102  0.0664
19192W        W36716   0.982  13.466   3.799 -0.0886  0.0398 -0.0189
19193W        W36717  14.240  13.869  14.059 -0.1911  0.2312 -0.1635
19194W        W36718  10.145  12.683   3.478  0.1413  0.0082 -0.0071
19195W        W36719   4.489   3.611   4.113 -0.1349  0.0460 -0.2534
19196W        W36720   9.765  11.558  14.994  0.1849 -0.1626  0.1990
19197W        W36721  12.996   3.066   2.159 -0.1402  0.3074  0.0916
19198W        W36722  13.300  17.203  13.712  0.0532  0.1512 -0.1991
19199W        W36723   3.836  12.355   4.642 -0.0660  0.0634 -0.1228
19200W        W36724   0.828   6.017  16.481  0.1801 -0.1235 -0.1504
19201W        W36725   6.748   1.105  12.293  0.0471 -0.2212 -0.3326
19202W        W36726  11.775  14.241  17.300 -0.1665  0.5870  0.0844
19203W        W36727   5.949   5.189  15.210  0.2170 -0.2280 -0.0478
19204W        W36728   3.743   2.171   3.927  0.1717  0.1085 -0.1492
19205W        W36729   6.869   2.546   1.153 -0.2132 -0.0983 -0.0150
19206W        W36730   5.729   4.713  17.012 -0.3639 -0.0475  0.0572
19207W        W36731  10.169  16.201  12.481 -0.2102 -0.1747 -0.1042
19208W        W36732   8.671   0.016  13.348 -0.0433  0.1265  0.1139
19209W        W36733   8.822   1.823  13.012  0.2811  0.0051  0.1233
19210W        W36734  16.297   0.266   2.527  0.0548  0.2046  0.1874
19211W        W36735   0.591  15.833   0.326  0.0673 -0.2630  0.0060
19212W        W36736   7.578  14.713  12.674  0.0402 -0.1461  0.3738
19213W        W36737  13.322   7.931   1.101  0.0659 -0.2430  0.0906
19214W        W36738  13.752  15.300  16.640  0.0470  0.0242 -0.0181
19215W        W36739  11.908   9.071   0.007 -0.0819 -0.0550 -0.0144
19216W        W36740  11.506  11.187   2.190  0.3851 -0.1712 -0.1356
19217W        W36741  11.943   8.227   5.420  0.1994  0.0741  0.1106
19218W        W36742  14.323   7.338  15.958  0.0057 -0.0183 -0.1357
19219W        W36743   6.510   8.872  17.500 -0.0063  0.0213 -0.2947
19220W        W36744   9.276   3.711  12.903  0.0567  0.1681 -0.2300
19221W        W36745  16.303   7.137  15.660 -0.0763 -0.0036 -0.0897
19222W        W36746   0.423   8.731   3.384  0.0936 -0.1634 -0.0842
19223W        W36747  16.710   6.424   0.109  0.0068  0.1155  0.0679
19224W        W36748  13.763   1.442  13.602 -0.1252  0.0513  0.1836
19225W        W36749   5.388  14.109   2.192 -0.2961 -0.0601  0.0897
19226W        W36750   2.229   2.487   2.072 -0.0353 -0.0685  0.0847
19227W        W36751   2.844  14.011   0.031 -0.4978  0.2142  0.1374
19228W        W36752   1.227   4.696  17.417 -0.1645 -0.0312 -0.0002
19229W        W36753   8.570   2.070  16.001  0.0084  0.1258 -0.2154
19230W        W36754  16.349  15.624  14.622  0.1816 -0.0665  0.0249
19231W        W36755  16.929   2.729   1.704  0.2213 -0.1764 -0.0295
19232W        W36756   5.111  14.478   0.931  0.0264 -0.0822 -0.2249
19233W        W36757   9.136   1.354   2.071  0.0847 -0.0219  0.1509
19234W        W36758   8.957   6.322   4.772 -0.0782 -0.1438  0.2603
19235W        W36759  10.627  12.004  17.342 -0.2589  0.0936  0.0659
19236W        W36760   9.007   0.058  13.850  0.1293 -0.1850 -0.1551
19237W        W36761   5.241   8.647   1.283  0.4943  0.0937 -0.0412
19238W        W36762  12.944   9.397  16.992  0.0371  0.2743 -0.1287
19239W        W36763  13.340  14.816  15.249  0.1800  0.2146 -0.1175
19240W        W36764  11.342   2.679  13.716 -0.0019 -0.0965  0.1098
19241W        W36765   7.324  10.574  14.839 -0.1664  0.3291  0.0946
19242W        W36766   6.656  13.598   1.639  0.0945  0.1672 -0.2002
19243W        W36767  11.912  14.812   1.021 -0.1915 -0.0822  0.0306
19244W        W36768  17.043   2.730  12.610 -0.0914  0.1926 -0.1950
19245W        W36769  13.966   1.779   2.442 -0.1850  0.0758  0.1030
19246W        W36770   8.641   9.433  12.318  0.0407  0.0948 -0.2015
19247W        W36771   2.027  12.601  16.839 -0.2254 -0.0275 -0.2903
19248W        W36772  13.762  12.200   4.950 -0.2497  0.2460 -0.1837
19249W        W36773   2.593   5.205   0.708 -0.1947 -0.2031  0.0240
19250W        W36774   2.342   3.591  12.473 -0.0859 -0.0667 -0.4022
19251W        W36775   4.190  14.405  15.682  0.1798 -0.1155  0.1881
19252W        W36776  11.767   2.059  15.331 -0.1302 -0.1798  0.1330
19253W        W36777  15.622   7.291  11.966 -0.0169 -0.3739  0.0526
19254W        W36778  12.183   1.962  15.610  0.1374  0.2670 -0.1350
19255W        W36779   5.735   3.198  14.146 -0.1051 -0.1382  0.4342
19256W        W36780  16.855  12.151   1.664  0.0283 -0.0085  0.1706
19257W        W36781  16.234   1.446   3.104  0.1180 -0.2482 -0.0784
19258W        W36782   3.089  12.736  12.341 -0.4041 -0.4258  0.2309
19259W        W36783   3.018  12.692  16.359 -0.0148 -0.1080  0.0768
19260W        W36784   9.656   7.749   0.017 -0.2374 -0.2987  0.3538
19261W        W36785   7.728  14.064  16.542 -0.1316 -0.2490  0.0133
19262W        W36786   7.959   2.736   0.329 -0.0514  0.2321  0.1303
19263W        W36787  10.833  15.671   4.536 -0.2798 -0.1118 -0.1848
19264W        W36788  14.276   3.591  15.858  0.0197  0.2399 -0.0263
19265W        W36789  12.583  11.545  17.586  0.2031  0.2724 -0.0832
19266W        W36790  12.888   5.543  11.326 -0.1920 -0.0609 -0.2120
19267W        W36791   7.175   1.217   1.372  0.2247 -0.1108 -0.2191
19268W        W36792   3.008   3.949  15.912  0.1171 -0.1012 -0.0735
19269W        W36793   7.061   7.044   4.363  0.3482 -0.0901 -0.1471
19270W        W36794   4.592   8.717   3.265  0.0949 -0.1327 -0.0776
19271W        W36795   8.108  16.268   3.538 -0.0351 -0.0323  0.0030
19272W        W36796   9.988   3.043  13.278  0.0707 -0.0543 -0.1343
19273W        W36797  16.008  13.453  12.063 -0.0900  0.0780  0.0138
19274W        W36798  14.556   3.307  12.093  0.0119 -0.0199 -0.1092
19275W        W36799  15.292  12.510   2.332  0.1484  0.2310  0.2026
19276W        W36800  11.431   1.206  16.508  0.0803 -0.1657 -0.0563
19277W        W36801  15.036  17.121  16.955  0.3266 -0.2975  0.1601
19278W        W36802   3.536   5.839   3.247  0.0038 -0.2100 -0.1013
19279W        W36803   4.580  15.354   1.309  0.1239  0.1173  0.3616
19280W        W36804  11.153   2.777   4.995  0.0796  0.1129 -0.1828
19281W        W36805  15.194   1.268  12.647  0.0624  0.0765 -0.3925
19282W        W36806   0.925  11.450  14.044  0.0231 -0.0653 -0.2049
19283W        W36807   1.166  11.540   2.025 -0.0584 -0.2405 -0.1930
19284W        W36808   9.903   3.879  16.544  0.1462 -0.0676  0.2442
19285W        W36809  16.759   3.053   4.286 -0.0275  0.0376 -0.1334
19286W        W36810  11.250  13.244  13.786  0.0188  0.4661 -0.0462
19287W        W36811  10.263  10.576   3.265 -0.1745  0.1504 -0.1800
19288W        W36812   0.045  11.235  16.385  0.1811 -0.1932  0.0451
19289W        W36813   1.935   3.102   1.140  0.0038  0.1567 -0.0540
19290W        W36814   6.897  11.991   5.540 -0.4146  0.2166 -0.2597
19291W        W36815   4.756   4.461   5.240  0.0169 -0.0325 -0.4902
19292W        W36816   3.796  13.757   5.481  0.1977 -0.0884  0.2073
19293W        W36817   5.476   5.059  12.675 -0.1574 -0.0910  0.2447
19294W        W36818   9.294   7.996   5.383 -0.0290 -0.3171  0.0476
19295W        W36819   1.010  10.792   1.596 -0.1064  0.1021 -0.2201
19296W        W36820  11.731  14.848   3.355  0.0451  0.3109  0.0786
19297W        W36821   9.399   7.979   3.410 -0.1313 -0.0128 -0.1699
19298W        W36822   7.323   9.258  16.931  0.1097  0.2331 -0.0805
19299W        W36823   4.882   3.782   4.376  0.0290 -0.0948 -0.1173
19300W        W36824   7.629  15.414  13.439  0.0355  0.1786  0.0208
19301W        W36825   7.995   4.506   3.143 -0.0769  0.0163 -0.0080
19302W        W36826   6.094   0.687  15.029  0.0076  0.0177 -0.1341
19303W        W36827   1.634   4.401  17.175 -0.1151 -0.0188  0.0745
19304W        W36828   2.806  17.165  17.201  0.0873 -0.0385  0.3380
19305W        W36829  11.658   9.194  13.985 -0.1488  0.1771  0.0347
19306W        W36830   1.846  15.832   0.531  0.2726  0.3258  0.0635
19307W        W36831   0.559   1.791  16.126 -0.2656 -0.3111  0.1819
19308W        W36832  14.465   5.050   4.779 -0.1678  0.0596 -0.1272
19309W        W36833   4.468   5.324  16.550  0.0393 -0.1673 -0.1112
19310W        W36834   2.743   5.367  16.481 -0.1769 -0.3205  0.0132
19311W        W36835  17.146   1.322   3.355  0.1584  0.0955 -0.2587
19312W        W36836  16.510  11.827  12.380  0.0569  0.0094 -0.2241
19313W        W36837  11.828   8.437   4.975  0.0410 -0.0928  0.0212
19314W        W36838  15.488   0.088   2.656  0.2176  0.0996 -0.1966
19315W        W36839  10.372   3.758   2.843  0.1578  0.1403  0.0248
19316W        W36840   4.142   4.920  12.210  0.0308  0.2113 -0.0508
19317W        W36841  12.798   8.588   3.381 -0.1979 -0.2852  0.1207
19318W        W36842  12.130  17.230  13.492 -0.2318  0.0588 -0.0493
19319W        W36843   7.217  11.442   3.208  0.1452 -0.1022  0.1798
19320W        W36844  11.444  14.707  14.273  0.0871 -0.0146 -0.3128
19321W        W36845  13.743  12.792  13.023 -0.3971  0.0849  0.4000
19322W        W36846  14.963   5.995   3.748 -0.0176  0.4264  0.0200
19323W        W36847   6.540  14.265   4.015  0.1719 -0.1920  0.0567
19324W        W36848   1.556  10.525   4.196 -0.0332  0.0231  0.4234
19325W        W36849  13.891  10.178   2.087  0.2063 -0.0409 -0.1553
19326W        W36850   0.281  12.975   3.387  0.1206 -0.0849 -0.1671
19327W        W36851   3.485  11.718  13.837  0.0994  0.1170  0.1735
19328W        W36852  12.420   4.483  12.675 -0.0120 -0.1441 -0.0106
19329W        W36853   1.387   3.738  13.405 -0.0409  0.1318  0.0802
19330W        W36854   5.135  11.453   3.470  0.0776  0.0883 -0.0263
19331W        W36855   1.293   7.592  14.436  0.0341  0.2540  0.2231
19332W        W36856  11.119  10.502  13.546 -0.0361 -0.1338  0.0174
19333W        W36857   2.915  17.190   0.762 -0.0535  0.4091  0.0659
19334W        W36858   6.915   9.085   0.064  0.1713 -0.1966  0.2106
19335W        W36859   1.943  16.720   2.648 -0.2719  0.0856 -0.0988
19336W        W36860  10.306   4.487  12.192  0.1277 -0.1777 -0.0035
19337W        W36861   9.588  13.964   4.842  0.0677  0.1494  0.0013
19338W        W36862   8.548  12.282   1.098 -0.2445 -0.1885  0.2244
19339W        W36863  12.894   8.086  13.692 -0.2284 -0.1478 -0.1656
19340W        W36864  13.379   4.102   0.943 -0.1482  0.0355  0.1368
19341W        W36865   8.379  14.051  13.998 -0.5204 -0.0636 -0.0543
19342W        W36866   9.119  13.596  13.689  0.0121  0.4132  0.0369
19343W        W36867  15.799   1.097   4.755  0.0597 -0.3254 -0.2228
19344W        W36868  15.014  15.400   1.917  0.0418 -0.0237  0.1568
19345W        W36869   4.689   9.175  13.289 -0.0686  0.1034 -0.0184
19346W        W36870   1.619   4.129  14.478  0.0508 -0.0090  0.1741
19347W        W36871   3.342   1.140  15.050  0.1572  0.0040 -0.1833
19348W        W36872  16.144  10.967  17.574 -0.2391 -0.1403  0.4394
19349W        W36873   2.973  13.429   3.288  0.1496  0.2047  0.1202
19350W        W36874   4.779  10.970  15.882  0.0664 -0.0639  0.0653
19351W        W36875   0.031  13.796   2.895  0.1476  0.0088 -0.1309
19352W        W36876   9.041  16.601  14.466  0.2775  0.1929 -0.1456
19353W        W36877  11.418   3.539  12.508  0.1240  0.0604  0.0755
19354W        W36878  10.322   1.006   3.569 -0.0984 -0.1163 -0.0283
19355W        W36879  11.381  15.730   2.312 -0.1015  0.1078 -0.1290
19356W        W36880  15.640   4.685   2.154 -0.1388  0.1362  0.2851
19357W        W36881   2.255   6.521   2.014  0.0555 -0.1624 -0.0082
19358W        W36882   2.024   4.852  15.272  0.2551  0.0200  0.1489
19359W        W36883   6.515  12.631  15.509 -0.0693 -0.1222 -0.1013
19360W        W36884   7.190   3.599   4.709  0.0226  0.0854  0.0263
19361W        W36885   1.663  11.529  14.721 -0.1478 -0.0408  0.2655
19362W        W36886  15.761  10.350  15.745  0.3634 -0.0639 -0.1285
19363W        W36887   3.230   9.139  16.749  0.2451 -0.2519  0.3296
19364W        W36888  11.267   6.923   5.834  0.1272  0.1161  0.1706
19365W        W36889  11.526  10.217   2.039 -0.1222  0.0113  0.0630
19366W        W36890   2.415  14.432  16.179 -0.3236  0.0651 -0.0276
19367W        W36891   6.981  13.218   3.979  0.1584 -0.0814 -0.2822
19368W        W36892  10.113   6.613   2.861 -0.3169 -0.1456 -0.0254
19369W        W36893   5.580   2.856  13.708 -0.0153  0.3732  0.1135
19370W        W36894   9.163   5.732   3.733  0.1467  0.1595 -0.1847
19371W        W36895  14.949   5.337  12.133  0.0550  0.1315  0.0810
19372W        W36896  13.082   4.179  13.224  0.0176 -0.2667 -0.0832
19373W        W36897   1.901  14.333  14.878  0.1317  0.1516 -0.3628
19374W        W36898  16.906   4.664   3.281 -0.0036 -0.0198  0.1385
19375W        W36899  15.915   4.124  14.796 -0.0418 -0.3060 -0.0242
19376W        W36900   4.426  10.454   4.517 -0.2568  0.1648 -0.1396
19377W        W36901   8.614   0.627   2.241  0.0776 -0.0576 -0.0063
19378W        W36902   2.293  14.974  14.349 -0.0576 -0.1626 -0.1759
19379W        W36903  13.451   6.685  12.673 -0.0513  0.0006  0.1505
19380W        W36904   6.107   3.617   5.091  0.1051  0.0786 -0.4645
19381W        W36905   3.398   2.270   1.609  0.1363  0.0166  0.0241
19382W        W36906   9.747  15.229   4.659 -0.1831 -0.0566 -0.0974
19383W        W36907   4.246   1.395   4.038 -0.0982  0.0505  0.0526
19384W        W36908  11.904   1.543   0.452 -0.0571  0.0165  0.1961
19385W        W36909   9.629   5.722   0.628  0.0827  0.0356 -0.1977
19386W        W36910  13.057   0.228   0.878 -0.1132 -0.0216  0.0814
19387W        W36911   8.471   1.720  13.645 -0.2392 -0.2421 -0.2241
19388W        W36912   7.589   1.044   2.587  0.0920 -0.1575  0.0282
19389W        W36913  14.719   3.828   2.407  0.1271  0.0703 -0.3181
19390W        W36914  12.200   0.060   1.938 -0.1995 -0.0572  0.0783
19391W        W36915   8.851   5.215   3.853 -0.1318 -0.0474  0.1760
19392W        W36916   7.100  10.189   3.515  0.2998  0.0882 -0.0584
19393W        W36917  16.298  17.116   5.324 -0.0191 -0.0209  0.4022
19394W        W36918  11.749  14.247   5.402 -0.2963 -0.1111 -0.2345
19395W        W36919   5.080  13.870  13.731  0.0009  0.0837  0.0432
19396W        W36920  11.524  14.388   3.516 -0.3376  0.0971 -0.1242
19397W        W36921  11.688   2.466   4.146 -0.1504 -0.2076 -0.0242
19398W        W36922  12.264   6.152   1.198  0.0652  0.2230  0.1641
19399W        W36923  16.751   3.029   3.758 -0.1108 -0.0352 -0.0894
19400W        W36924   4.843   3.746  15.119 -0.0087 -0.0764 -0.1424
19401W        W36925   0.746  12.951   3.084 -0.0116  0.1761 -0.2945
19402W        W36926   0.838   9.681  15.187  0.2463  0.0257  0.2704
19403W        W36927  11.729   6.160   4.491 -0.1171 -0.1161  0.0207
19404W        W36928   9.970  15.296   0.977  0.1458 -0.2462 -0.1073
19405W        W36929   1.575   0.176  16.002 -0.0215 -0.2374  0.2063
19406W        W36930   6.731   8.635   4.785 -0.0595  0.0005 -0.1292
19407W        W36931   6.902   7.480  12.708 -0.0649  0.2454  0.0884
19408W        W36932   4.315  11.110   2.452 -0.1779 -0.0936 -0.0448
19409W        W36933  12.601  12.674  11.157  0.1897 -0.0029  0.0303
19410W        W36934  14.348  12.181  11.972  0.2033 -0.1460 -0.1902
19411W        W36935   7.343   7.825   3.866  0.0638  0.2543 -0.4097
19412W        W36936   1.836  13.463  13.549  0.0786 -0.1729 -0.2212
19413W        W36937  11.203   6.503  15.100 -0.3138  0.0468 -0.0257
19414W        W36938   4.268   2.918   0.328 -0.0196 -0.1572 -0.3146
19415W        W36939  12.446   2.689  12.959  0.3334 -0.1115  0.1035
19416W        W36940   1.748  12.202  12.689  0.1509 -0.0792 -0.5062
19417W        W36941  12.863  15.172  14.941  0.2190 -0.0360 -0.3908
19418W        W36942  10.028   9.325   3.728 -0.0099 -0.1526  0.0024
19419W        W36943  14.864   2.191  17.070 -0.0273  0.1491 -0.1059
19420W        W36944   1.764   0.606  11.968  0.0331 -0.1776 -0.2208
19421W        W36945  12.551  15.808   2.833  0.2297  0.0826 -0.0588
19422W        W36946   1.723  16.822  17.196  0.1493 -0.0250 -0.1905
19423W        W36947   3.133   6.615  14.362 -0.1891  0.1556  0.0241
19424W        W36948  16.725  11.106  12.777 -0.0981 -0.0768 -0.1564
19425W        W36949   1.454   1.643   0.520 -0.1597  0.0976  0.0735
19426W        W36950   4.144   2.847  16.843 -0.0999 -0.1915 -0.1210
19427W        W36951   5.478   1.602  12.436 -0.1391 -0.1525 -0.1512
19428W        W36952   4.246   1.997  11.876  0.1769 -0.1826  0.1865
19429W        W36953   5.633   9.338   1.897 -0.2100  0.1363 -0.1194
19430W        W36954   3.196   6.266   3.048 -0.0134 -0.1631  0.0628
19431W        W36955  16.576  11.597  16.154  0.0938 -0.0908  0.1159
19432W        W36956   3.240  10.725  13.757  0.0631 -0.1878  0.1968
19433W        W36957  10.508   8.364   4.663  0.1911 -0.0028  0.2028
19434W        W36958  13.142   5.585   3.958  0.0374  0.0550  0.0721
19435W        W36959  10.858  10.766   0.348 -0.0853  0.1931  0.1787
19436W        W36960   9.152   1.451  13.811  0.0253 -0.1905 -0.1861
19437W        W36961   9.719  13.863   0.101 -0.2911 -0.4286  0.0254
19438W        W36962   1.924  15.633   2.735 -0.2988 -0.1324 -0.0975
19439W        W36963   4.129   9.304   0.745  0.4590 -0.1342 -0.1703
19440W        W36964   8.522   3.913   4.281  0.0501  0.0743  0.1344
19441W        W36965  10.759   7.737   2.479 -0.2710 -0.0131  0.1519
19442W        W36966   2.508  14.567  14.188 -0.1654  0.1466 -0.0513
19443W        W36967   0.625  10.079  15.514 -0.0095  0.1100  0.1391
19444W        W36968  13.799   0.371   4.788  0.1270  0.2498  0.2403
19445W        W36969   5.960   6.144   3.776 -0.0103 -0.1138  0.0894
19446W        W36970   5.361  11.880   3.315  0.2073 -0.3312  0.0506
19447W        W36971   4.111  16.995  15.292 -0.0968 -0.0287  0.3050
19448W        W36972   5.347  12.463  13.497 -0.2763 -0.0779  0.1177
19449W        W36973  13.522   0.764   4.119 -0.1293  0.2490  0.0187
19450W        W36974  11.408  15.119  14.955  0.2680  0.2692  0.2355
19451W        W36975   3.561   4.565  12.199 -0.0877  0.4749  0.0286
19452W        W36976  11.524  10.725   5.123  0.2482  0.1541 -0.0882
19453W        W36977  13.300  12.315   3.234  0.3038  0.0702 -0.0539
19454W        W36978  16.984  15.175   3.270  0.1855  0.1780 -0.0688
19455W        W36979  12.618   2.704   3.017  0.1481  0.0396  0.0232
19456W        W36980   4.432   0.219   2.538  0.0804 -0.2861  0.0056
19457W        W36981   6.377  17.022   4.796  0.3093  0.3721 -0.3296
19458W        W36982  14.051   1.962   5.635  0.0568  0.2215 -0.2879
19459W        W36983   4.484  17.161  12.363  0.1439 -0.2038 -0.2555
19460W        W36984  16.667   9.261   4.533  0.0326  0.2042  0.2626
19461W        W36985  13.772  13.503   3.722 -0.3240  0.2668 -0.0396
19462W        W36986  15.478  15.527   0.777  0.1084 -0.0515 -0.1601
19463W        W36987   3.017   5.424   3.904  0.2384 -0.0782 -0.3221
19464W        W36988   3.897   9.790  17.099 -0.0180 -0.0467  0.0786
19465W        W36989  14.952   5.381  15.549 -0.0494  0.1604 -0.2754
19466W        W36990   2.336   7.835  12.655 -0.0001 -0.0650  0.1217
19467W        W36991   5.116   4.460   2.337  0.2350 -0.3172 -0.0459
19468W        W36992   4.657   6.818   1.468  0.2515  0.0279 -0.0818
19469W        W36993  16.165   8.026  16.494  0.0078 -0.1321  0.2270
19470W        W36994   8.209   9.365   1.740 -0.0206 -0.2563 -0.3170
19471W        W36995   0.112  13.617   0.656  0.0931  0.1023  0.1132
19472W        W36996  15.481   2.902   4.075 -0.0436  0.2592  0.1277
19473W        W36997   7.753  15.542   2.729  0.3153  0.3401 -0.3174
19474W        W36998  14.728  15.290  16.870 -0.1188 -0.0353  0.0462
19475W        W36999   0.095   4.485  15.414  0.2084  0.2646  0.1117
19476W        W37000   5.087   7.665   4.687  0.0596 -0.2234  0.0072
19477W        W37001   8.956   7.109  13.726  0.1836  0.2144 -0.2875
19478W        W37002  16.419   5.386  15.932 -0.0355  0.0506 -0.0354
19479W        W37003  13.461   3.950  13.835  0.0414 -0.2237 -0.1472
19480W        W37004  16.168   0.686  15.813 -0.0148 -0.0629  0.0169
19481W        W37005  16.392   9.633  16.036  0.3240  0.3433  0.1902
19482W        W37006   7.635   0.170  12.925 -0.2746 -0.0444 -0.2283
19483W        W37007  10.202  16.732   2.725 -0.1783 -0.3592 -0.0015
19484W        W37008   2.992   1.192   3.238  0.0584 -0.0259 -0.0233
19485W        W37009  16.194   1.580  15.231 -0.2913  0.1661  0.1496
19486W        W37010  13.671  10.459  16.539 -0.1271  0.0227  0.1652
19487W        W37011   8.018   2.700  14.493  0.1728  0.0356 -0.0846
19488W        W37012   8.374   3.045  17.388  0.0677 -0.0586 -0.1850
19489W        W37013  12.117   1.919  12.853 -0.0956 -0.0730 -0.1132
19490W        W37014  14.533   6.664   0.619 -0.0841 -0.2223  0.0396
19491W        W37015   5.843  15.535   2.375  0.3676 -0.1455 -0.1719
19492W        W37016   1.285   5.573  13.452 -0.2663 -0.0822  0.2551
19493W        W37017   2.111   8.840   2.158 -0.0654  0.1673 -0.0086
19494W        W37018  11.277  12.507   5.155  0.0386 -0.0011  0.1962
19495W        W37019  17.205   5.448  17.084  0.1466 -0.3452 -0.2621
19496W        W37020  15.666  17.015  15.042  0.1920 -0.1205  0.1321
19497W        W37021   5.504   1.491  15.356  0.1586 -0.2528  0.1070
19498W        W37022   8.035   4.317  17.071  0.2200 -0.0322 -0.2334
19499W        W37023  16.315  17.055   2.859 -0.3576 -0.2607 -0.1008
19500W        W37024   9.164  14.682   0.248 -0.0126 -0.1922 -0.0462
19501W        W37025   3.023  16.030  13.653  0.0312  0.0893  0.0196
19502W        W37026  14.073  11.409  14.639 -0.1303 -0.0589 -0.2496
19503W        W37027   3.276  12.526  12.790  0.0921 -0.0094 -0.2125
19504W        W37028  15.970  10.954   1.551 -0.0735 -0.1432 -0.1236
19505W        W37029   5.307   9.102  15.614 -0.2424  0.0526  0.0094
19506W        W37030  10.545  12.175  15.127  0.2085  0.1420  0.2158
19507W        W37031  10.974  11.879   5.432 -0.1720 -0.0839  0.2347
19508W        W37032   9.715  16.929  15.639 -0.2972 -0.0459  0.2263
19509W        W37033  14.868   4.193   4.474  0.3182 -0.0421 -0.2983
19510W        W37034  16.103  11.325  16.320 -0.0339 -0.1177 -0.1376
19511W        W37035   9.594   3.181  14.230  0.0207  0.0096  0.3905
19512W        W37036   6.264   9.892   1.584  0.1721  0.1556  0.1165
19513W        W37037   9.334   4.344   0.515  0.1033 -0.2237  0.1160
19514W        W37038   3.448  10.380   2.035 -0.1101  0.1137 -0.0443
19515W        W37039   5.822   5.539   4.037  0.0608 -0.0953 -0.2241
19516W        W37040   5.859  17.194   4.933 -0.0703  0.0153 -0.3060
19517W        W37041   7.690   2.798   4.167  0.2959 -0.0111  0.0940
19518W        W37042   8.484   9.698  14.117 -0.0896 -0.2500 -0.3736
19519W        W37043  16.090  11.078  13.838  0.0195  0.1493  0.4088
19520W        W37044   5.749  14.900  15.213 -0.1164 -0.0393 -0.3746
19521W        W37045  16.505  11.351   3.523 -0.0537  0.0016 -0.0663
19522W        W37046   2.073   1.859   2.105 -0.1564  0.0020  0.1278
19523W        W37047   5.894  15.625  14.100  0.3191  0.2372 -0.4990
19524W        W37048   5.013  12.094  13.584 -0.0471 -0.1607  0.4660
19525W        W37049   2.034  14.722   4.912 -0.0185 -0.0214 -0.0465
19526W        W37050  15.616  13.749   2.006  0.3696 -0.3313  0.1600
19527W        W37051  17.029  14.750  17.149  0.2061 -0.2226  0.0802
19528W        W37052  16.285   1.106   3.497 -0.0815  0.3277 -0.0413
19529W        W37053  12.083   8.940  13.886  0.2193  0.0837 -0.0723
19530W        W37054  12.632   3.113  15.515 -0.2231 -0.2632 -0.0469
19531W        W37055  14.446   4.208  12.679 -0.1899 -0.1211  0.2367
19532W        W37056  16.645  15.896  14.229 -0.0665 -0.1148  0.1123
19533W        W37057   0.926   8.927  11.081  0.2776  0.0582  0.0004
19534W        W37058   6.919   4.807  16.020  0.0146 -0.1756 -0.1782
19535W        W37059   5.144   2.826  13.323  0.2750 -0.0144 -0.2306
19536W        W37060   4.141  10.130  15.758  0.1636 -0.0367  0.1449
19537W        W37061   1.749   3.530   2.428  0.2562  0.1935  0.1369
19538W        W37062   5.735  11.818  12.463  0.3726  0.1191 -0.1893
19539W        W37063   4.914  16.870  14.687 -0.1622 -0.0291 -0.1966
19540W        W37064   3.724   5.624   5.530 -0.0391 -0.0874  0.0708
19541W        W37065   6.063   7.657   2.453 -0.1187  0.0751  0.2547
19542W        W37066   5.416   5.720   5.107 -0.0978  0.1420  0.1884
19543W        W37067  17.034   8.903   2.447  0.0070  0.2099  0.3944
19544W        W37068  11.758   3.438   2.002  0.2386  0.0419 -0.1272
19545W        W37069  15.600   9.155  14.093 -0.3340  0.2783 -0.1272
19546W        W37070   3.402   9.797  17.495  0.1392 -0.3093  0.0176
19547W        W37071  10.988   2.752  16.818 -0.1804 -0.2462 -0.0546
19548W        W37072  11.299   1.356   3.173  0.0702  0.3320 -0.4499
19549W        W37073   4.291   9.375  17.483 -0.1317 -0.3470  0.0279
19550W        W37074   4.891  17.188  14.232 -0.1473 -0.1100 -0.2438
19551W        W37075  16.843   1.830  12.120  0.1659 -0.0488 -0.0593
19552W        W37076   0.519   7.881  17.254  0.0145 -0.2328  0.0435
19553W        W37077   3.808   2.702   3.127 -0.2207 -0.1816  0.2329
19554W        W37078   4.049  11.194  12.942 -0.0696 -0.1582 -0.0341
19555W        W37079   3.460   4.232   5.016 -0.1509 -0.1412  0.2464
19556W        W37080   7.969   0.456  17.417 -0.1146  0.0287 -0.2444
19557W        W37081   9.935   2.188  14.278 -0.0293 -0.1049  0.0252
19558W        W37082  13.502  12.938  17.436  0.1910 -0.1051  0.1155
19559W        W37083   4.796   6.122  14.984  0.0929 -0.0940  0.1177
19560W        W37084   5.244   2.010  13.877  0.1409 -0.0112  0.1364
19561W        W37085  16.040   0.689   2.494  0.0708 -0.1417  0.2848
19562W        W37086   7.950  16.979  16.584 -0.1420  0.1152 -0.1040
19563W        W37087   4.755   2.460   1.294 -0.3295 -0.0060  0.1768
19564W        W37088   3.465   5.480   0.110  0.0172  0.1968  0.1923
19565W        W37089   7.247   8.593  16.302  0.0952 -0.1260  0.1692
19566W        W37090   5.260  11.891  12.675  0.1556 -0.0938  0.2536
19567W        W37091   5.163   4.698   1.053 -0.2439 -0.0672 -0.1153
19568W        W37092   6.164  15.141   0.026  0.1279 -0.2342 -0.1364
19569W        W37093   5.945   2.495  15.650 -0.0790  0.1682  0.1828
19570W        W37094   5.869  10.525  13.008  0.0767  0.0352 -0.2361
19571W        W37095   5.602  13.546  15.062  0.0236 -0.0576  0.3483
19572W        W37096   5.628   5.975   4.632  0.2243  0.0167 -0.1118
19573W        W37097   2.040   9.282   4.826 -0.1132 -0.0902  0.0825
19574W        W37098   2.276  17.168  14.553 -0.3859 -0.1397 -0.0980
19575W        W37099   5.917   7.122  17.360 -0.1160  0.1154  0.0749
19576W        W37100  13.036  15.847   3.299  0.1582  0.2156  0.0602
19577W        W37101   9.994   4.063   3.590  0.0641  0.0176  0.0999
19578W        W37102  11.278   2.601   1.075  0.0779  0.1587  0.0768
19579W        W37103   5.285  13.960  15.556  0.1464 -0.3068 -0.0618
19580W        W37104  10.896   9.289  14.749 -0.0757 -0.1067 -0.0462
19581W        W37105   7.983   7.468   0.538  0.1896  0.3721 -0.0665
19582W        W37106  15.620   5.339  14.576  0.3233  0.2524  0.0090
19583W        W37107  12.958   7.580   1.223 -0.2084  0.2352 -0.1816
19584W        W37108  16.673   7.401   4.188  0.0697 -0.0467  0.1473
19585W        W37109   0.775  12.252   4.417 -0.1973 -0.1200  0.0137
19586W        W37110  15.682   6.883   3.257  0.3281  0.1006 -0.2364
19587W        W37111  16.053  13.473   1.185  0.0930 -0.1140  0.0775
19588W        W37112   9.224   7.067  17.252  0.2207  0.0052  0.1717
19589W        W37113   7.186   3.913   2.883 -0.0717  0.0476  0.2069
19590W        W37114  13.558  13.990   1.101  0.4138  0.0521  0.1758
19591W        W37115   7.764  15.899   4.272  0.3153 -0.0716 -0.2482
19592W        W37116   9.231   1.042  17.036 -0.2306  0.0420  0.4405
19593W        W37117  11.543   3.611   1.357  0.0079  0.1340  0.0742
19594W        W37118   3.482   1.187   4.744 -0.0180 -0.1870  0.1940
19595W        W37119   7.738   2.565   4.878  0.1195 -0.0536  0.0365
19596W        W37120   3.381   9.648   0.804 -0.1895  0.1261  0.1295
19597W        W37121  10.504  16.005   4.777 -0.0336  0.1300  0.0215
19598W        W37122  10.639   5.672   2.113  0.1273  0.0833  0.1483
19599W        W37123   3.793   3.850   3.552 -0.0212 -0.0297  0.1919
19600W        W37124   0.357   0.679  13.234  0.0928 -0.1585 -0.1147
19601W        W37125   7.567   6.658  16.303  0.2384  0.3250 -0.2441
19602W        W37126   8.435  14.335  17.331 -0.1709  0.3027 -0.4234
19603W        W37127   0.126   1.627  17.430  0.0665 -0.2093  0.1209
19604W        W37128  14.653   2.256  15.992 -0.0813 -0.1480 -0.2706
19605W        W37129   3.069  14.571   1.159 -0.0741 -0.1988 -0.0820
19606W        W37130  13.003   6.569  11.023  0.1077  0.0490  0.0207
19607W        W37131  15.495   3.099   2.477 -0.0133 -0.0945  0.1456
19608W        W37132   5.343   1.808   4.022 -0.2030  0.0952  0.2983
19609W        W37133  15.330   5.088  11.899 -0.1382  0.2278  0.1410
19610W        W37134   3.672   9.840   0.334 -0.2247  0.1134  0.1516
19611W        W37135   2.993  10.626  14.520 -0.2226  0.0781 -0.0515
19612W        W37136   1.400  11.276   5.260 -0.1370  0.1720  0.1759
19613W        W37137   8.257  15.663   2.058  0.2141 -0.0082  0.0086
19614W        W37138  10.078   9.881   0.832  0.2947 -0.0323 -0.1307
19615W        W37139  14.955   3.073  16.116  0.0241  0.2524  0.3198
19616W        W37140   0.155  17.033  12.121  0.0506  0.2904  0.2657
19617W        W37141   3.607  14.166   0.555 -0.1472 -0.2577  0.1892
19618W        W37142  14.383   8.082   0.183 -0.0162 -0.1552  0.0407
19619W        W37143   9.936  11.112  15.080 -0.0292  0.0496 -0.0542
19620W        W37144   7.815  10.522   2.514  0.1002  0.1667 -0.2634
19621W        W37145  12.011   1.018   0.642 -0.1289  0.2630  0.0018
19622W        W37146  14.210   8.383  13.701  0.1811 -0.2201 -0.1091
19623W        W37147  13.487  12.995   4.910  0.1740  0.1098 -0.2387
19624W        W37148  10.507   4.670   3.059 -0.0574  0.0794 -0.1032
19625W        W37149  10.666  11.494   1.525  0.1829  0.1115  0.2029
19626W        W37150  13.327   1.065  16.216  0.1147  0.0857 -0.0542
19627W        W37151   4.225  16.756   5.676 -0.0524 -0.2871 -0.1156
19628W        W37152  11.100   8.378   0.118 -0.0469  0.1450  0.0211
19629W        W37153   1.200   0.617   1.405  0.1591  0.0629  0.1126
19630W        W37154  14.924   2.492   3.038  0.2098 -0.0656 -0.1126
19631W        W37155   9.044   7.018   2.900 -0.0168 -0.1610  0.2489
19632W        W37156  12.950   1.109   3.271 -0.1295 -0.0834 -0.1258
19633W        W37157  11.376  16.054  15.264 -0.1762 -0.1333  0.0432
19634W        W37158   1.162  11.803  14.994  0.0173 -0.0111  0.1986
19635W        W37159  14.349  15.889   2.732 -0.2034  0.2077  0.1609
19636W        W37160   9.067   6.813   4.606  0.1265 -0.0623 -0.1937
19637W        W37161   6.084   5.038  15.716 -0.2742  0.0662 -0.0592
19638W        W37162  10.159  14.662   0.063 -0.1599  0.1454  0.1637
19639W        W37163  13.828   8.988   1.327  0.0466 -0.3907  0.0721
19640W        W37164   0.346  16.059  12.208  0.1562 -0.2998 -0.6206
19641W        W37165  17.050   8.449  17.320  0.1259 -0.2692 -0.0682
19642W        W37166   2.271  12.456   5.036  0.1170  0.1699  0.2154
19643W        W37167  15.784  11.687  16.156 -0.2174  0.2742  0.0622
19644W        W37168  14.340  10.775   0.300  0.0174 -0.0919  0.1693
19645W        W37169  10.356   2.865   5.037 -0.0284  0.1135  0.5313
19646W        W37170   7.561  15.843   5.154  0.0374  0.1485 -0.3283
19647W        W37171  13.699  13.382   0.090  0.1975 -0.2518 -0.3861
19648W        W37172   0.969   7.923   3.185 -0.1098  0.0707  0.2674
19649W        W37173   5.077  10.876  12.307  0.0227 -0.1325  0.0600
19650W        W37174   8.082   6.539  13.773 -0.1316 -0.0475 -0.2169
19651W        W37175   3.758   2.645  17.617 -0.0944 -0.0967 -0.4296
19652W        W37176  15.522   0.466   5.024  0.2972 -0.0413 -0.0032
19653W        W37177  16.128   5.505   2.601 -0.2640  0.3801 -0.0180
19654W        W37178  16.938   7.777  14.283 -0.0097 -0.1976 -0.2464
19655W        W37179  15.130  16.969  14.671 -0.3005 -0.2553  0.0569
19656W        W37180   0.262   0.813   0.950 -0.0669  0.1309  0.0846
19657W        W37181   1.867   7.160  15.018 -0.0608 -0.2731 -0.1682
19658W        W37182   7.854   6.626   4.237  0.0744  0.1466  0.2625
19659W        W37183  14.953   5.032  12.548  0.0677 -0.1348 -0.1865
19660W        W37184  14.805  16.990  15.525  0.0083  0.4314 -0.0901
19661W        W37185   0.195   4.182   4.235 -0.1817 -0.2107  0.3734
19662W        W37186   8.210  17.041   3.088  0.0432 -0.0131 -0.0873
19663W        W37187   8.657   7.187   1.613 -0.0403  0.1711 -0.1638
19664W        W37188   1.635  15.439  17.443 -0.0902  0.1165  0.0493
19665W        W37189   7.919   1.848   4.185 -0.0281 -0.2479 -0.0440
19666W        W37190  14.173  11.309  16.084  0.1620  0.1510  0.4604
19667W        W37191   7.165   6.851  15.314  0.1253  0.1120 -0.2209
19668W        W37192  15.801   9.741  17.236 -0.2644 -0.0591 -0.0599
19669W        W37193   0.899   0.950   0.357  0.0188  0.3326 -0.2303
19670W        W37194   9.735  14.737   2.312 -0.0976  0.1687 -0.0577
19671W        W37195  13.948  15.396   3.028 -0.0575  0.0608 -0.0411
19672W        W37196   0.389  14.558  13.295 -0.1066  0.0134 -0.0837
19673W        W37197  16.114  12.215  14.000  0.0161  0.0796  0.3701
19674W        W37198  14.901  10.775  17.267 -0.1345  0.1568 -0.1491
19675W        W37199  14.923   1.342   5.290 -0.1234 -0.3817  0.2963
19676W        W37200   1.265   3.599   4.401 -0.2627  0.1710  0.1249
19677W        W37201  15.477   3.790   1.997  0.0003  0.0176  0.0746
19678W        W37202  10.375   0.764   1.700  0.0766  0.1228  0.1518
19679W        W37203  11.580   2.537   4.761  0.1118  0.2278  0.1660
19680W        W37204   4.323   1.925   0.117  0.1402  0.2297 -0.2821
19681W        W37205   5.896  14.607  11.574  0.1208 -0.0690  0.3523
19682W        W37206   7.633   1.858   3.757  0.2266 -0.1192  0.0181
19683W        W37207   8.550  13.614   1.776  0.3140  0.1179  0.1137
19684W        W37208   0.807  13.684  17.032  0.0832  0.0737  0.1444
19685W        W37209   4.847  13.571   0.900 -0.0117 -0.1196  0.0150
19686W        W37210   4.060   0.598  14.141  0.1246 -0.4814 -0.2559
19687W        W37211   9.506   8.820   3.911 -0.1838 -0.0071  0.1695
19688W        W37212  15.930  15.317   0.839  0.0386 -0.1008  0.0234
19689W        W37213   0.537  15.019   0.522 -0.0590 -0.0623 -0.4635
19690W        W37214   6.921   9.043  14.918  0.5221  0.1482 -0.0840
19691W        W37215   4.727   4.040  13.248  0.0494 -0.2988  0.0177
19692W        W37216   0.352   7.230  14.987  0.4386  0.0069  0.1058
19693W        W37217   5.088   1.145   3.656  0.1124 -0.1317  0.0536
19694W        W37218  13.372  10.352   0.733 -0.1608 -0.1784 -0.3015
19695W        W37219   3.438  16.602   3.115 -0.0670  0.2802 -0.0392
19696W        W37220   9.831   4.470  14.258  0.2286 -0.1992  0.1987
19697W        W37221  16.995  17.047  13.184 -0.1147 -0.1536 -0.1870
19698W        W37222   4.085  16.018   2.303 -0.0818 -0.0843 -0.0227
19699W        W37223   3.948   6.958   3.890  0.2931  0.0820  0.1070
19700W        W37224  11.941  13.021   3.572  0.1772 -0.2535 -0.2343
19701W        W37225   0.004   8.032  15.993 -0.0960 -0.0942  0.1233
19702W        W37226   2.203  10.049   0.508  0.1708  0.0030 -0.0144
19703W        W37227   4.015  15.795  13.458 -0.1180 -0.4479 -0.2830
19704W        W37228  13.106   4.194  16.183  0.0266 -0.0759  0.0907
19705W        W37229   5.727   1.922   4.750  0.1533  0.2602  0.1609
19706W        W37230   3.065   2.491  12.813  0.0631 -0.1877  0.1754
19707W        W37231   3.715  16.718  14.516 -0.0601  0.0891  0.0560
19708W        W37232  13.330  14.526  16.165 -0.0823  0.0712 -0.3606
19709W        W37233   7.026   7.517   5.514 -0.0833  0.2070 -0.6030
19710W        W37234   1.953   7.549   1.480  0.0705  0.1759 -0.0599
19711W        W37235   2.800   6.332   0.346 -0.0647  0.1080  0.1633
19712W        W37236  11.121   6.053   4.757 -0.2100  0.1688 -0.0711
19713W        W37237   8.865   6.827   5.061  0.1115  0.2323  0.1805
19714W        W37238   9.477   0.646   2.499 -0.1822 -0.3639 -0.3102
19715W        W37239   3.857  13.885  12.963 -0.3453 -0.1698  0.2458
19716W        W37240  13.988   7.651   4.736 -0.3899 -0.1450 -0.0066
19717W        W37241  15.869  12.456  13.514  0.4141  0.1828 -0.2208
19718W        W37242   5.408   9.618  14.664 -0.1309 -0.0251 -0.1027
19719W        W37243  17.092   9.163   4.896 -0.0761  0.0178  0.0572
19720W        W37244   0.715  16.280   0.037 -0.3868  0.2907 -0.1046
19721W        W37245   4.948  17.178  12.242  0.0587  0.0989 -0.0230
19722W        W37246   2.241  12.193  15.444  0.0967  0.2868 -0.0304
19723W        W37247  10.094   6.549   1.884 -0.2905 -0.0501  0.0480
19724W        W37248  10.989   1.750  17.493 -0.3874 -0.2118 -0.1285
19725W        W37249   9.529  14.040   3.849  0.3525 -0.1068  0.0262
19726W        W37250   3.381   5.074  15.136  0.0249 -0.0612  0.1021
19727W        W37251   3.121   9.128  13.172  0.1247 -0.0734 -0.0251
19728W        W37252   4.859   9.548   1.021  0.0796  0.1503  0.2979
19729W        W37253  10.488  10.660   0.684  0.0839  0.3016  0.0652
19730W        W37254   5.608  12.050  17.539  0.1483  0.0484  0.0374
19731W        W37255  11.291  10.433  12.923 -0.1291 -0.2826 -0.0475
19732W        W37256   1.635  12.475  16.536 -0.1401 -0.1777 -0.0106
19733W        W37257   6.264   7.356  13.067  0.0669 -0.4035  0.0383
19734W        W37258   3.447   7.348  14.155  0.1685 -0.0752 -0.3982
19735W        W37259  13.590   9.901   5.419 -0.0688  0.0308 -0.0732
19736W        W37260   6.647  12.067  14.158 -0.0546 -0.0754 -0.1407
19737W        W37261   0.784  15.720  14.299  0.1643 -0.2423 -0.0311
19738W        W37262  12.741   2.960   4.586  0.1722  0.0317 -0.0795
19739W        W37263   2.332   3.239   3.209  0.0971  0.1239 -0.0344
19740W        W37264   6.369  14.741  13.661  0.2591  0.0433 -0.0635
19741W        W37265   4.546   8.541   4.781 -0.2097  0.2683  0.4490
19742W        W37266   4.545  12.040  13.864  0.0369 -0.0006 -0.1926
19743W        W37267  12.029   5.976   5.268  0.0145  0.2662 -0.0799
19744W        W37268   7.304   2.919   3.280 -0.3151  0.0790  0.0015
19745W        W37269  14.910   2.084   4.323  0.1054 -0.2408 -0.1269
19746W        W37270   9.495   9.270  17.510  0.1001  0.0516 -0.1693
19747W        W37271   7.383  10.659   1.755  0.0492 -0.0297  0.1043
19748W        W37272   7.562  13.101  16.694  0.2718  0.0274 -0.0899
19749W        W37273  11.885  16.137  16.218 -0.0182  0.1701  0.3097
19750W        W37274  15.086   6.839   3.397  0.2856  0.2066  0.1780
19751W        W37275  12.224  16.016   0.638 -0.2171  0.0560  0.1518
19752W        W37276   0.436  13.761   1.013 -0.0837 -0.0679 -0.1880
19753W        W37277   7.322  11.236  12.393 -0.1612 -0.3296  0.0297
19754W        W37278   7.662   5.606  16.614  0.1087  0.0695  0.0574
19755W        W37279   7.838  16.931   5.066 -0.0244 -0.0461  0.2084
19756W        W37280  16.160   9.443  11.486  0.0815 -0.2323  0.2888
19757W        W37281   7.289   2.028   4.286  0.0745 -0.0194 -0.2093
19758W        W37282   1.538  12.641   4.352 -0.1389  0.0736 -0.4212
19759W        W37283  13.431   5.926   4.347 -0.0814 -0.0460 -0.2931
19760W        W37284   8.089  11.120   2.139 -0.1179  0.2518  0.0223
19761W        W37285   6.253   2.273   4.808  0.1864 -0.2136  0.1423
19762W        W37286  14.465   2.973   1.911  0.1495 -0.1026  0.1400
19763W        W37287   1.092  12.314  14.451  0.2428  0.1906  0.0558
19764W        W37288  16.934   1.842  13.022 -0.1011 -0.0106  0.0477
19765W        W37289  11.321   3.924   3.894 -0.3606  0.0914 -0.0347
19766W        W37290   3.224   8.150  12.305 -0.1125  0.0719  0.1534
19767W        W37291   8.803  16.881   0.871 -0.0691  0.1538  0.2710
19768W        W37292   6.208   5.231   4.009 -0.1323 -0.0100 -0.0144
19769W        W37293   2.895   4.348   3.136  0.0390 -0.0482 -0.1378
19770W        W37294   7.084   3.820  15.030 -0.1925 -0.1100 -0.0024
19771W        W37295  12.590   0.320  15.441  0.1505  0.0244 -0.1188
19772W        W37296   7.360   0.397   2.042  0.3589 -0.4035  0.2230
19773W        W37297   3.834   7.214  14.695 -0.0465 -0.0771 -0.0587
19774W        W37298   3.902   5.917  12.420  0.1159  0.2375 -0.2170
19775W        W37299   8.903  11.479   0.759  0.2331 -0.1428  0.1716
19776W        W37300   2.537  10.946   0.073 -0.0871 -0.2305  0.0569
19777W        W37301   1.735  15.408   0.802 -0.1936 -0.1265  0.2369
19778W        W37302  10.776  13.495   4.486  0.1732  0.0590 -0.0334
19779W        W37303   9.977   7.819   3.561  0.0691  0.1117  0.0513
19780W        W37304   6.657   0.615  16.441  0.3895 -0.2071 -0.1172
19781W        W37305  16.634   0.987  12.578 -0.2621  0.0662  0.1014
19782W        W37306   1.778  16.085  15.756  0.0756 -0.3293 -0.0311
19783W        W37307  16.607  10.421   4.710  0.1569 -0.1417  0.1218
19784W        W37308   0.376   9.055  13.122 -0.0593 -0.1070  0.0123
19785W        W37309   5.745  15.054   3.933 -0.0663 -0.0335  0.0884
19786W        W37310   8.282  15.097   0.194  0.2823 -0.0370 -0.0078
19787W        W37311  12.483  14.673  12.519  0.0582  0.1657  0.0562
19788W        W37312  11.356   3.136  16.967 -0.1716  0.1103 -0.0425
19789W        W37313  11.965  15.077   1.786  0.0936 -0.0038  0.2089
19790W        W37314   2.530   1.112  15.954 -0.2189 -0.1809  0.0548
19791W        W37315  12.103   6.201   1.755 -0.1230 -0.0053  0.3392
19792W        W37316  10.875   5.675   4.466  0.0658 -0.0203 -0.2463
19793W        W37317  15.934   7.438  14.152 -0.0692  0.3767 -0.0801
19794W        W37318   3.052  12.387  15.946 -0.2527 -0.0152 -0.2341
19795W        W37319   9.586  13.652  14.499 -0.0652  0.2750 -0.0279
19796W        W37320  16.235  12.008   4.767  0.1987 -0.1911  0.2076
19797W        W37321  17.029   6.995  15.618 -0.0571  0.0412  0.1430
19798W        W37322   4.487   2.888  15.557 -0.4119 -0.1416  0.0784
19799W        W37323   0.128   8.072  17.545  0.2891 -0.1145 -0.1621
19800W        W37324   9.560  10.891   5.483 -0.1021 -0.1040 -0.3524
19801W        W37325   8.038  15.205   1.124 -0.0232 -0.0144 -0.1738
19802W        W37326  12.261  11.450   2.743 -0.0237  0.1120 -0.0772
19803W        W37327  15.538   1.606  12.825 -0.1095 -0.3458  0.2964
19804W        W37328  14.447  16.107   1.374 -0.1719  0.0708 -0.3832
19805W        W37329  13.399   4.829   3.501  0.0282 -0.2767 -0.2001
19806W        W37330  13.725  16.502  14.168  0.0543  0.0518  0.0464
19807W        W37331   8.168  13.561   0.054 -0.2682 -0.0025  0.0971
19808W        W37332  13.661   6.844   5.037 -0.2943  0.0097  0.1389
19809W        W37333  16.197   9.669  13.775  0.1832  0.0124 -0.2461
19810W        W37334   0.625   0.853  15.104 -0.1647  0.1551 -0.2331
19811W        W37335   5.077   4.485   5.667  0.0992 -0.1949  0.0610
19812W        W37336  16.944  15.982   3.707  0.2874  0.0697  0.2007
19813W        W37337  14.478   1.089   4.121 -0.0352 -0.0237  0.4602
19814W        W37338   8.429  12.753   4.990  0.0809 -0.2710 -0.0347
19815W        W37339   9.519   7.018   3.869 -0.3395  0.2514 -0.0967
19816W        W37340  12.867  11.851  15.542  0.1118 -0.0228  0.2095
19817W        W37341   0.247  10.532   4.745  0.0207 -0.1142 -0.0458
19818W        W37342  16.393   7.645  16.842  0.0539  0.3671 -0.2125
19819W        W37343  15.221   7.655  14.894 -0.1490  0.1967  0.2203
19820W        W37344   2.421  14.268   2.451 -0.1892  0.0019 -0.2149
19821W        W37345  14.272  10.278  15.215  0.2712  0.3995 -0.0822
19822W        W37346   8.179   3.511   1.638  0.0828 -0.1202  0.1154
19823W        W37347   8.245  13.459   3.862  0.3894  0.0819 -0.0315
19824W        W37348   5.318  16.995   5.880 -0.2480  0.2298 -0.2702
19825W        W37349   4.352  13.082   4.899  0.0604  0.1111  0.1234
19826W        W37350  13.148  16.557   1.759  0.2300  0.1352 -0.0490
19827W        W37351   8.333   1.351  17.274  0.0787 -0.0112 -0.0300
19828W        W37352  11.288   1.077  17.013 -0.3034  0.2544 -0.3007
19829W        W37353  14.686   3.294   3.634 -0.1516 -0.2727 -0.1845
19830W        W37354  10.942  10.755  15.529  0.0037 -0.0813  0.5336
19831W        W37355   1.812  17.037  15.244  0.1717 -0.1271 -0.0242
19832W        W37356   9.515  10.045   2.108 -0.1911 -0.0932 -0.3654
19833W        W37357   5.125   4.497  15.910  0.2591  0.1698 -0.1891
19834W        W37358  13.475   3.712  15.378  0.2690  0.0139 -0.0722
19835W        W37359  11.939  11.121   4.361  0.2301  0.2076  0.0403
19836W        W37360   5.413   2.086  15.353  0.1258  0.0205 -0.1610
19837W        W37361  16.633   2.173  14.724 -0.2068 -0.1546  0.0783
19838W        W37362   9.496   1.476   6.397 -0.7318  0.0811  0.0543
19839W        W37363  13.219  10.476   1.677 -0.0149 -0.0346 -0.0134
19840W        W37364   6.754   2.455  15.441  0.0930 -0.2097  0.1625
19841W        W37365   8.180   0.976  13.967 -0.0558 -0.0591 -0.1692
19842W        W37366  10.570  10.127   0.884 -0.0526 -0.1599 -0.1490
19843W        W37367   0.126   6.696  13.952  0.2182 -0.0117  0.0465
19844W        W37368  14.717   2.509   4.524 -0.1224  0.0403  0.0277
19845W        W37369   2.035  13.187  13.981  0.1895  0.2549 -0.1503
19846W        W37370  16.444  11.704   1.616  0.0422 -0.0965  0.0447
19847W        W37371   8.372   5.314   3.921 -0.1337 -0.0312 -0.3148
19848W        W37372   9.537   1.845  15.731 -0.0944 -0.1228  0.2582
19849W        W37373  15.199  12.187   4.779 -0.1715 -0.1199  0.0734
19850W        W37374   3.448  16.337  14.531 -0.0749 -0.1214 -0.0032
19851W        W37375  10.700  12.416  16.408 -0.0852  0.0659  0.0519
19852W        W37376   1.384   7.221  14.741 -0.0951 -0.0068  0.1122
19853W        W37377   6.014   1.969  17.103  0.1250  0.0681  0.0100
19854W        W37378   8.831  16.218   4.638  0.0636 -0.0549  0.0895
19855W        W37379   3.270  12.133  13.142  0.3424 -0.0270  0.2414
19856W        W37380   1.023  14.916  17.470 -0.1314  0.0786 -0.2640
19857W        W37381   4.455   1.412   0.120  0.1113  0.2744 -0.1495
19858W        W37382  14.468  11.445  17.186  0.1312 -0.2748  0.2579
19859W        W37383  13.316   3.515  13.880  0.0580 -0.0463 -0.1567
19860W        W37384   2.300   9.430   1.437  0.0563 -0.0780 -0.2310
19861W        W37385  17.246  16.706  14.635 -0.1353  0.1971  0.0785
19862W        W37386   2.755  12.414   2.970 -0.0528 -0.3372  0.2435
19863W        W37387  12.907  13.764  16.541 -0.1073  0.2400 -0.0394
19864W        W37388   5.242  12.588   5.320  0.2121 -0.0089 -0.1567
19865W        W37389   6.370  14.254   2.437 -0.3979 -0.0468  0.1721
19866W        W37390  16.664   0.728   3.706 -0.1162 -0.0991  0.1283
19867W        W37391  12.500  10.541   2.435  0.0542  0.0704 -0.3523
19868W        W37392  10.307  13.554   2.684  0.0464  0.1168  0.0503
19869W        W37393  17.029  12.356   5.323 -0.3369 -0.1977 -0.1061
19870W        W37394  11.695  12.186   0.732 -0.0355 -0.1257 -0.1351
19871W        W37395  10.413  13.229  14.724 -0.0029 -0.1954 -0.1300
19872W        W37396  15.661   5.837  11.961  0.1927 -0.0582 -0.1079
19873W        W37397   8.929   9.436   4.552 -0.0030  0.1950 -0.0351
19874W        W37398   7.049   4.210  13.266 -0.2035  0.1469  0.0473
19875W        W37399   0.142   7.406   1.249 -0.1114  0.0680 -0.0795
19876W        W37400   7.647   9.018   2.411  0.2133 -0.0740  0.1521
19877W        W37401   8.054  11.630  14.594  0.1624  0.1529 -0.1259
19878W        W37402   0.264   1.162   2.550  0.0150  0.0472 -0.0796
19879W        W37403  14.418  12.296   1.015 -0.0907  0.1565 -0.1788
19880W        W37404   4.640  10.028   1.232 -0.0462  0.0678  0.3149
19881W        W37405  17.006   2.998  17.359  0.3830  0.0105  0.1057
19882W        W37406  10.794   8.663   2.078  0.0673  0.1560  0.0624
19883W        W37407   4.830   6.447  14.628 -0.2446  0.0419  0.3186
19884W        W37408   6.459   9.941   2.060 -0.2405 -0.0851  0.2834
19885W        W37409   3.687   4.019  12.247  0.2400 -0.1298  0.1802
19886W        W37410  14.621   7.763  15.699 -0.2673  0.2634 -0.1113
19887W        W37411  17.084  11.111  16.877  0.0075 -0.0499 -0.0675
19888W        W37412   2.889   2.814  17.616  0.0930  0.1537 -0.1609
19889W        W37413   7.958  16.545  16.944 -0.1627  0.1037 -0.5304
19890W        W37414  15.854  13.666   3.035 -0.0134  0.0414 -0.4585
19891W        W37415   7.484   3.511  14.283  0.2923  0.1262  0.0514
19892W        W37416   7.201  12.641   3.469 -0.4037  0.0406 -0.1779
19893W        W37417   5.154  11.600  16.851 -0.1865  0.2707 -0.1720
19894W        W37418   6.687  13.741  12.107  0.1574 -0.1954 -0.1989
19895W        W37419   8.519   6.449  16.268 -0.1874 -0.2112  0.2358
19896W        W37420  10.056   2.699  17.231 -0.1956  0.1377 -0.0701
19897W        W37421   8.348  16.843  13.431 -0.2949 -0.0792  0.2214
19898W        W37422   1.517   6.042  15.960  0.0371 -0.1931  0.0949
19899W        W37423   0.901  11.130   1.989  0.3004 -0.1560  0.1780
19900W        W37424   5.786   5.894   0.716 -0.1216 -0.1622 -0.0426
19901W        W37425   0.600   1.681   3.945 -0.1923 -0.5796  0.1531
19902W        W37426  11.709   4.589   0.730 -0.2074  0.1155 -0.4186
19903W        W37427   5.411   8.478   0.226 -0.0178  0.0426  0.0647
19904W        W37428   1.912  11.793   5.337 -0.1875 -0.3604  0.0463
19905W        W37429  12.936  14.113  16.955  0.4644 -0.0043 -0.0289
19906W        W37430  15.624  13.051  11.500 -0.2304 -0.0281 -0.0915
19907W        W37431  15.963   8.138  16.941 -0.1016 -0.2317 -0.0026
19908W        W37432  13.728   5.579  13.220  0.0497 -0.2199 -0.2463
19909W        W37433   0.896   4.140  12.881  0.0287 -0.3314 -0.4879
19910W        W37434   6.653   3.855  16.738  0.2556  0.1658 -0.1478
19911W        W37435   6.656   9.661  16.020 -0.0803 -0.2057  0.0076
19912W        W37436  16.524   7.269   1.786 -0.1388  0.0142 -0.0558
19913W        W37437  10.499   8.075   1.379 -0.6193 -0.1859  0.0786
19914W        W37438  10.849   7.559  13.916  0.4864 -0.1268  0.1836
19915W        W37439   7.641  12.757   1.832  0.1081  0.2477  0.2725
19916W        W37440   6.983  12.301   2.913 -0.1465 -0.3065 -0.0883
19917W        W37441   5.914   6.857  16.902  0.2615 -0.1178 -0.2469
19918W        W37442   8.449   3.827   2.647 -0.3741 -0.0520  0.1080
19919W        W37443   5.408   8.499   3.413 -0.2633  0.1239 -0.2712
19920W        W37444  16.991   9.095   3.749 -0.0375 -0.2338  0.2816
19921W        W37445   2.578   0.449   6.070  0.4124  0.1978 -0.0699
19922W        W37446  13.658   0.353  15.093  0.0955 -0.1004 -0.1310
19923W        W37447  16.619  16.582   0.868 -0.3229  0.4973  0.1759
19924W        W37448  15.714   0.135   4.743  0.2757  0.2468  0.0516
19925W        W37449   3.899   9.874   6.080  0.1110 -0.3405  0.1542
19926W        W37450   3.342  10.446  15.545 -0.3177 -0.0055  0.1403
19927W        W37451  13.303   6.938   3.330  0.2245  0.0309 -0.0034
19928W        W37452   9.678   3.246   0.313 -0.2113 -0.1658  0.2813
19929W        W37453  11.371   9.396   1.431  0.0495 -0.0628  0.1267
19930W        W37454  10.872  10.459  15.080  0.0914 -0.5453 -0.1674
19931W        W37455   0.621   3.787  14.043  0.0245  0.0577 -0.1988
19932W        W37456   3.374  11.702  13.318 -0.0549  0.2495 -0.0818
19933W        W37457  15.435  12.064   0.014  0.2454  0.2917  0.0426
19934W        W37458  11.798   3.140  15.858 -0.0797 -0.0565  0.0182
19935W        W37459   9.213   4.851   5.009  0.1944  0.3441 -0.2094
19936W        W37460  12.882  11.469  15.195  0.1459  0.1078 -0.0694
19937W        W37461   0.718   6.414  16.126 -0.2329 -0.0370  0.0203
19938W        W37462  15.939  14.394   1.746 -0.1250  0.1670  0.0766
19939W        W37463  17.040  11.671   4.733 -0.1404  0.0479  0.1216
19940W        W37464  14.601  11.011  17.603 -0.1251 -0.0965 -0.0243
19941W        W37465  11.659  10.640  12.549 -0.2445 -0.1788  0.1249
19942W        W37466   9.647  11.521   3.274 -0.2772 -0.3466  0.1816
19943W        W37467   1.133  10.066   0.927  0.0575  0.0953  0.0953
19944W        W37468  12.738   2.605   2.172  0.1711  0.0048  0.0919
19945W        W37469  11.013   7.516   2.092 -0.2530 -0.1190 -0.2360
19946W        W37470   4.898   5.513   0.083 -0.1183  0.1676  0.2261
19947W        W37471  11.830   8.343  15.489 -0.1847  0.2245 -0.2155
19948W        W37472   4.078  11.094   6.171  0.1749 -0.0254 -0.0975
19949W        W37473   7.936   6.184   5.025  0.1562 -0.0286 -0.2311
19950W        W37474   8.517   6.655  15.379  0.0621 -0.0589  0.0134
19951W        W37475   0.608   5.228   3.127 -0.1502 -0.1831  0.2032
19952W        W37476  15.357   4.561   5.426  0.0967 -0.2006  0.1190
19953W        W37477  16.046   2.099   4.774  0.1442  0.0551 -0.2021
19954W        W37478  16.572   5.505   0.324 -0.4949 -0.0391 -0.2420
19955W        W37479  15.760   6.500   4.234 -0.0288 -0.0777  0.0259
19956W        W37480   7.614   3.693   0.301  0.0210  0.2034 -0.2307
19957W        W37481   6.987   1.419  12.654  0.1641 -0.3737 -0.0438
19958W        W37482   1.840  15.303   3.672  0.0827  0.1557  0.2933
19959W        W37483   2.147   9.538   0.596 -0.0450  0.0976 -0.0335
19960W        W37484  13.792  11.028   5.094  0.1230 -0.1198  0.2081
19961W        W37485   8.523   8.934   2.904  0.3181 -0.0020 -0.1515
19962W        W37486   2.812  12.254   1.439 -0.0603  0.5224  0.2047
19963W        W37487   4.155   9.361  15.011  0.1041 -0.0275  0.3030
19964W        W37488   1.463   3.944  12.929 -0.2435  0.2028  0.2780
19965W        W37489   7.198   5.604   5.340  0.1392 -0.2311 -0.0874
19966W        W37490  16.714  12.340   3.079  0.3959 -0.1217  0.1708
19967W        W37491  13.370   2.026   1.650 -0.0082 -0.1171 -0.0276
19968W        W37492  15.245   0.214  14.783 -0.0226  0.1851  0.0242
19969W        W37493  13.035   6.629  13.449 -0.0046  0.0127 -0.2905
19970W        W37494  11.675   3.218  15.336  0.3128  0.1000  0.0464
19971W        W37495  13.875  13.951   6.221  0.1749  0.1574 -0.1594
19972W        W37496   4.703   3.016  13.539  0.1336  0.2436  0.0416
19973W        W37497   3.951   9.799   0.738  0.1496 -0.1391  0.1065
19974W        W37498  12.061  13.223   5.274  0.1998  0.3355  0.2426
19975W        W37499  14.448   9.389   2.195  0.0115  0.2148 -0.0594
19976W        W37500   6.273   6.075  16.925 -0.5597 -0.1077  0.0855
19977W        W37501   5.373   7.842  16.384  0.0691 -0.1382 -0.2589
19978W        W37502   7.955   4.745  17.351 -0.0229 -0.0091 -0.0529
19979W        W37503  16.596  16.926  12.883 -0.0638  0.4641 -0.0059
19980W        W37504  13.033   2.133   2.252  0.1543  0.4130  0.2503
19981W        W37505   5.631  12.675  13.097  0.0752  0.1122  0.1589
19982W        W37506  12.295  16.919   3.633 -0.0008 -0.0442 -0.2066
19983W        W37507  10.208  14.931   2.320  0.0085  0.2758  0.0965
19984W        W37508   8.550  11.444   3.207 -0.0925 -0.2520  0.0790
19985W        W37509   8.559  11.692   5.725 -0.0236  0.2164 -0.0704
19986W        W37510   6.263   2.921  17.016 -0.0488 -0.1784 -0.0782
19987W        W37511   1.307   7.277   5.171  0.1853 -0.1200  0.1220
19988W        W37512  14.012   7.731  16.564  0.0135  0.2553  0.1723
19989W        W37513   6.300   2.727  17.572 -0.3600  0.0810  0.0172
19990W        W37514   5.681   4.789   5.353  0.1730 -0.1258  0.0882
19991W        W37515   9.111  15.635  14.515  0.2785  0.0753 -0.0299
19992W        W37516  11.077   1.279  13.621 -0.0650  0.1816 -0.2273
19993W        W37517   6.295   9.990  15.877  0.1132  0.1824  0.1211
19994W        W37518  15.116  13.732  11.888  0.0695 -0.0625 -0.0125
19995W        W37519  10.565  11.831  16.862  0.0035 -0.0382  0.3689
19996W        W37520  16.997  12.367  16.316 -0.0836  0.0189 -0.0796
19997W        W37521   3.410   7.162  13.305  0.0084  0.0039 -0.0635
19998W        W37522   1.905   0.069  17.635 -0.0051  0.2495 -0.0327
19999W        W37523   4.649   5.362  14.757 -0.4452  0.2896 -0.1991
20000W        W37524  11.137   4.142   4.587  0.1662  0.0808 -0.1444
20001W        W37525  15.091  13.821  16.635  0.2750  0.3572 -0.1851
20002W        W37526   7.921  12.006   3.868 -0.1874 -0.2241 -0.0790
20003W        W37527   6.557  15.115   3.708 -0.3077 -0.0658 -0.0019
20004W        W37528   0.723   2.533  16.754 -0.1424 -0.1993  0.1633
20005W        W37529   4.501  15.332  12.751 -0.1441 -0.0497 -0.3500
20006W        W37530   0.585  10.539  14.545  0.0174  0.4087 -0.2657
20007W        W37531  16.999   3.312  17.019 -0.3219 -0.0084 -0.0432
20008W        W37532  15.822  11.743   1.012  0.0273  0.1032  0.0780
20009W        W37533  15.517   6.775   3.899  0.1972 -0.1752 -0.2781
20010W        W37534  11.968   9.035   4.921  0.0071 -0.0169 -0.1498
20011W        W37535  13.794  14.196   2.133  0.0684  0.0361 -0.2713
20012W        W37536  12.035   5.631  16.543 -0.1904 -0.3535  0.0433
20013W        W37537   4.838   4.803  14.921 -0.0582  0.2893 -0.0133
20014W        W37538   3.459   8.397  13.188  0.0375 -0.0714  0.0540
20015W        W37539   3.491   5.418  13.905 -0.1910  0.2100  0.0992
20016W        W37540  11.913   8.365  13.733 -0.0850 -0.1617  0.1718
20017W        W37541   1.127   0.826   0.872 -0.1589  0.1992 -0.0942
20018W        W37542   5.530   3.993   0.336  0.0935 -0.1143 -0.0582
20019W        W37543   0.693   7.142   0.063  0.0628 -0.2104 -0.1659
20020W        W37544  10.951  10.985   0.752 -0.1721 -0.0650 -0.0466
20021W        W37545  13.427   4.972  12.491 -0.2345  0.1241  0.2532
20022W        W37546   3.377   5.188  16.375  0.0255  0.0953 -0.1685
20023W        W37547   5.571   8.592   4.670  0.3710 -0.2395  0.1912
20024W        W37548   8.885   1.338   3.763  0.0944 -0.0524 -0.0049
20025W        W37549   8.398   3.550  14.128  0.1150  0.2336  0.0379
20026W        W37550  13.866  10.630   3.850  0.1092  0.1083  0.0340
20027W        W37551   9.477   8.055   2.233 -0.2040 -0.0546  0.0156
20028W        W37552   7.479   8.317   2.942 -0.1904 -0.3286  0.1479
20029W        W37553   9.831   3.804   0.989 -0.1004  0.0239 -0.0485
20030W        W37554  14.618   9.855   0.917  0.1885 -0.0379  0.1925
20031W        W37555  12.266  10.325   5.112  0.0886  0.0923 -0.1364
20032W        W37556   3.441  14.492   4.102  0.2109  0.1972 -0.0371
20033W        W37557   0.706   3.752   0.155 -0.0679  0.0993 -0.1521
20034W        W37558   6.936   8.125  13.308 -0.0629  0.0693 -0.0464
20035W        W37559  17.176  16.237   4.904  0.1991  0.2684  0.1531
20036W        W37560   0.845   8.387   0.412 -0.0749  0.0645 -0.1190
20037W        W37561   9.809  10.139   2.976 -0.5674  0.2758 -0.1213
20038W        W37562  10.076   5.514  15.594  0.2125  0.0695 -0.2829
20039W        W37563  12.678   1.442   4.144  0.0792 -0.3196 -0.0178
20040W        W37564  10.065  16.092  16.741  0.1456 -0.0812 -0.1200
20041W        W37565  10.202   7.013   5.851  0.2576 -0.3470 -0.2078
20042W        W37566   4.134   7.761  15.941 -0.0932  0.5680  0.0998
20043W        W37567   8.143   3.719   0.385  0.0692 -0.0737  0.3156
20044W        W37568  15.288   2.607   1.427  0.0609 -0.0033 -0.0393
20045W        W37569   0.017   4.350   1.203 -0.1975 -0.2207  0.1230
20046W        W37570  17.044   5.293  14.289 -0.1481  0.0040 -0.1091
20047W        W37571   7.792   9.482   2.006 -0.1603 -0.1221 -0.1496
20048W        W37572  14.590   9.358   3.556 -0.1149  0.1389  0.0740
20049W        W37573   3.414  14.645  13.145 -0.4692  0.0866  0.0781
20050W        W37574  10.206  11.631   4.071  0.1468 -0.2486 -0.0634
20051W        W37575   7.882   4.046  15.413 -0.2151  0.0922 -0.0959
20052W        W37576  15.867   2.760  15.698 -0.2625  0.2888 -0.0726
20053W        W37577  14.811   7.040   2.290  0.0947  0.0953 -0.1362
20054W        W37578   7.804  12.720   5.632 -0.2569  0.1080  0.0041
20055W        W37579   4.698   7.813  16.095  0.0756 -0.1310  0.2498
20056W        W37580  12.545   3.456   4.040 -0.1344  0.1094  0.4017
20057W        W37581   1.167   8.362   1.392  0.1099 -0.1838 -0.0382
20058W        W37582  10.365   2.775   3.456 -0.1291 -0.1465  0.2610
20059W        W37583   1.155   2.362  17.009 -0.2563 -0.3337 -0.0526
20060W        W37584   5.997   2.643  12.905 -0.1182 -0.2488  0.2098
20061W        W37585  15.917   7.940   3.690 -0.0247 -0.0382  0.1574
20062W        W37586  12.401   9.031   0.175  0.0450  0.3131 -0.0150
20063W        W37587  11.554   8.789  14.553 -0.0316 -0.2055 -0.3501
20064W        W37588  15.183  11.103   5.059 -0.1323  0.1099  0.0736
20065W        W37589   6.508   3.615   3.569  0.2493 -0.0451 -0.0907
20066W        W37590   7.550   4.004  12.799 -0.0468  0.1984 -0.2970
20067W        W37591   9.689  14.182  13.913  0.0969  0.2637  0.0794
20068W        W37592   7.815   7.002   0.728  0.4646  0.1155  0.0778
20069W        W37593   7.488   3.644  13.183  0.0491 -0.2316  0.0772
20070W        W37594   4.976  15.734   1.254  0.0141 -0.0706 -0.0038
20071W        W37595   9.591   6.259  16.607 -0.2185 -0.1659  0.0692
20072W        W37596   5.395   3.859  17.083 -0.1201 -0.1344  0.0286
20073W        W37597   9.849  12.551  16.280 -0.1719  0.1911 -0.0210
20074W        W37598  14.759  16.283   4.970  0.1141 -0.2938  0.0571
20075W        W37599   6.683  11.063   0.081  0.0254 -0.0672  0.3129
20076W        W37600   3.266   7.843  15.048 -0.0305 -0.1109  0.2700
20077W        W37601   3.268   8.263   0.714  0.2167  0.0435  0.0110
20078W        W37602   2.517  12.338   2.462  0.0907 -0.0770  0.1188
20079W        W37603   0.545   7.768  14.828  0.0304  0.1993 -0.1963
20080W        W37604  12.254   8.499  14.571  0.0481 -0.1900 -0.1103
20081W        W37605  11.048   5.479  15.476 -0.0832  0.0404 -0.1495
20082W        W37606   7.105  16.376  17.466  0.0093  0.2117 -0.0049
20083W        W37607  15.824   6.464   0.997 -0.0911  0.0326 -0.1309
20084W        W37608   8.962  16.868  12.690 -0.1458  0.0082 -0.1418
20085W        W37609  14.252   9.778  16.205 -0.3569  0.1730 -0.0520
20086W        W37610  14.335   6.128  12.051  0.1777  0.0232  0.2186
20087W        W37611   5.803   3.286  15.159 -0.1107 -0.0186  0.3302
20088W        W37612   9.361   3.228   3.435  0.3481  0.4078  0.3392
20089W        W37613  16.381  10.655  13.681  0.0594 -0.0014 -0.0802
20090W        W37614   3.884  16.665  12.092 -0.0701 -0.2902 -0.1627
20091W        W37615  16.395   4.042   2.491  0.1223 -0.1512 -0.0127
20092W        W37616   5.141  10.497  13.991 -0.0981  0.3397 -0.3183
20093W        W37617   5.802   8.066  11.412  0.1034  0.2048  0.1181
20094W        W37618   8.580  13.959   3.096 -0.3964  0.3563 -0.2796
20095W        W37619   0.988   4.225   1.547 -0.1359 -0.1680  0.0293
20096W        W37620   8.758   5.688   5.733 -0.0727 -0.2473  0.2556
20097W        W37621  16.627  16.510  13.809  0.0038  0.0360  0.2056
20098W        W37622  14.214   7.044   0.857  0.1784  0.0660  0.0828
20099W        W37623   5.346  10.046   3.565  0.0727 -0.1081  0.0164
20100W        W37624   9.838  12.737   1.662  0.2123 -0.0258 -0.3497
20101W        W37625   1.708   8.047  11.693 -0.0404 -0.0035 -0.0237
20102W        W37626   3.140   0.920  12.471  0.0062  0.2505  0.1841
20103W        W37627   4.120   6.816  14.777  0.0481 -0.2022  0.2439
20104W        W37628   5.096  14.985   4.329 -0.0184 -0.0883 -0.2204
20105W        W37629  14.941   6.024  16.385 -0.2710 -0.2689  0.2984
20106W        W37630  16.374  13.551   1.606  0.0144 -0.0004 -0.1903
20107W        W37631  12.426   2.415   1.559  0.0242 -0.0040  0.1180
20108W        W37632  14.942  11.334  17.135 -0.3100 -0.0103  0.2736
20109W        W37633   2.661   2.308  15.704 -0.0789 -0.3150  0.2092
20110W        W37634   9.624  16.014   5.552  0.0614 -0.1756 -0.0607
20111W        W37635  16.786   1.763  14.424  0.0583  0.0283 -0.2458
20112W        W37636  15.231  14.219   2.719 -0.2089 -0.0708 -0.3796
20113W        W37637  11.292   8.698   1.041  0.0020  0.2597  0.0333
20114W        W37638  15.385   6.131  14.683 -0.1755 -0.0572 -0.1892
20115W        W37639   2.230  11.802   2.491 -0.3439  0.4500  0.0055
20116W        W37640  14.471  11.747  12.630 -0.2018  0.0913 -0.0281
20117W        W37641   1.556  13.970   1.689 -0.0133  0.2003 -0.0005
20118W        W37642   7.838   4.267   4.477  0.1850 -0.4534 -0.0166
20119W        W37643   2.905  16.727   0.506 -0.2430  0.0577 -0.2223
20120W        W37644   7.870   0.103   0.954  0.2696  0.3392  0.0117
20121W        W37645  10.366  15.013   3.876 -0.0746 -0.1846 -0.1317
20122W        W37646   5.214   2.572  16.039  0.1363  0.0424 -0.1332
20123W        W37647   8.054   5.220   4.386 -0.0476 -0.2020  0.0999
20124W        W37648  16.823  14.224   3.747  0.1394 -0.0621 -0.0714
20125W        W37649  16.595  15.648   4.839 -0.2141 -0.1271 -0.1405
20126W        W37650   3.243  10.062   3.871 -0.1724  0.0647  0.0991
20127W        W37651   1.555   8.305  17.630  0.4106 -0.1498  0.1576
20128W        W37652  13.603   2.222   2.085 -0.3168 -0.1268  0.1641
20129W        W37653  10.061   9.447   0.525 -0.0388  0.1999  0.2787
20130W        W37654   4.183   7.700  12.913 -0.3354  0.0964  0.0203
20131W        W37655  11.852  15.725   3.446  0.5907 -0.0336 -0.0861
20132W        W37656  11.564   4.146   5.196  0.0857  0.1128 -0.0468
20133W        W37657   8.439   0.907  11.749  0.0495  0.0494  0.0041
20134W        W37658  16.494  15.828   2.465 -0.2460  0.2359  0.1750
20135W        W37659   2.938  10.805  15.901 -0.2529  0.2323  0.1170
20136W        W37660   8.739   8.011  15.008 -0.0421  0.1378  0.2129
20137W        W37661  15.136   9.996  15.324 -0.0408  0.2154 -0.0245
20138W        W37662   0.490   4.351  15.776 -0.0989  0.0198 -0.1642
20139W        W37663   6.123   9.122   2.738 -0.2158 -0.1846 -0.2205
20140W        W37664  11.124  15.531  17.351 -0.3688  0.0590 -0.0555
20141W        W37665  13.354  17.057  17.203 -0.1122 -0.1761 -0.0833
20142W        W37666  13.676  11.759   0.504 -0.1046  0.1748  0.0395
20143W        W37667  11.011   2.872   2.017 -0.4985 -0.0693 -0.1604
20144W        W37668   9.120  14.871   5.049  0.0121  0.0334 -0.0982
20145W        W37669   4.429  12.862   2.883  0.0692 -0.0960 -0.0002
20146W        W37670  15.664   2.024   5.062 -0.1864  0.1807  0.0549
20147W        W37671   8.965  17.183   4.817 -0.0002  0.2196 -0.3048
20148W        W37672  12.662   3.627  14.539  0.3094  0.1094  0.3339
20149W        W37673   1.412  12.496  17.366  0.2903 -0.1356  0.0959
20150W        W37674   1.603   8.011   3.127  0.2246  0.1816 -0.3871
20151W        W37675   4.073   8.843   1.735  0.0213 -0.2534 -0.1982
20152W        W37676   8.521  15.732   0.691 -0.0431  0.0341  0.0433
20153W        W37677  15.115   0.764   2.984  0.1073  0.0969  0.0616
20154W        W37678   7.158   3.889  13.685  0.0153  0.0590  0.1976
20155W        W37679  13.020   0.620   4.069 -0.0588  0.0889  0.1478
20156W        W37680  16.572   8.804  17.212  0.0272 -0.4977  0.3550
20157W        W37681   2.300   3.782   3.560  0.0659 -0.1839 -0.3329
20158W        W37682   9.196  13.167  17.498  0.0296 -0.0040  0.0461
20159W        W37683  10.660   0.863   0.138 -0.0793  0.3344 -0.1590
20160W        W37684   5.587   5.468   4.676  0.1551 -0.1216 -0.2794
20161W        W37685  16.748   5.802  16.293  0.0177 -0.2905 -0.0426
20162W        W37686   0.799  11.045  13.751  0.0969  0.1683 -0.1629
20163W        W37687  10.887   9.292   4.191 -0.2764 -0.1119 -0.0704
20164W        W37688  15.173   1.242   2.500  0.0133  0.0071  0.2515
20165W        W37689  10.049   8.095   3.973 -0.1335 -0.1033  0.1099
20166W        W37690  14.188   2.917  16.397  0.1992  0.1953 -0.1836
20167W        W37691   0.288   1.185  13.077 -0.3787 -0.3661 -0.0341
20168W        W37692   4.240   9.689   0.310  0.2246 -0.1345 -0.1138
20169W        W37693   9.818   6.247   5.340  0.0297  0.0342 -0.3190
20170W        W37694  17.186   1.894  15.038  0.1220  0.1774 -0.0553
20171W        W37695   5.371   4.516  15.487  0.1101 -0.1186  0.4021
20172W        W37696   2.592   5.252  17.570 -0.1920 -0.2459 -0.0566
20173W        W37697   0.263   3.056  12.542  0.2396  0.2636  0.2925
20174W        W37698   5.079   0.295  15.837 -0.0854 -0.1724 -0.0953
20175W        W37699  10.531   7.728  16.880 -0.0090  0.0031  0.1185
20176W        W37700   6.645   0.723  13.780 -0.0822 -0.0816  0.0576
20177W        W37701   0.098  13.776   3.685 -0.1485 -0.1129 -0.4024
20178W        W37702   5.897  14.335   5.128  0.0459  0.2068 -0.1043
20179W        W37703   4.831   7.123   3.949 -0.2109 -0.2483  0.0901
20180W        W37704   9.618  11.629   2.409  0.0094 -0.2868 -0.0638
20181W        W37705  12.774  17.100   1.669  0.3329 -0.1645  0.2378
20182W        W37706   8.373   3.695  14.655 -0.1794  0.0657 -0.0940
20183W        W37707   4.008   5.929  13.438  0.1161 -0.4494 -0.2361
20184W        W37708  14.573   2.129   3.117 -0.3397 -0.0376 -0.1816
20185W        W37709  11.070   7.182   0.825 -0.1890  0.0549 -0.0382
20186W        W37710   8.477   1.905  14.198 -0.0717  0.0255 -0.0037
20187W        W37711   6.167  11.801  16.689  0.1403 -0.1487  0.0370
20188W        W37712   5.176  12.745  12.870 -0.0468 -0.0015 -0.3534
20189W        W37713   8.517   1.848  16.559 -0.0568  0.1284  0.0609
20190W        W37714  14.811  13.302   3.999 -0.3210 -0.2550 -0.1328
20191W        W37715   7.391   0.892   3.749 -0.1309 -0.0144  0.3543
20192W        W37716   5.880   6.789  14.084 -0.1036  0.1862 -0.1032
20193W        W37717  10.808   4.642   1.699  0.0022  0.2195 -0.1444
20194W        W37718   3.990   1.270   2.851 -0.2358 -0.3037  0.0873
20195W        W37719  13.422  10.817   0.302  0.1031 -0.0174 -0.3749
20196W        W37720  13.191   7.670  16.605 -0.3882 -0.0355 -0.1569
20197W        W37721   5.819   2.149  12.875 -0.1106 -0.1821  0.2825
20198W        W37722   5.292   2.569  15.494 -0.2211 -0.3156 -0.0302
20199W        W37723  11.337  10.633  14.400  0.0048 -0.4556  0.2133
20200W        W37724   9.121   3.348   2.063 -0.1979  0.0005 -0.1267
20201W        W37725   0.990   8.804  11.578  0.0023  0.1507  0.3999
20202W        W37726   1.179  10.461   4.575 -0.0877 -0.2627 -0.0195
20203W        W37727  12.353   9.416  16.940  0.2024  0.1461 -0.0246
20204W        W37728   3.021  13.170   5.080  0.2610  0.1256  0.1430
20205W        W37729   3.482  10.178  14.902 -0.1229 -0.0493  0.0611
20206W        W37730   3.649  15.387   3.790  0.0466  0.4002  0.0363
20207W        W37731   3.235  11.767   0.678 -0.0375  0.1436  0.0510
20208W        W37732  13.445  16.668  12.587  0.0340  0.1372 -0.1532
20209W        W37733   8.012   0.633  12.681 -0.0412  0.1575 -0.1849
20210W        W37734  11.586  13.349   3.872  0.6196  0.1178  0.1109
20211W        W37735  12.085  13.741   3.244  0.0332 -0.0176  0.1842
20212W        W37736   6.976   4.299   0.277 -0.0979  0.1503  0.2000
20213W        W37737   7.917  12.208   5.634  0.0096  0.1813 -0.1305
20214W        W37738  16.976   2.166   3.693  0.1048 -0.1772  0.0795
20215W        W37739   9.097   1.331   1.556 -0.0384  0.0032 -0.1381
20216W        W37740  11.672   8.278  14.540  0.0429  0.1292 -0.3770
20217W        W37741   1.886  11.169   4.512  0.1533 -0.1345 -0.0915
20218W        W37742   9.893  12.806   3.914  0.0583  0.2343  0.1869
20219W        W37743   1.258  16.739  13.816  0.1272 -0.1992  0.0217
20220W        W37744   8.138   2.238  14.331 -0.0383  0.1069  0.1354
20221W        W37745   8.559   9.267   5.419  0.2975  0.0533 -0.2027
20222W        W37746   0.101   7.897   0.472 -0.0153 -0.1581  0.0289
20223W        W37747  11.989  13.460  16.154  0.0527 -0.1262 -0.0351
20224W        W37748   8.757  13.623  13.380 -0.1051  0.0629  0.2683
20225W        W37749   1.563   1.054  14.518 -0.1791 -0.1487 -0.4075
20226W        W37750   3.734   5.515  13.396 -0.0011  0.0610 -0.0095
20227W        W37751   2.622  12.431   1.914  0.0478  0.0316 -0.2246
20228W        W37752  13.653  16.572   2.842 -0.0541  0.0154  0.1872
20229W        W37753  12.056  10.279   2.103 -0.0594 -0.3426  0.1718
20230W        W37754  16.310   6.467   1.007  0.1004  0.2040 -0.0465
20231W        W37755  12.737  13.010   3.381 -0.0812 -0.2658 -0.2041
20232W        W37756   6.250   3.450   2.622  0.0028 -0.0747  0.4279
20233W        W37757  15.423  16.402  12.988 -0.2034  0.0590 -0.1019
20234W        W37758   6.132   6.144  16.172 -0.0403  0.0051 -0.0591
20235W        W37759   9.914  14.829  16.451  0.0405  0.2396 -0.1795
20236W        W37760   4.047  14.989   2.422 -0.1035  0.0675  0.0532
20237W        W37761   5.802  15.683  16.695  0.0729 -0.0445 -0.0945
20238W        W37762   4.061   3.745  17.219 -0.1799  0.0269  0.1286
20239W        W37763   3.563   3.644   0.132 -0.6358  0.3544  0.1758
20240W        W37764  13.472  16.239  12.264 -0.0363  0.2459  0.1271
20241W        W37765  12.267  17.109   3.125 -0.0843 -0.1805  0.2015
20242W        W37766   7.073  12.705   3.941  0.0272 -0.1627 -0.1078
20243W        W37767   2.630   6.287   2.252  0.1097 -0.2414 -0.1286
20244W        W37768  14.951   9.425  11.074 -0.2227 -0.1544 -0.0686
20245W        W37769  12.598   1.639   2.068  0.0228 -0.1650  0.1352
20246W        W37770  12.909  11.231   5.306 -0.1104 -0.1250  0.2327
20247W        W37771   8.170   2.313   2.431 -0.0292 -0.1533  0.3187
20248W        W37772   1.768   1.784   4.426 -0.0649 -0.1820 -0.4673
20249W        W37773   8.568   1.950   3.217  0.1408  0.2731  0.1537
20250W        W37774   0.560   0.236  14.621 -0.0060  0.1269 -0.2330
20251W        W37775  14.877   2.996  15.587  0.3187  0.1430 -0.0473
20252W        W37776   7.387  10.429  13.581 -0.0765 -0.0729 -0.0862
20253W        W37777   4.235  13.621  15.188  0.3663  0.0019 -0.1186
20254W        W37778  14.015   4.310   4.253  0.1980 -0.2760  0.0678
20255W        W37779   7.033  12.038  12.854 -0.2131 -0.1045  0.2119
20256W        W37780   4.592  13.946   1.902 -0.1696  0.1405  0.0892
20257W        W37781   9.394   7.318  12.951  0.4125  0.1713 -0.3103
20258W        W37782   7.171   9.808  13.582 -0.1026  0.2068  0.2602
20259W        W37783  10.455  14.144   2.635  0.0717 -0.0072 -0.0418
20260W        W37784  17.136   6.320  15.127  0.0390  0.1213  0.0607
20261W        W37785  10.770  15.387  16.902 -0.2039  0.2021 -0.1363
20262W        W37786   0.089  17.247   0.458 -0.1030  0.0613  0.4168
20263W        W37787   4.109   9.361   1.679 -0.2769 -0.0487  0.0320
20264W        W37788  16.007  11.705  12.592 -0.0472 -0.0215 -0.1966
20265W        W37789  11.840   7.812  17.537  0.0753  0.0079 -0.0880
20266W        W37790   3.976   3.709  14.420 -0.1505  0.3624 -0.2904
20267W        W37791  16.292  10.535   2.870  0.0760 -0.0307 -0.1000
20268W        W37792  16.648  15.445   0.430  0.1090  0.0201 -0.1565
20269W        W37793  10.913   3.207   0.672  0.1441  0.4296  0.2127
20270W        W37794  14.930   2.347   1.775 -0.3374  0.3846  0.1511
20271W        W37795  12.950   2.041   1.227 -0.2559  0.0810  0.0473
20272W        W37796  10.175  10.747   4.281  0.0649  0.0612  0.1509
20273W        W37797   6.470  12.605   1.043 -0.3173  0.0488  0.0464
20274W        W37798   6.861   5.957   1.002  0.3457  0.0615  0.0954
20275W        W37799  15.293   4.686  16.224  0.2007  0.2556 -0.1019
20276W        W37800  13.092  10.490  12.918 -0.1033 -0.2294 -0.0583
20277W        W37801   5.277  14.515   4.520  0.3060 -0.0221 -0.0678
20278W        W37802   0.952  13.252   0.632  0.2490  0.1591 -0.0660
20279W        W37803   8.231   1.957  15.158 -0.1579 -0.0848 -0.2380
20280W        W37804   4.975  11.411  16.070 -0.2548  0.0286  0.2907
20281W        W37805  14.483  16.363  13.811  0.0418 -0.0905  0.1966
20282W        W37806   6.448   4.314  13.333  0.2166  0.1783 -0.1196
20283W        W37807   3.485  10.897  16.480  0.0822 -0.0532  0.2241
20284W        W37808   7.057  13.816  15.477  0.1780  0.1688 -0.1386
20285W        W37809  14.249  14.445   1.515  0.1533 -0.0241  0.0047
20286W        W37810   4.131   4.753   3.897 -0.2459 -0.2897  0.0071
20287W        W37811   5.370  11.486  12.913 -0.1424 -0.3604 -0.0919
20288W        W37812   1.521   4.417   4.143  0.3204 -0.1995 -0.1433
20289W        W37813   2.659  14.897  13.262  0.1472 -0.1601  0.0300
20290W        W37814   5.710   8.127  16.129  0.1164  0.0661 -0.2303
20291W        W37815   8.495   6.576  14.582 -0.0910 -0.2003 -0.2993
20292W        W37816   3.731   3.136   4.637 -0.2486  0.3045 -0.0918
20293W        W37817  10.348   3.275  12.981  0.0699  0.0750 -0.1372
20294W        W37818  15.897  14.041  15.374 -0.2521  0.1119 -0.0572
20295W        W37819  15.836   4.384   2.576 -0.2086  0.5157 -0.0563
20296W        W37820   3.771   5.805  11.886 -0.3169 -0.1022  0.2994
20297W        W37821  11.576   9.153  14.936 -0.3879 -0.2410 -0.0362
20298W        W37822   9.007   9.738   2.982 -0.0609  0.0978  0.2034
20299W        W37823   5.624  11.033   6.412  0.0809  0.0078  0.0584
20300W        W37824  12.081   6.384  15.088 -0.2178  0.3346  0.5776
20301W        W37825   3.297   7.902   1.565  0.4458  0.2320  0.3881
20302W        W37826   3.554   1.732  12.118  0.1857 -0.1202 -0.1363
20303W        W37827  13.226   6.187  10.658  0.2299  0.0263 -0.0869
20304W        W37828  17.049  12.894  13.234 -0.1036  0.0903  0.1122
20305W        W37829   3.460  13.208  14.047  0.3354  0.3050 -0.0354
20306W        W37830  10.614  15.596  15.831  0.0628  0.0570 -0.4731
20307W        W37831  14.066  15.971   2.256  0.3011  0.3053  0.0464
20308W        W37832   2.794   0.197   0.355 -0.0608 -0.0703  0.1093
20309W        W37833   4.740   1.055  13.255 -0.4171 -0.0867 -0.4064
20310W        W37834   5.247   2.749   2.912  0.0949  0.0771  0.0233
20311W        W37835  12.667  10.458  15.592 -0.0700 -0.0448  0.0641
20312W        W37836   2.435   0.859   1.152  0.0353 -0.0235  0.0655
20313W        W37837  12.138  14.670  14.593  0.1207 -0.1071 -0.0125
20314W        W37838   7.936  14.495   5.544 -0.1994  0.0983 -0.1512
20315W        W37839  12.144   2.828   1.456 -0.2310 -0.2437 -0.1659
20316W        W37840  11.763  10.068   0.631 -0.0015  0.2671 -0.2494
20317W        W37841   2.951  12.796  13.728  0.0341  0.0418  0.1400
20318W        W37842   4.096   0.221   0.041  0.0398  0.0629  0.2066
20319W        W37843   9.097   2.754   3.810 -0.1343 -0.0036 -0.0152
20320W        W37844  13.007   5.705   0.181 -0.3711  0.0791  0.2707
20321W        W37845   6.488   9.714  13.118 -0.1150 -0.2694 -0.0457
20322W        W37846   7.751   5.077   2.492 -0.3030  0.0792 -0.3765
20323W        W37847   2.551   2.071  16.116 -0.0477 -0.1437 -0.0711
20324W        W37848   0.614   2.982  16.855 -0.0650 -0.1596  0.1633
20325W        W37849  10.476  14.102  13.172 -0.1027  0.2124 -0.1213
20326W        W37850   6.585  12.982  13.941 -0.1870 -0.2798 -0.2995
20327W        W37851  13.825   6.816   1.108 -0.0665  0.0380  0.0318
20328W        W37852  11.508  16.812  15.395 -0.0515  0.1391  0.1086
20329W        W37853   0.977  13.861   6.185  0.3023  0.0067 -0.0257
20330W        W37854   7.712  16.953   2.364 -0.1823  0.0821  0.0824
20331W        W37855  17.008  10.931  11.681 -0.0655 -0.1186  0.3462
20332W        W37856  14.839  13.822   2.760  0.2680 -0.2813  0.0847
20333W        W37857   7.954   5.461  17.567 -0.0098 -0.1624 -0.1051
20334W        W37858   5.900  16.909   2.205 -0.0593  0.0741 -0.1809
20335W        W37859   1.514  10.888  13.418  0.1145  0.0313  0.0850
20336W        W37860   7.358  14.795   1.599  0.1797  0.0675  0.3401
20337W        W37861   0.527   0.289  12.903  0.1073  0.0220 -0.0407
20338W        W37862  13.913   6.166   1.872 -0.0167  0.0346  0.0736
20339W        W37863   6.288   7.718  12.678  0.2133 -0.2769 -0.2635
20340W        W37864  11.108  17.125   4.939 -0.0811  0.1081 -0.1303
20341W        W37865   7.153  11.984   4.024  0.1611  0.0666 -0.0654
20342W        W37866   5.372   0.524  14.553  0.3553 -0.0528  0.0196
20343W        W37867   9.745   2.258   5.641  0.0987  0.0817  0.0110
20344W        W37868   3.319   7.103   6.385 -0.1716 -0.0859 -0.2008
20345W        W37869   4.837   0.810  15.762 -0.1982  0.0263  0.1650
20346W        W37870   4.517  11.394   2.041  0.2779 -0.2053  0.1692
20347W        W37871   8.484  10.173   5.460 -0.1441  0.0877 -0.2779
20348W        W37872   3.570  12.118   2.808 -0.1437 -0.0644 -0.2026
20349W        W37873  16.368  13.171  16.400 -0.2277 -0.0499  0.0857
20350W        W37874   1.797  12.291  15.060 -0.1847  0.0054  0.1414
20351W        W37875   1.210  16.135   2.491  0.0482  0.0073  0.1421
20352W        W37876   0.605   9.152   5.113 -0.1012 -0.1251 -0.0723
20353W        W37877   7.502   9.771   4.634  0.2730  0.0530 -0.1572
20354W        W37878  16.108  15.087  13.403  0.3848  0.1229  0.1198
20355W        W37879  15.639  14.343   5.307  0.3380 -0.2793  0.0429
20356W        W37880   1.079   6.768  17.602  0.3527 -0.3583 -0.0655
20357W        W37881  16.555  10.266  15.051 -0.0661 -0.0410  0.0602
20358W        W37882   9.058  15.454  15.621 -0.0954  0.0246 -0.0633
20359W        W37883   2.794  11.043  13.645 -0.3106 -0.0810  0.1022
20360W        W37884  13.102   1.510  16.468 -0.2044  0.1729  0.0630
20361W        W37885   8.531   6.900  14.936 -0.0718  0.0819  0.0006
20362W        W37886   3.128   6.778   4.152 -0.0499 -0.1642  0.0597
20363W        W37887  11.310   0.319  13.394 -0.0091  0.0391 -0.2695
20364W        W37888   5.038   4.193   1.230  0.3447 -0.0965 -0.0377
20365W        W37889   0.856   2.900   4.509 -0.0659 -0.0669  0.0956
20366W        W37890   7.181   5.614   3.795  0.1453  0.0780 -0.0327
20367W        W37891   1.146   5.695  17.228 -0.1710  0.2666 -0.1428
20368W        W37892   4.673  10.443  13.012 -0.1767 -0.1371  0.0874
20369W        W37893   9.697  10.282   2.519  0.0625  0.1546  0.1613
20370W        W37894   6.075  13.282  17.204 -0.0299  0.0448  0.1643
20371W        W37895   4.514  13.532   2.269 -0.1164  0.1314 -0.0637
20372W        W37896  15.233   5.720   2.212  0.1305 -0.0561 -0.0651
20373W        W37897   4.204  12.267  16.293 -0.2676 -0.1994  0.2276
20374W        W37898   0.358  14.800  14.660 -0.0694  0.0351 -0.4500
20375W        W37899   0.112  14.261   4.586  0.0669  0.0362  0.0244
20376W        W37900   4.264  11.941   4.548 -0.2970 -0.0168  0.3346
20377W        W37901  17.049   9.181   4.256  0.1162 -0.2813  0.0973
20378W        W37902  10.804   1.086   1.534  0.1270 -0.2062  0.1418
20379W        W37903  15.037  13.387  12.309  0.0738 -0.5751 -0.1133
20380W        W37904   1.485   0.601  14.811 -0.0232  0.3364  0.2345
20381W        W37905   5.842  17.217  12.433 -0.1349 -0.1075 -0.3897
20382W        W37906   4.238  14.235  12.749 -0.0736  0.0192  0.2238
20383W        W37907   2.185  15.875  13.888  0.0109 -0.0989  0.0041
20384W        W37908   9.164  11.822   2.420 -0.2200 -0.0099 -0.0569
20385W        W37909   9.075  14.557   1.092  0.2292  0.0181  0.0976
20386W        W37910  12.367   1.424   4.585 -0.2450 -0.2264  0.1227
20387W        W37911  15.669   5.502   2.407 -0.1454  0.0510 -0.0131
20388W        W37912  12.268  15.933  14.802  0.1795  0.0245  0.1917
20389W        W37913   3.492   0.735   5.072  0.1712 -0.0367  0.3640
20390W        W37914  16.634   1.425   3.386 -0.2288 -0.2872 -0.6097
20391W        W37915   9.680  16.681   1.406  0.0217  0.1956  0.1144
20392W        W37916   7.726  11.457   1.507 -0.2637 -0.3031  0.1636
20393W        W37917  16.139   9.963  12.728  0.0093 -0.0799 -0.2615
20394W        W37918  11.467  15.727  12.398 -0.0249 -0.1980  0.1636
20395W        W37919   0.944   3.823  14.413 -0.0831 -0.0353 -0.2624
20396W        W37920  16.835  12.386  15.391 -0.1009 -0.0394 -0.1579
20397W        W37921   2.261   6.051  12.909  0.2474  0.0456 -0.0435
20398W        W37922  15.995  15.572   3.042 -0.1244  0.1407  0.0803
20399W        W37923   3.436   0.887   4.085 -0.1012 -0.0097  0.0848
20400W        W37924  16.378   0.098  14.271 -0.0963  0.0378 -0.1390
20401W        W37925   8.954   2.003   5.434 -0.2001 -0.4183 -0.2666
20402W        W37926  11.686  14.332  12.385 -0.2536 -0.2411  0.2171
20403W        W37927   3.963   3.582   4.446  0.0895  0.1668 -0.0868
20404W        W37928   7.539   3.900   5.113  0.0307 -0.1091 -0.1826
20405W        W37929  15.145  11.951   2.074  0.1528 -0.0794  0.2188
20406W        W37930   9.344  15.009   2.132 -0.2930 -0.0048  0.2873
20407W        W37931   1.327   2.205   5.679  0.1050 -0.1290 -0.2764
20408W        W37932   6.973   8.374   0.607 -0.2170 -0.0830  0.0371
20409W        W37933   3.610   5.870   4.628  0.0961 -0.2157 -0.2088
20410W        W37934   5.110   7.454  12.463  0.2962 -0.0247 -0.0176
20411W        W37935  14.346  11.608   2.420  0.0149 -0.1956  0.2107
20412W        W37936  14.169   0.761  17.509 -0.1615  0.3320 -0.0986
20413W        W37937  16.368  13.770  12.053  0.0582  0.1982 -0.0724
20414W        W37938  12.816   5.878  15.494 -0.2012  0.1103 -0.1470
20415W        W37939  14.260   6.511   3.305 -0.1090  0.2390 -0.0424
20416W        W37940   0.216   5.599   3.165  0.0951 -0.0031  0.0318
20417W        W37941   8.724  14.331   1.959 -0.0407  0.1257  0.0713
20418W        W37942  14.422  14.895   0.780 -0.4868 -0.0791  0.2568
20419W        W37943  17.217  11.022  12.539 -0.1696  0.1861  0.0894
20420W        W37944   6.849   2.053   2.870  0.3470  0.0834 -0.1075
20421W        W37945   8.074  14.744   2.193 -0.1611  0.1353  0.0968
20422W        W37946  11.240  14.556  17.220  0.0321  0.1107  0.2647
20423W        W37947   9.075   2.255  13.093 -0.0525  0.1347  0.2205
20424W        W37948  15.766   5.140   2.715 -0.0482 -0.1547 -0.1407
20425W        W37949  10.375   2.575  14.186 -0.0503  0.1121 -0.1451
20426W        W37950   1.177  15.349  14.319  0.2601  0.0536 -0.1357
20427W        W37951   0.035   9.980  12.727 -0.0144 -0.0835 -0.0810
20428W        W37952   4.390   7.528  15.246 -0.0106 -0.1329 -0.2912
20429W        W37953   4.168   3.601  14.867 -0.0799  0.1510 -0.0809
20430W        W37954   3.394   6.773   4.682 -0.1074 -0.0877 -0.0766
20431W        W37955  13.369  17.186  15.246 -0.0223 -0.0288 -0.1027
20432W        W37956   2.204   4.780   5.148  0.0809  0.2060  0.1284
20433W        W37957  11.436  16.620   3.815  0.0031  0.1898  0.1897
20434W        W37958   9.620  11.536   0.455 -0.3370 -0.1299  0.1055
20435W        W37959   4.094  10.132   1.949 -0.1221  0.4421 -0.5420
20436W        W37960   8.822   3.733  13.949  0.1404 -0.1022 -0.1491
20437W        W37961   6.570   8.603  14.834  0.2607 -0.2843  0.0726
20438W        W37962  14.502   5.578   3.911 -0.0368  0.1407 -0.4054
20439W        W37963   0.097   3.909  16.108 -0.0031 -0.2359 -0.1426
20440W        W37964   6.099   0.446  15.832 -0.0149  0.2893  0.0308
20441W        W37965   1.367   1.154   1.847 -0.0534  0.2737 -0.3671
20442W        W37966   0.105   8.146  14.818 -0.1563  0.1149 -0.3405
20443W        W37967   5.120   6.114  17.136 -0.3543 -0.1977 -0.3222
20444W        W37968  15.618   5.392   1.918  0.3691  0.1683  0.0432
20445W        W37969   3.756  10.137  16.136 -0.0719  0.1950  0.0840
20446W        W37970  13.037  14.750  12.741  0.0062 -0.0922  0.1804
20447W        W37971   4.961   2.402   4.718  0.3169  0.0417  0.0017
20448W        W37972  12.350   7.156  15.851 -0.0435  0.0510  0.0533
20449W        W37973  10.827  13.085   1.754 -0.0054  0.0573  0.2003
20450W        W37974  14.090   9.259  13.311 -0.2688 -0.1810  0.1727
20451W        W37975   6.458   0.221   3.991  0.2042  0.1359 -0.1622
20452W        W37976   2.661  14.119  16.448 -0.5933 -0.1274 -0.0758
20453W        W37977   3.325   3.530  17.237  0.1172  0.1262  0.0777
20454W        W37978   4.526  10.210   0.405 -0.0761  0.2212  0.0182
20455W        W37979  16.345  16.833  14.517 -0.1417  0.1983 -0.3590
20456W        W37980  17.146  16.884  12.521  0.0727  0.2143 -0.0099
20457W        W37981   1.976   9.853   2.571 -0.0550  0.2237 -0.2710
20458W        W37982  15.658   8.974  16.004  0.2501  0.0884 -0.0957
20459W        W37983   5.376  16.566   1.828  0.0009 -0.3042  0.0542
20460W        W37984   8.028   3.395   0.982 -0.1564 -0.2972  0.1099
20461W        W37985  16.871   5.597   0.870  0.3257 -0.0297 -0.1218
20462W        W37986  14.795   4.395  15.414 -0.1780  0.4263  0.2355
20463W        W37987  10.021   4.887   1.593 -0.3476  0.0392  0.0891
20464W        W37988  10.681   9.959   0.032 -0.2134 -0.3062 -0.3858
20465W        W37989   2.399  11.430  15.039 -0.2081 -0.1425 -0.1353
20466W        W37990   9.751   4.989   4.505 -0.2028  0.0247  0.2132
20467W        W37991   9.474   9.677   0.589  0.2154 -0.0013 -0.2808
20468W        W37992   7.277  14.597   0.951  0.1351  0.2510 -0.0215
20469W        W37993   7.355  12.901   3.053  0.0276 -0.0015 -0.2243
20470W        W37994  13.267  16.779  16.327 -0.1641 -0.2005 -0.0187
20471W        W37995  12.009   5.356  16.947 -0.1015  0.0685 -0.3017
20472W        W37996  14.580   8.319  15.338 -0.0409  0.1282  0.1348
20473W        W37997   2.216  11.480  14.510  0.0231 -0.0456  0.1155
20474W        W37998  11.799   3.127  12.616  0.0746 -0.1934 -0.1677
20475W        W37999   4.438   4.066  15.254  0.3466  0.1113 -0.0560
20476W        W38000   6.385  14.937  16.834 -0.1031 -0.0685 -0.0411
20477W        W38001   4.886   8.079  17.133  0.3771 -0.0959  0.0965
20478W        W38002  16.472   6.951   0.374  0.0969  0.4097 -0.0096
20479W        W38003  12.073  11.259  16.555  0.1154 -0.1744  0.0653
20480W        W38004   6.688  10.684   0.458 -0.0626 -0.1839  0.0943
20481W        W38005  11.227   9.477   5.016 -0.2581  0.0040 -0.3159
20482W        W38006  11.341  12.027  16.083 -0.0103  0.0062 -0.0818
20483W        W38007  16.641   8.828   0.219  0.0163  0.2285 -0.2782
20484W        W38008  15.426  13.112   1.450  0.0346  0.1841 -0.5303
20485W        W38009  15.486   8.901   6.132 -0.0215  0.3317 -0.0112
20486W        W38010   1.581  10.833   5.427  0.1303  0.3386  0.1128
20487W        W38011   7.885   0.439   1.728  0.1972  0.2634  0.0313
20488W        W38012   1.407  12.065   3.437 -0.1874  0.0176  0.3705
20489W        W38013   2.208   9.435  13.463  0.3370  0.0223 -0.2735
20490W        W38014   4.083  15.152  16.417 -0.1665 -0.2565 -0.0425
20491W        W38015   6.893   7.276   2.147  0.3332  0.1822 -0.0561
20492W        W38016  15.577  12.235  16.860 -0.0043  0.1029 -0.1001
20493W        W38017   3.725  15.239   2.802  0.2772  0.1474 -0.1330
20494W        W38018   0.711   8.828   4.295 -0.0246 -0.1924 -0.3104
20495W        W38019   0.094   0.502   0.609  0.0352  0.1580 -0.1791
20496W        W38020   0.608  11.830  12.878 -0.1464 -0.0424  0.0963
20497W        W38021  14.092  16.766  13.278  0.1961 -0.0113 -0.1056
20498W        W38022   3.592   0.391   3.988 -0.0424 -0.1870 -0.0781
20499W        W38023  10.102  15.370   6.040  0.1092  0.0174 -0.2064
20500W        W38024  16.607   5.934   2.478 -0.0548  0.1331  0.0885
20501W        W38025  11.407  10.492   1.587 -0.2204  0.1350 -0.2713
20502W        W38026   6.416  10.315   4.950  0.0708  0.0388  0.0398
20503W        W38027   5.298   0.370  16.321  0.5319 -0.1721 -0.1228
20504W        W38028   3.814   9.762   3.031 -0.0317  0.2824  0.5085
20505W        W38029   1.019  10.779  13.349  0.0281 -0.0541  0.0633
20506W        W38030   9.716   5.115   1.235  0.1534 -0.3546  0.0009
20507W        W38031   3.517   4.833   2.203  0.0509  0.2720  0.0201
20508W        W38032   0.173   3.597  16.898  0.1625  0.0526  0.0464
20509W        W38033   4.259   8.594  16.538 -0.0058  0.1151 -0.0430
20510W        W38034   5.130  15.194  13.515  0.0291  0.0425 -0.1384
20511W        W38035  12.897   6.276   5.122 -0.1329 -0.0583  0.0766
20512W        W38036  12.751  12.082   2.540 -0.0773 -0.0285  0.0759
20513W        W38037  14.429  10.078   2.850 -0.1171  0.3410  0.0602
20514W        W38038   4.653  11.467  15.745 -0.1623  0.0511  0.0750
20515W        W38039   0.697  15.564  16.944  0.5351  0.2221 -0.0299
20516W        W38040  14.887   6.401  14.480 -0.3429  0.4555  0.0471
20517W        W38041   3.825   1.363  11.901  0.0778 -0.0492  0.2798
20518W        W38042   8.642   8.225   4.060  0.3137  0.3619 -0.1392
20519W        W38043   8.263   7.450   4.289  0.1913 -0.2843  0.2529
20520W        W38044  12.897   6.532  14.549 -0.3163  0.0126  0.2026
20521W        W38045   7.211   6.169  16.460  0.1048  0.1321  0.0814
20522W        W38046   6.365  16.970  13.758  0.1694  0.2808 -0.3167
20523W        W38047  14.810   2.319  16.532  0.1845 -0.0663 -0.1544
20524W        W38048   1.576   6.040  13.337 -0.2414 -0.3336  0.1825
20525W        W38049   8.197   9.786   2.827  0.1166 -0.0186 -0.1791
20526W        W38050  10.054   3.443   3.083 -0.0411 -0.0791 -0.4040
20527W        W38051   8.206  13.569  16.040 -0.1341 -0.1941 -0.3500
20528W        W38052   3.794  10.314   3.283 -0.1135  0.1850  0.2107
20529W        W38053  11.203   7.200  16.808 -0.1251  0.2477 -0.0125
20530W        W38054  11.969   3.204  13.399 -0.3309  0.2076 -0.1507
20531W        W38055  15.520  13.815  15.090  0.0491  0.1576  0.1563
20532W        W38056   2.119  12.795   4.142 -0.3045  0.0327  0.1726
20533W        W38057  17.018  16.219   0.334 -0.0120 -0.0797 -0.1151
20534W        W38058   6.137   9.095  15.237  0.1313  0.0761 -0.2200
20535W        W38059   6.442  13.065  13.469  0.0689 -0.0659 -0.0007
20536W        W38060  15.833   7.138  15.491  0.0267 -0.0795  0.2151
20537W        W38061   2.764   9.679   1.460 -0.0901 -0.1738  0.1113
20538W        W38062   1.458  10.078   2.548 -0.3498  0.1968  0.2663
20539W        W38063  13.130   1.498   0.993  0.0162 -0.0412  0.0376
20540W        W38064  12.489  16.136  14.351 -0.0291  0.0263  0.1786
20541W        W38065   8.111  13.396  14.746  0.0849  0.0336 -0.1147
20542W        W38066   3.979   5.432   0.098 -0.1047 -0.1088 -0.0889
20543W        W38067  13.268   2.433   5.573 -0.1293 -0.2379 -0.2121
20544W        W38068   8.005  17.152  15.460  0.0574 -0.1721  0.0720
20545W        W38069  13.827   6.670   5.466  0.2647  0.2169 -0.1535
20546W        W38070  14.616   5.914   5.031  0.0673  0.1095  0.1378
20547W        W38071  10.314  12.687   4.841 -0.3288  0.0436  0.0656
20548W        W38072   9.321  12.953  14.187  0.0961 -0.3361 -0.0215
20549W        W38073   7.899   8.909  15.799  0.2574 -0.0013 -0.2279
20550W        W38074   1.001   6.414   1.632 -0.0161  0.3797  0.2776
20551W        W38075   7.844   5.829   5.985  0.0053 -0.0213 -0.0269
20552W        W38076   2.902   6.468   3.484 -0.2215  0.2077 -0.0006
20553W        W38077   6.821   4.759  17.617  0.0433 -0.1621 -0.1426
20554W        W38078   8.934  14.630   5.553 -0.2086 -0.2467 -0.2197
20555W        W38079  14.820   1.874  16.296  0.2676 -0.1171 -0.0553
20556W        W38080  12.832  15.728  17.334 -0.1639 -0.2003  0.0292
20557W        W38081  10.273  14.604   3.349  0.0496  0.0524 -0.1992
20558W        W38082   0.879   3.748  15.438  0.2540  0.1348  0.3101
20559W        W38083   5.600   4.756   4.529  0.0440 -0.1928  0.5066
20560W        W38084  11.380   3.976   3.070  0.1292 -0.1215  0.1509
20561W        W38085   0.426   6.182   5.044  0.0600 -0.1388 -0.3071
20562W        W38086  14.795  15.960  14.619  0.3180 -0.1038 -0.0944
20563W        W38087   1.964  14.251  16.201 -0.2224 -0.2333 -0.0596
20564W        W38088  11.730  11.567  13.438 -0.0507 -0.0045  0.1804
20565W        W38089  10.735   8.897  16.605  0.0510 -0.2879 -0.1499
20566W        W38090   8.600   0.277  12.837  0.2129  0.0396 -0.2904
20567W        W38091  11.024   8.270   5.815 -0.0967 -0.1950 -0.1071
20568W        W38092   2.622   5.470   1.791  0.0997  0.0405 -0.2001
20569W        W38093  10.430   7.143  13.532  0.2857  0.1154  0.1662
20570W        W38094  12.106   4.115  12.991 -0.0427 -0.0475  0.1573
20571W        W38095  12.851   6.919  15.331  0.1223 -0.0495  0.1517
20572W        W38096  15.451  14.628   1.870  0.1404  0.1646 -0.0177
20573W        W38097   2.082   4.297  15.845  0.0300 -0.2257 -0.2151
20574W        W38098  15.604  15.588   4.687  0.1287  0.5096 -0.0728
20575W        W38099   5.151   7.443   1.276  0.1227  0.1342 -0.1395
20576W        W38100  14.636  11.000  13.564 -0.0473  0.2014  0.0268
20577W        W38101   3.804   9.358   3.402  0.0381 -0.1499 -0.1321
20578W        W38102   3.349   1.758   4.672 -0.1428 -0.1068  0.0531
20579W        W38103   5.904  15.218  13.771 -0.1598 -0.2183  0.3219
20580W        W38104   2.429   5.477   3.997  0.1297 -0.0333  0.0353
20581W        W38105  16.093  15.034  13.929 -0.1503  0.1909 -0.0493
20582W        W38106   8.082  17.164  15.950  0.0410 -0.1854  0.1250
20583W        W38107  12.759   3.811  12.289 -0.0291 -0.1722  0.0057
20584W        W38108  16.714   5.602  15.233 -0.3667  0.1516  0.0174
20585W        W38109   9.092   1.662   4.077  0.1230 -0.1070  0.0513
20586W        W38110   9.410   1.378   5.913 -0.0474 -0.1648 -0.3340
20587W        W38111   7.750   8.543   2.345 -0.0222 -0.1791  0.0625
20588W        W38112   3.507  17.151  13.584 -0.1175  0.0238  0.1239
20589W        W38113  10.796   4.053  13.071 -0.1815 -0.0855  0.3207
20590W        W38114   2.022   7.086   2.739 -0.0689  0.2381 -0.3364
20591W        W38115   8.734   0.642  14.899  0.0199 -0.2404 -0.1326
20592W        W38116   1.675   8.645   4.760 -0.4389 -0.2258 -0.0563
20593W        W38117   9.681   0.127   2.213  0.0273  0.0661 -0.0935
20594W        W38118   4.040  13.290   0.629  0.3624 -0.0024 -0.1180
20595W        W38119   6.354   0.285   0.132  0.1316 -0.0362 -0.0213
20596W        W38120  12.451   1.651  13.156 -0.3120 -0.0243 -0.2241
20597W        W38121   4.890  11.476  13.208 -0.0337 -0.0759 -0.0236
20598W        W38122   2.310   8.981  15.682 -0.1548  0.0034 -0.2412
20599W        W38123   5.790   1.691  16.495  0.0140  0.0666  0.1802
20600W        W38124   2.749   0.028   1.220 -0.4544  0.0381  0.0266
20601W        W38125  10.469   6.170   1.569  0.0430  0.0436 -0.0312
20602W        W38126   3.424   5.784  17.032  0.2387  0.5312  0.2740
20603W        W38127  10.047   6.797  15.356 -0.1558 -0.3204  0.0517
20604W        W38128   1.876   4.700   2.428  0.2335 -0.0298  0.1586
20605W        W38129  10.294  16.945   3.455 -0.1501 -0.2660  0.1026
20606W        W38130  10.839   3.339  14.222  0.0498 -0.2406 -0.1322
20607W        W38131   9.836  16.693  16.954  0.1357 -0.0725  0.4356
20608W        W38132  13.908  15.693   2.645 -0.1199  0.3426 -0.0396
20609W        W38133   6.156  12.509   4.807 -0.0338  0.1038 -0.1577
20610W        W38134  14.696  15.449  14.523 -0.0754 -0.0446  0.0454
20611W        W38135   6.132   7.896   0.815  0.4785  0.3312  0.3239
20612W        W38136   2.263   5.715   1.421  0.1328  0.0837 -0.1177
20613W        W38137  14.737  12.564   2.151 -0.0264  0.1292 -0.0945
20614W        W38138   5.194   3.453   5.737  0.1776 -0.0495 -0.1710
20615W        W38139   5.761  10.414   3.217 -0.1147  0.0258  0.0231
20616W        W38140   1.185   5.918   4.128 -0.4322  0.0722 -0.1652
20617W        W38141   4.498   7.182   5.400  0.1323 -0.1536 -0.1205
20618W        W38142  12.243   9.945   3.058 -0.2672 -0.2470 -0.0571
20619W        W38143   9.272   9.624   5.544  0.1837  0.1389  0.1321
20620W        W38144  11.639   1.484   5.840 -0.0666 -0.1449  0.0453
20621W        W38145  11.448  15.932  14.309  0.2511 -0.0423 -0.2608
20622W        W38146  17.153   4.291   4.667  0.0794  0.4373  0.0600
20623W        W38147   0.997  13.635   0.014 -0.1576 -0.1501  0.4146
20624W        W38148   0.527   6.374  11.718 -0.0006  0.1654 -0.1234
20625W        W38149   5.931  16.502   2.897  0.1058 -0.0822 -0.2274
20626W        W38150   7.972  12.710   5.142  0.0836  0.0129 -0.0659
20627W        W38151   8.806  13.065   4.795  0.0168  0.0290  0.1259
20628W        W38152   9.071  13.774  15.143  0.1348  0.1678  0.1948
20629W        W38153   9.648  16.685  15.115  0.1995 -0.0259 -0.1436
20630W        W38154   0.731   5.805  16.927 -0.0823 -0.0078 -0.0339
20631W        W38155   9.849  10.311   4.059 -0.2135  0.0664 -0.1817
20632W        W38156  15.033   0.225   2.852 -0.2296 -0.1623 -0.2458
20633W        W38157   8.498   3.164  12.207  0.1150 -0.0064 -0.1312
20634W        W38158  12.606   8.155   0.002 -0.1328 -0.1407  0.0590
20635W        W38159  10.925   0.030   4.312 -0.2532  0.0542 -0.0027
20636W        W38160   3.876   2.048   5.869  0.0711  0.1816 -0.3323
20637W        W38161   7.094   6.614   5.403 -0.1653 -0.2152  0.0908
20638W        W38162   9.002  12.443  12.413 -0.0027  0.0691  0.1553
20639W        W38163  12.086  17.084   5.126 -0.2127 -0.0579 -0.0468
20640W        W38164  15.587   4.791   3.638  0.0045 -0.2060 -0.2485
20641W        W38165  12.785   4.878  17.294 -0.3738  0.2217  0.4535
20642W        W38166   2.380   9.046  12.340  0.3253 -0.0740  0.3207
20643W        W38167  15.465   6.404   0.588  0.2991  0.5139 -0.1906
20644W        W38168   2.844  13.585   2.499 -0.3124  0.2089  0.1358
20645W        W38169  10.626   3.086  16.315  0.0794 -0.2184 -0.1803
20646W        W38170   5.244  13.395  16.118  0.0385 -0.0604 -0.4518
20647W        W38171   4.003  12.253   3.399 -0.2511  0.0940  0.3419
20648W        W38172   8.227  14.650  17.613 -0.1838 -0.1305 -0.5886
20649W        W38173   8.680   5.229   5.635  0.0360  0.2850  0.1738
20650W        W38174  16.264  15.028   2.224 -0.3600  0.0957  0.1103
20651W        W38175  12.935   5.632  15.020  0.1817  0.1292  0.2681
20652W        W38176   0.387  10.951   6.062  0.0383  0.0937  0.2360
20653W        W38177  12.615  15.292   1.171  0.1824  0.0417 -0.3845
20654W        W38178   1.212   9.019  17.611  0.0123  0.1406  0.0144
20655W        W38179  14.193   0.521  15.677  0.0112  0.0019 -0.0316
20656W        W38180   3.182   8.762  15.919  0.1014 -0.1383 -0.2547
20657W        W38181   9.573   1.327   1.755 -0.0127  0.0999 -0.1584
20658W        W38182   0.997   5.375   2.671 -0.0302  0.1789 -0.0566
20659W        W38183  12.182   2.382   2.380  0.0328  0.0101  0.1935
20660W        W38184   2.148  16.200   2.297 -0.0732 -0.4620 -0.5274
20661W        W38185   4.823   2.539  15.680 -0.3522  0.2769 -0.3625
20662W        W38186   3.003  12.588   1.062 -0.2288  0.0968 -0.1595
20663W        W38187   3.602   8.901   5.648 -0.1113  0.0616  0.1201
20664W        W38188   4.139   7.564   5.032  0.1720  0.0955  0.2343
20665W        W38189   3.383   5.361   1.441 -0.3457 -0.0105 -0.0843
20666W        W38190   4.671  15.912   0.174 -0.0061  0.1834 -0.0195
20667W        W38191  16.562  15.985  12.333  0.1040  0.3476 -0.2841
20668W        W38192   8.400  15.240   4.887 -0.2816  0.1975  0.0108
20669W        W38193   3.587  12.177   5.551  0.0582  0.0891  0.1036
20670W        W38194  14.899   8.861   0.994 -0.0309  0.0950 -0.1287
20671W        W38195  14.129  12.567   2.765 -0.1069 -0.0842  0.2640
20672W        W38196  11.665   5.718   0.709  0.1569  0.0664  0.1826
20673W        W38197   3.252  10.277   3.040  0.1928  0.2527 -0.1328
20674W        W38198  12.729   8.556  13.790  0.1442 -0.2224  0.1949
20675W        W38199  11.156   6.189  16.907 -0.4335  0.0670  0.0973
20676W        W38200   1.475  13.005  17.534  0.0749 -0.0048  0.0218
20677W        W38201  15.847  10.503   3.168 -0.1912  0.3443 -0.0024
20678W        W38202  12.527  16.271  13.811  0.2837  0.0947 -0.1951
20679W        W38203  10.946  16.143   4.602  0.0827  0.0710  0.0801
20680W        W38204   3.776   6.373  12.291  0.0928  0.0471  0.1073
20681W        W38205   0.291   0.301   2.445  0.0900  0.3158  0.2391
20682W        W38206  14.389   1.790  15.953 -0.1179 -0.2443  0.0557
20683W        W38207   2.642   6.912   4.267 -0.0500  0.2683 -0.0295
20684W        W38208  12.768   9.380   5.166  0.0362 -0.0233 -0.1515
20685W        W38209  10.424   0.266  15.340  0.1691  0.0627 -0.4202
20686W        W38210   6.045  13.911   0.439 -0.1299 -0.0884  0.1352
20687W        W38211  11.641   5.674   5.536  0.2117 -0.1257 -0.0511
20688W        W38212  14.195   8.011  15.528  0.0757  0.3275 -0.1411
20689W        W38213   8.839   3.635   0.228  0.3873  0.0694  0.3495
20690W        W38214   9.098   0.912   5.483  0.3769  0.0704 -0.0785
20691W        W38215   1.738  16.907   4.575  0.0566  0.0038  0.0516
20692W        W38216   8.133  16.844  17.633  0.1641 -0.1328 -0.3767
20693W        W38217  12.467   6.790   4.375  0.1120 -0.0097 -0.1998
20694W        W38218  11.596   2.162   0.418  0.1979 -0.1700  0.2084
20695W        W38219   2.551   1.648  13.837 -0.5494 -0.2551  0.0391
20696W        W38220   3.988   3.634   1.311 -0.0249  0.0657  0.0212
20697W        W38221   4.077   6.891   2.192  0.1121 -0.0306 -0.0688
20698W        W38222   9.402   5.256  16.382  0.0721 -0.2369 -0.1844
20699W        W38223  16.467  15.311  17.626  0.1388 -0.0071  0.2313
20700W        W38224   7.724   6.540   0.825  0.0171 -0.0495  0.0429
20701W        W38225   9.055  13.782   2.719 -0.1882  0.0617 -0.1081
20702W        W38226   2.205  13.216  15.706  0.1752  0.2938  0.1782
20703W        W38227  10.345   7.225  12.903 -0.2123  0.0775 -0.0294
20704W        W38228   4.171  11.346   5.051 -0.0746 -0.0315  0.2196
20705W        W38229   1.101  16.504   0.931 -0.0744 -0.1658 -0.1609
20706W        W38230  10.559   3.892   0.133  0.1007  0.3301  0.1280
20707W        W38231  13.275   6.408   4.147  0.0797 -0.4110 -0.0074
20708W        W38232   8.759  12.631  13.611  0.2636  0.0110  0.1137
20709W        W38233   5.961   4.459  15.962 -0.0731  0.0571 -0.2394
20710W        W38234  11.194  15.805  12.842 -0.0377  0.1001 -0.2502
20711W        W38235   2.071   2.043  12.578  0.1399 -0.2901  0.1501
20712W        W38236   3.737  13.044  14.644 -0.0585  0.2153  0.0179
20713W        W38237   8.501  10.799   0.758  0.2784 -0.1014  0.0428
20714W        W38238   2.718   6.820   3.187  0.4049  0.0052 -0.2119
20715W        W38239   0.847   7.489   5.233  0.1982  0.0071  0.3413
20716W        W38240  14.895  11.052   2.420 -0.4259 -0.0477  0.2165
20717W        W38241  13.420  14.794  14.228  0.1063  0.1434  0.0074
20718W        W38242   7.828  10.308  17.408  0.0077 -0.0476 -0.0652
20719W        W38243   2.540   9.957   2.112 -0.1894  0.0418 -0.0460
20720W        W38244  10.963   6.726   3.481  0.3075 -0.1155 -0.0148
20721W        W38245  10.398   6.711  16.096 -0.0952 -0.0847  0.1309
20722W        W38246   2.664  15.832  16.572  0.3061 -0.0568  0.0344
20723W        W38247  11.983   1.771  13.305  0.1943 -0.0942 -0.0025
20724W        W38248   1.624   7.536  12.440  0.1895 -0.1369  0.1381
20725W        W38249  16.848   6.039  15.433 -0.1310 -0.2104  0.2667
20726W        W38250  10.289  11.344  14.891  0.2746  0.1335 -0.1748
20727W        W38251   0.834   9.571  15.717 -0.0388  0.1288  0.3578
20728W        W38252   2.832  10.764  15.364 -0.0376 -0.0259  0.2602
20729W        W38253  13.415   4.230   4.924  0.0291  0.0929  0.1454
20730W        W38254   4.497   1.416   4.484  0.0953 -0.3477 -0.1886
20731W        W38255  16.471   1.971  13.085  0.1429 -0.0407  0.0295
20732W        W38256   7.781   6.291   5.858  0.0833  0.0228  0.1869
20733W        W38257   0.505   4.122   1.893  0.0983  0.3783 -0.1082
20734W        W38258  13.553   5.059   1.878  0.1978 -0.0264  0.2059
20735W        W38259  10.909  11.105  16.952  0.2965  0.1348 -0.0522
20736W        W38260  16.230  10.702   2.006  0.0804 -0.1371  0.0823
20737W        W38261  14.878   4.893   1.688  0.2215  0.0613  0.1469
20738W        W38262  11.831   9.333   0.487  0.1161 -0.4283 -0.2478
20739W        W38263  14.137  15.088  13.148  0.1841 -0.1516  0.0990
20740W        W38264   6.738   5.540  12.982  0.0902  0.1690 -0.1722
20741W        W38265   8.988  10.219   2.536  0.0830 -0.1217 -0.0915
20742W        W38266  13.136   9.643  13.150 -0.3671  0.1935  0.1300
20743W        W38267   7.992  14.354   3.693 -0.0010  0.0281 -0.0697
20744W        W38268  12.810  12.437  11.629 -0.2967  0.1828 -0.0012
20745W        W38269   7.957  10.887  17.591  0.0297 -0.2558  0.0671
20746W        W38270  15.494   8.343   2.859  0.1688  0.0626  0.3564
20747W        W38271  12.646   3.870   4.267  0.0003  0.1595 -0.1376
20748W        W38272   6.752   1.215  13.548 -0.1551 -0.3452 -0.1968
20749W        W38273   4.087   4.904   3.323 -0.1531  0.0430 -0.0688
20750W        W38274  10.329   9.646  12.817 -0.2248  0.0763  0.1833
20751W        W38275   3.726   1.234   3.882 -0.0278  0.0024 -0.0687
20752W        W38276   8.542   2.526  15.651 -0.0987 -0.4193  0.0493
20753W        W38277  14.924  11.167  14.413 -0.0184 -0.1670  0.0607
20754W        W38278  16.068  13.215   3.183  0.2215 -0.0978 -0.0186
20755W        W38279  13.284   1.937  13.513  0.0159 -0.3073  0.0608
20756W        W38280   0.484  10.540  11.930 -0.1164  0.1805 -0.1982
20757W        W38281   4.018  14.062   0.242  0.0198 -0.1002  0.4524
20758W        W38282   5.253  13.164   4.031  0.0977  0.2070  0.0268
20759W        W38283   6.687   7.877   2.924  0.1540 -0.2960  0.0291
20760W        W38284   6.022  15.793   4.265 -0.0938 -0.1031  0.1836
20761W        W38285   8.314   1.829   0.590  0.0107 -0.3785  0.1040
20762W        W38286   8.430   2.670  12.575 -0.0098 -0.2864 -0.0598
20763W        W38287   8.550  12.666  16.996  0.1746 -0.0194  0.3740
20764W        W38288  14.328  14.395  11.786  0.2622  0.1348  0.2049
20765W        W38289   7.774   5.800  15.175 -0.0211  0.2729  0.1436
20766W        W38290  13.722   7.509   1.781 -0.2279  0.0323 -0.1445
20767W        W38291   5.964   6.611   1.701 -0.3219 -0.0912 -0.1345
20768W        W38292   9.048   1.625   6.387  0.3018 -0.2057 -0.2705
20769W        W38293  14.583   9.389  13.411  0.0904 -0.2391  0.2272
20770W        W38294   2.681  15.917   5.081  0.0222  0.2227 -0.0223
20771W        W38295   8.823   0.126   1.113 -0.1319 -0.1293  0.0622
20772W        W38296  16.494  14.262   4.761 -0.0822  0.0980  0.0458
20773W        W38297   3.201  14.551   3.577  0.1022  0.1009  0.0258
20774W        W38298   7.409  13.194  13.776  0.3506  0.3939  0.2372
20775W        W38299  13.828  14.596  17.206 -0.1893 -0.1832 -0.0566
20776W        W38300   3.859   7.161   4.731  0.0538  0.1354 -0.0304
20777W        W38301  15.297   9.315  15.992 -0.0407  0.1015  0.1903
20778W        W38302   2.012  15.875  12.488 -0.0319 -0.1683  0.2183
20779W        W38303   7.224   9.516  15.715  0.1647 -0.0683  0.3763
20780W        W38304   9.724   8.094  15.401  0.3020 -0.0036 -0.0820
20781W        W38305   3.956  14.582   3.916  0.2450 -0.1084  0.0329
20782W        W38306   3.794   2.432  14.135 -0.0485 -0.2295  0.4669
20783W        W38307   7.811   8.739   3.389 -0.2300  0.0675  0.0535
20784W        W38308  13.098   1.166   4.989  0.3010 -0.1278 -0.2428
20785W        W38309  12.180   0.140   0.648  0.2451 -0.1647  0.2931
20786W        W38310   4.735   5.903   4.090  0.1450 -0.1087 -0.3612
20787W        W38311  14.716  10.252   0.562 -0.4703 -0.0997 -0.2838
20788W        W38312   6.319   1.697  15.762  0.0699  0.0624 -0.0665
20789W        W38313  14.202  14.405  15.127  0.0765 -0.1935  0.0602
20790W        W38314   2.550   9.429  15.735 -0.2558  0.2536 -0.1699
20791W        W38315   6.761   2.318   4.893 -0.2341  0.2921  0.0418
20792W        W38316   8.347  10.637   3.019  0.0865 -0.0858  0.3277
20793W        W38317  16.626   8.949  13.913  0.0128  0.1188  0.3802
20794W        W38318   5.572   8.692  17.058  0.0347 -0.1071 -0.0532
20795W        W38319  13.959   3.554  14.560  0.1642 -0.0564 -0.0475
20796W        W38320   1.552  13.158  13.849  0.0752 -0.0406 -0.0135
20797W        W38321   1.133   7.444  11.731 -0.1747 -0.0759  0.2276
20798W        W38322  10.900  15.830   5.074 -0.1673  0.0074  0.0151
20799W        W38323  13.529  11.608  12.508  0.1021  0.0029  0.1387
20800W        W38324   3.265   9.541   0.253 -0.1520  0.1862  0.0012
20801W        W38325  10.641   7.742  16.160 -0.1657  0.1552  0.0239
20802W        W38326  12.744   1.830  16.987 -0.3533 -0.0713  0.0610
20803W        W38327  15.743  13.545  14.789 -0.0556 -0.0656 -0.1820
20804W        W38328   3.554  15.150  17.400  0.0492  0.0961  0.2139
20805W        W38329  12.183   6.603  12.623 -0.1746 -0.3779  0.0255
20806W        W38330   6.852  15.982  15.815  0.3592  0.1821 -0.1013
20807W        W38331  10.307   8.612   6.391 -0.3096 -0.0867 -0.2895
20808W        W38332  12.244   4.099   0.211 -0.0883  0.0416 -0.0583
20809W        W38333   5.601   8.489   2.556 -0.1433 -0.0052 -0.2746
20810W        W38334  10.748   8.259   0.607 -0.2910  0.0270  0.2024
20811W        W38335   5.647  16.590  15.054 -0.0630  0.1479 -0.1134
20812W        W38336  16.902   4.564  12.743  0.2081 -0.0722  0.0359
20813W        W38337  11.431  13.943   0.956  0.0353 -0.2677  0.1415
20814W        W38338   7.165   8.978   0.529  0.2757  0.0254 -0.2929
20815W        W38339   0.790  10.667   0.259 -0.0021  0.1387  0.1035
20816W        W38340   3.854  13.230  16.465  0.1970  0.0601  0.1984
20817W        W38341  16.029  11.322  16.858 -0.1322  0.0961 -0.1180
20818W        W38342   0.550  13.050  14.876  0.3880  0.1875  0.0662
20819W        W38343   3.373   0.939   0.385  0.1744  0.1811 -0.0954
20820W        W38344  14.726  10.217  15.438  0.0374 -0.1130  0.0953
20821W        W38345  17.156   5.630   4.287 -0.1283  0.2396  0.1037
20822W        W38346  16.138  10.817  12.114 -0.1958  0.0521 -0.0309
20823W        W38347   7.943   0.845  14.420 -0.5143 -0.5523 -0.0080
20824W        W38348   7.902   4.108  13.645 -0.0520 -0.1932 -0.0349
20825W        W38349   1.937   6.083   0.132  0.0430 -0.1579  0.2276
20826W        W38350   7.681   5.455   5.290  0.3862 -0.0127 -0.0603
20827W        W38351  11.651  13.537   1.312 -0.1629 -0.1674 -0.0795
20828W        W38352  16.880  14.782  12.909 -0.1402  0.0530 -0.2324
20829W        W38353  11.120   4.244   1.537  0.1514 -0.0131 -0.0631
20830W        W38354  15.934  14.443  12.723  0.0777 -0.0361  0.1841
20831W        W38355   6.643   2.417   4.351 -0.1841 -0.0580  0.0843
20832W        W38356  10.817   8.141   2.201  0.1080  0.2657  0.0199
20833W        W38357   5.516  10.814  15.499  0.0901  0.3410  0.1851
20834W        W38358  16.823  14.853   5.199  0.0762 -0.1650 -0.4107
20835W        W38359  12.132   7.512   4.777 -0.3779  0.1871 -0.2741
20836W        W38360   6.178   9.608   0.293 -0.0013  0.1246  0.0195
20837W        W38361   4.776   9.634  16.080 -0.0000  0.1830 -0.2697
20838W        W38362   3.648   7.188  15.598 -0.0776 -0.1124  0.1346
20839W        W38363   4.300   5.017  14.820  0.0075 -0.0635  0.0816
20840W        W38364   2.983  13.250  16.317  0.2592 -0.0776  0.0911
20841W        W38365   7.240   5.655   1.991  0.0444  0.1582  0.0777
20842W        W38366   9.463  10.298  12.753 -0.0145  0.1045  0.0668
20843W        W38367  16.272   6.379  13.425 -0.0306 -0.2814  0.0828
20844W        W38368  10.214  11.991  14.205 -0.2704  0.1466  0.2390
20845W        W38369   6.018  12.692   5.525 -0.1437 -0.1882  0.1549
20846W        W38370   8.832   9.380  13.255 -0.0799 -0.1418 -0.1586
20847W        W38371   8.649  13.397   2.756  0.4349 -0.1145 -0.0116
20848W        W38372   6.067  13.575  16.340 -0.0327  0.1684  0.1895
20849W        W38373   0.117   0.836  12.697  0.2100 -0.1117 -0.0204
20850W        W38374   1.787   6.591  12.084  0.1338 -0.0315  0.0962
20851W        W38375   3.024   8.094   4.162  0.2290 -0.0176  0.0768
20852W        W38376  10.549   4.343  14.450  0.0381  0.0504  0.1364
20853W        W38377  11.757  15.754   5.207 -0.1031  0.2102 -0.1442
20854W        W38378   8.157   0.033   4.804  0.2713  0.1139 -0.1632
20855W        W38379   3.630  13.452  14.421 -0.1705  0.0865 -0.3328
20856W        W38380  14.223   5.311   2.532 -0.0314  0.2820  0.1962
20857W        W38381   9.185   3.846   1.878  0.0282 -0.1945  0.1165
20858W        W38382   2.261  10.405   1.749 -0.1316  0.0741  0.4391
20859W        W38383  12.151  10.033   4.724 -0.2162 -0.4776  0.2066
20860W        W38384   3.948   7.884   1.671 -0.0497  0.0346 -0.3148
20861W        W38385   2.967   0.087   5.620 -0.2607  0.3407  0.0671
20862W        W38386  11.473   2.887   5.359  0.2721  0.1313 -0.1843
20863W        W38387  11.214   8.752  17.522  0.0078  0.2934  0.0079
20864W        W38388  16.691   0.289   1.239  0.0890 -0.4382 -0.0553
20865W        W38389  10.485   9.695   1.201 -0.1893  0.0599 -0.4509
20866W        W38390  16.197   1.284  12.383 -0.3071 -0.2215  0.2573
20867W        W38391  11.313  16.798  14.514  0.1370  0.2879  0.1002
20868W        W38392   6.641  15.164  13.381  0.0447 -0.0049  0.0799
20869W        W38393  16.173  10.023  14.098  0.0948  0.0940  0.3564
20870W        W38394  16.607  14.844  15.527 -0.0709 -0.0267 -0.0362
20871W        W38395  16.570  11.101  15.537  0.0407  0.2557  0.2029
20872W        W38396   6.665   9.423   4.890  0.1884 -0.0680 -0.0275
20873W        W38397  10.494   5.165   0.439  0.1174  0.0171  0.3273
20874W        W38398  10.850   2.282   3.129 -0.0701 -0.4302 -0.2087
20875W        W38399   3.479  12.599  16.023 -0.2271  0.0316 -0.0571
20876W        W38400   3.111   3.036  14.162 -0.1511 -0.2081  0.0069
20877W        W38401   4.851   6.092   2.920 -0.1567  0.0330  0.0497
20878W        W38402   3.049  11.986  13.571  0.1575  0.0253 -0.0788
20879W        W38403   2.113   0.160  16.025 -0.1757 -0.0037 -0.0153
20880W        W38404   2.424  10.874  15.086  0.0266 -0.2820 -0.0661
20881W        W38405  12.975   5.283   1.612  0.1201 -0.1158  0.1027
20882W        W38406  16.004  10.494   4.492  0.1655  0.3196  0.1470
20883W        W38407  15.511  15.286  16.268 -0.1069  0.1838  0.3229
20884W        W38408  16.269   0.678  12.267 -0.1011 -0.3119  0.1328
20885W        W38409  16.461   8.637  12.200  0.0782  0.0464 -0.0284
20886W        W38410  13.954  10.803   1.437  0.1278 -0.2992  0.0259
20887W        W38411  10.381   8.746  14.235  0.3284  0.1828  0.0287
20888W        W38412   8.200   2.377   3.261  0.2954  0.2226 -0.0048
20889W        W38413   3.263   0.756  17.607 -0.1547  0.1008  0.0108
20890W        W38414  10.947   1.694   4.428  0.0106  0.3110 -0.2335
20891W        W38415  10.602   1.929  17.198 -0.0805 -0.3312 -0.1929
20892W        W38416  17.045   5.970  16.708 -0.1956 -0.0901 -0.2815
20893W        W38417  15.349   7.986   2.496  0.2179  0.0162 -0.1822
20894W        W38418   6.163  13.594   1.745 -0.0377  0.1997  0.0429
20895W        W38419  11.141   3.999  12.589  0.0009  0.1377  0.1373
20896W        W38420   0.717   1.822   1.455  0.1468 -0.1189 -0.0711
20897W        W38421  16.572   6.347   1.487  0.0835 -0.1071 -0.2128
20898W        W38422  17.048   8.934  15.920  0.1395  0.0195 -0.2130
20899W        W38423   9.709   5.311  16.809 -0.0282 -0.4420  0.3743
20900W        W38424   2.781   5.830   0.147 -0.0728 -0.0286  0.0592
20901W        W38425   2.887  11.394  15.152  0.1485 -0.0237  0.1592
20902W        W38426   5.234   5.507  16.975  0.0982 -0.2097 -0.1467
20903W        W38427  16.522  11.064  16.097  0.1578 -0.1097 -0.1249
20904W        W38428   9.647  16.574   5.011  0.3651 -0.1879  0.1327
20905W        W38429   2.773  15.901   3.186 -0.1753 -0.0758 -0.2946
20906W        W38430   9.785  14.873  17.391 -0.2179  0.1384  0.2150
20907W        W38431  16.295   3.790  16.471 -0.1256  0.3781 -0.2709
20908W        W38432  14.758  17.205   5.156 -0.0081 -0.0421  0.1607
20909W        W38433   4.774  15.559   3.822 -0.1526  0.0805 -0.1827
20910W        W38434   1.571   4.154  13.644 -0.2349 -0.0283 -0.1312
20911W        W38435   7.721  12.653   1.324 -0.1572  0.2303 -0.1153
20912W        W38436   1.813  10.612   1.540 -0.0166  0.1205  0.0122
20913W        W38437  17.126  15.145   3.946  0.0941  0.1336 -0.0146
20914W        W38438   2.463   8.342  15.625 -0.1890  0.1116  0.1344
20915W        W38439   9.596  14.730   1.197 -0.2343  0.0310 -0.4396
20916W        W38440   7.001   8.200   3.283  0.0796 -0.0107  0.0536
20917W        W38441   8.913   2.900  17.533 -0.2484 -0.0310 -0.1645
20918W        W38442  12.719   2.783   3.531  0.0371  0.0077  0.0166
20919W        W38443  15.124   5.477  16.197  0.3184  0.0658  0.2538
20920W        W38444   7.345  15.736  14.469  0.1580 -0.0019  0.1155
20921W        W38445   5.963   1.787   0.837 -0.3663 -0.0659  0.2117
20922W        W38446   6.245   8.670  12.547  0.1632  0.0074  0.0053
20923W        W38447   9.030  14.510  16.529 -0.0444  0.0932  0.0817
20924W        W38448  14.523  17.064   1.835 -0.3262 -0.4453 -0.1187
20925W        W38449   7.340  13.411  14.213  0.1050 -0.0091  0.0629
20926W        W38450  14.737   4.634  15.900 -0.0329  0.1623 -0.1337
20927W        W38451   2.393   6.512  12.837  0.0202  0.1189  0.0265
20928W        W38452  14.385   0.230   2.987 -0.2415  0.0491 -0.3106
20929W        W38453   0.932   8.631  17.643 -0.2237  0.0669  0.1394
20930W        W38454  13.226   7.920   4.076 -0.0018  0.0018 -0.0889
20931W        W38455   6.387  14.322   0.657  0.1164 -0.3013 -0.2132
20932W        W38456  14.844   1.715   3.621 -0.1970  0.0309  0.2264
20933W        W38457  12.641   5.219   3.165 -0.1434  0.0447  0.0755
20934W        W38458  11.214   6.868  12.289 -0.0908 -0.0692  0.0558
20935W        W38459   6.993   1.702   2.489  0.3194  0.0042 -0.0101
20936W        W38460  16.014  13.441  12.609 -0.0492  0.4131 -0.2377
20937W        W38461  13.714  14.032   2.994 -0.1425  0.0066 -0.0517
20938W        W38462   0.952   8.190   6.303 -0.0258  0.5840 -0.2896
20939W        W38463  10.099  11.030   6.557 -0.1020 -0.1350  0.0531
20940W        W38464  12.940  12.205   0.990 -0.0625  0.0412 -0.1339
20941W        W38465   8.091   5.617   0.569 -0.2519  0.2192  0.2383
20942W        W38466   1.965   0.913  13.977 -0.1853 -0.0066  0.2474
20943W        W38467   8.753   2.608  16.057 -0.2238 -0.0504 -0.0156
20944W        W38468   6.784   7.050   0.785  0.0281  0.0872 -0.0156
20945W        W38469   8.258   8.370  17.086 -0.0507 -0.1833 -0.0298
20946W        W38470   1.934   5.465   2.884 -0.1876  0.0396  0.0319
20947W        W38471  15.901   9.798   2.355 -0.0141  0.0056 -0.2549
20948W        W38472  11.283   4.405   1.984 -0.0901 -0.2823  0.0393
20949W        W38473   4.499  14.591  16.538  0.3497 -0.1171  0.1145
20950W        W38474  16.102  12.000  14.892 -0.2533 -0.0910  0.2103
20951W        W38475  11.029  10.401  14.020  0.0201  0.2819 -0.0985
20952W        W38476  11.980   2.294   0.674  0.0544  0.1272 -0.1247
20953W        W38477   9.204  12.183   2.825 -0.1940  0.2263 -0.3123
20954W        W38478   9.948   3.116  16.646  0.1248  0.0141 -0.2118
20955W        W38479   4.023  11.485  15.607  0.2112  0.2647  0.0391
20956W        W38480  12.276  12.824   3.211  0.0987  0.0294 -0.0460
20957W        W38481   7.598  10.257  12.730  0.3120  0.0357  0.2484
20958W        W38482   7.388  10.952   4.059 -0.1560 -0.0397  0.0746
20959W        W38483   7.494  11.939  13.562 -0.0031  0.1375 -0.1831
20960W        W38484   1.375   9.070   2.445  0.0453  0.0411 -0.1868
20961W        W38485  13.019   3.582  15.086 -0.1987 -0.0982 -0.1407
20962W        W38486  15.205  14.436  17.448 -0.3657  0.0705  0.0724
20963W        W38487   8.405   8.211  17.523  0.1072  0.2080  0.0266
20964W        W38488   7.992   6.387  15.322  0.1950 -0.0190  0.0423
20965W        W38489  10.740   6.119   4.306 -0.1949 -0.0854  0.1108
20966W        W38490  14.218   7.206  17.022 -0.0837 -0.0644 -0.0036
20967W        W38491   7.813   1.553  16.679 -0.0272 -0.0278 -0.1164
20968W        W38492   6.907   8.386  13.925  0.1818  0.2637 -0.0930
20969W        W38493   7.679  12.082  16.638 -0.1056 -0.1552 -0.2009
20970W        W38494  11.434  16.851  13.983 -0.1606  0.1240 -0.0156
20971W        W38495   8.699  12.270   5.790  0.5140 -0.1389 -0.2458
20972W        W38496  11.640   3.634  14.052  0.0222 -0.0590 -0.1105
20973W        W38497  14.383  13.442   2.550  0.0720  0.0373  0.0389
20974W        W38498  10.002  11.105   3.927  0.0510  0.3468  0.0533
20975W        W38499  12.899   7.913   0.808 -0.2706 -0.0454  0.2119
20976W        W38500  12.612  12.507  17.604 -0.2022 -0.0751 -0.2425
20977W        W38501  14.862   2.932   0.115 -0.1192 -0.1132  0.0268
20978W        W38502  14.918   1.549  12.966  0.2858 -0.3296  0.2591
20979W        W38503  14.453  13.917   2.447 -0.1250 -0.0849  0.0463
20980W        W38504   8.768  16.923   2.895 -0.1827  0.0767 -0.0848
20981W        W38505   2.888  12.799   0.578  0.0531 -0.0135  0.1841
20982W        W38506   2.513  16.617   1.455  0.0722  0.3612  0.0303
20983W        W38507   1.648   7.453   3.775 -0.0144  0.2558  0.2465
20984W        W38508   0.496  16.967   4.370 -0.1591 -0.0526 -0.0660
20985W        W38509  16.916   7.967  17.348 -0.3928 -0.0686 -0.1101
20986W        W38510  10.965   6.633   0.552 -0.1098 -0.1762 -0.0813
20987W        W38511  15.213  14.561  15.392  0.0538 -0.2648 -0.0623
20988W        W38512   0.822  14.728   3.060 -0.2605 -0.0318  0.0529
20989W        W38513   1.629   2.514  12.762  0.4309  0.0823  0.2118
20990W        W38514  10.918  16.360   5.323  0.1073 -0.0301 -0.0786
20991W        W38515  12.116   4.594   0.233  0.1405 -0.1082  0.1291
20992W        W38516   7.085   8.959   2.859 -0.2832 -0.2563  0.0508
20993W        W38517  17.210   8.939   3.288  0.0808  0.2921 -0.1386
20994W        W38518   0.539   1.770  14.370  0.1688 -0.0155  0.0790
20995W        W38519  15.956   1.777  16.682  0.0836  0.0199  0.1146
20996W        W38520   1.436   8.247   4.647  0.1956  0.2635 -0.0409
20997W        W38521   1.849  11.435   1.288 -0.2279  0.0531  0.1680
20998W        W38522  12.592  11.732   5.310 -0.0835 -0.1398  0.0355
20999W        W38523   2.352   7.060  14.925 -0.0240 -0.0553 -0.0953
21000W        W38524   6.636   2.084  13.890  0.3976 -0.1304 -0.0928
21001W        W38525   5.337   2.373  13.522  0.0804 -0.2558  0.2093
21002W        W38526  12.344  10.254   1.453  0.0976 -0.0778 -0.1364
21003W        W38527  12.652  10.170   4.352 -0.0369  0.0040  0.0200
21004W        W38528   6.572   7.293   5.639  0.0675 -0.0295  0.2831
21005W        W38529  12.386   6.096  13.194 -0.3694  0.0201 -0.1099
21006W        W38530  14.357   4.299   4.585  0.1525  0.1281  0.2355
21007W        W38531   0.957   4.910   0.205  0.1778  0.3716  0.0863
21008W        W38532  16.558   7.756  13.392  0.0008 -0.0335  0.0764
21009W        W38533   0.646   6.997  12.722 -0.0531 -0.1969 -0.0590
21010W        W38534   2.504   6.611  15.684 -0.3461 -0.0569  0.0230
21011W        W38535  12.947  10.868   5.022 -0.0401 -0.0805 -0.0819
21012W        W38536  10.787   8.517  17.389 -0.0106 -0.0103  0.1408
21013W        W38537   8.806  14.050  14.279 -0.0910 -0.1529  0.0000
21014W        W38538  14.560  17.244  14.382  0.0971 -0.0608 -0.1307
21015W        W38539  12.787   1.638   3.356 -0.1634 -0.2328 -0.0782
21016W        W38540  10.882   3.646   3.850 -0.1860  0.2694 -0.0720
21017W        W38541  11.205   4.434   0.020 -0.1457  0.1079 -0.0646
21018W        W38542  16.882  13.863  16.959  0.2474  0.1852  0.2731
21019W        W38543  12.709   4.402  17.155 -0.1174 -0.1958  0.1453
21020W        W38544   4.177   9.495   4.281 -0.1123 -0.0728  0.2773
21021W        W38545   1.267   2.609  15.421  0.1296  0.1016  0.1155
21022W        W38546   1.077   9.306  13.111 -0.0126  0.3280  0.1106
21023W        W38547  15.170   7.678  15.420 -0.0560 -0.2820  0.2245
21024W        W38548   4.840   9.583  13.116 -0.2076 -0.0736  0.2360
21025W        W38549   2.742   1.232  17.127 -0.0652 -0.1333  0.1938
21026W        W38550  17.224   5.489  11.869 -0.3772 -0.2775  0.1437
21027W        W38551   5.522   5.483   2.980  0.0252  0.0455 -0.0634
21028W        W38552   1.503   9.351  15.350  0.2822  0.1103 -0.1400
21029W        W38553  16.312   8.544  13.030 -0.0399  0.0489 -0.0540
21030W        W38554  10.600   2.282  13.474 -0.0744  0.0311 -0.2256
21031W        W38555   4.741  10.916   2.174 -0.0925 -0.4137 -0.2614
21032W        W38556  16.060   4.523  15.563  0.0703 -0.1019  0.1401
21033W        W38557   4.359  16.335   1.582  0.0404  0.1027 -0.1704
21034W        W38558   5.301  13.065  14.256 -0.2477  0.0365 -0.1042
21035W        W38559   7.956   3.386  16.212 -0.1935 -0.0875 -0.0560
21036W        W38560  15.728  12.190  15.290 -0.1337  0.0838  0.1251
21037W        W38561   7.762   1.599   2.883  0.1846 -0.1966 -0.1397
21038W        W38562  13.904   4.364   3.012  0.0817 -0.2501  0.2185
21039W        W38563   1.375  16.603   4.780  0.0576  0.0398  0.0633
21040W        W38564   9.694   1.367   5.482  0.2677 -0.0807 -0.1874
21041W        W38565   5.254   1.095  15.132 -0.0444 -0.2079  0.1987
21042W        W38566   0.488  10.245  15.037 -0.0163  0.1608  0.1443
21043W        W38567   4.261  12.729   3.346  0.0764 -0.1516  0.1518
21044W        W38568   0.436  13.548  17.552 -0.1614 -0.1203  0.2071
21045W        W38569   3.513  13.700  17.217 -0.3054  0.1707 -0.1994
21046W        W38570   1.779   0.900   2.291 -0.4115  0.0668  0.1425
21047W        W38571  12.461  13.955   1.401 -0.1237 -0.0550 -0.0048
21048W        W38572  11.165  14.371   1.503  0.0636  0.0344  0.2650
21049W        W38573  10.473   2.140  15.147  0.4317  0.1151 -0.0006
21050W        W38574   9.248  10.166  12.325 -0.1782 -0.1137  0.2343
21051W        W38575   3.375  11.988   2.287  0.1573 -0.1266 -0.1239
21052W        W38576   8.028   1.793   3.322  0.0596 -0.0906  0.3038
21053W        W38577   6.135   4.708  12.280  0.0214  0.1768 -0.0308
21054W        W38578   5.821  16.009  14.913 -0.1089 -0.0241 -0.1602
21055W        W38579  14.251   9.612  11.644 -0.0255  0.2435 -0.1538
21056W        W38580  16.183  16.114   0.220  0.0979 -0.1605 -0.0198
21057W        W38581   8.937   8.156  12.537  0.0759  0.1094  0.3143
21058W        W38582   9.185   7.543   5.182 -0.0257  0.0381 -0.2349
21059W        W38583  12.798   5.110   2.694  0.0275  0.0558  0.1914
21060W        W38584   9.564  17.140  12.919 -0.0452  0.1231 -0.2538
21061W        W38585  17.173  11.546  14.359 -0.0425  0.3822  0.1083
21062W        W38586  14.515   6.672  14.827 -0.1034 -0.3011 -0.1768
21063W        W38587   7.945   8.330  14.547  0.0254 -0.1764 -0.0877
21064W        W38588   1.386  10.922   4.478 -0.0684  0.0251 -0.1814
21065W        W38589   9.244   5.607  14.417  0.1006  0.2307 -0.1465
21066W        W38590   7.773   2.323   3.580  0.1171  0.1846 -0.3095
21067W        W38591  15.924  14.964   2.605  0.0080 -0.3722 -0.1746
21068W        W38592   5.168   7.051  15.712 -0.1745 -0.1949 -0.0474
21069W        W38593  11.868   8.144   5.900  0.0529 -0.0298  0.0793
21070W        W38594  14.931  16.193  15.819 -0.1027 -0.0481 -0.5066
21071W        W38595   3.566   9.316  16.463 -0.0454  0.0452 -0.0974
21072W        W38596   0.950  14.150   4.637 -0.1425  0.1677 -0.2653
21073W        W38597   9.762  12.549   2.545  0.0940  0.0523 -0.1290
21074W        W38598  12.555   1.957  17.446  0.1246 -0.0095  0.1828
21075W        W38599  10.464   6.136  12.490  0.0119 -0.0689 -0.1158
21076W        W38600   3.412  11.973  15.270  0.0506 -0.0724  0.3260
21077W        W38601   9.227   8.366   3.056  0.0172 -0.1162  0.0404
21078W        W38602   0.887   6.373   2.981  0.0624 -0.1609 -0.1321
21079W        W38603  14.289   1.162   1.547 -0.0310  0.1099 -0.4981
21080W        W38604  10.362   1.177   1.345  0.2093 -0.0605 -0.0437
21081W        W38605  15.410   7.247   2.464  0.1499 -0.0334 -0.1178
21082W        W38606  10.517   4.183   3.010 -0.0516  0.1522  0.0857
21083W        W38607   5.752  13.501   2.971 -0.0254 -0.0906  0.0159
21084W        W38608  12.550   4.226  14.563 -0.1459  0.0662  0.2226
21085W        W38609   6.731   9.969  11.889  0.1368  0.0947  0.0024
21086W        W38610   2.893   2.753   0.807 -0.2293 -0.1321 -0.2410
21087W        W38611  15.795   3.460   2.383  0.1686  0.1336  0.0486
21088W        W38612  10.883   7.092  13.722 -0.0965  0.1866 -0.0173
21089W        W38613   2.000  16.618   2.057 -0.1867 -0.0022  0.2119
21090W        W38614  15.218  16.788   2.389  0.0740  0.5000 -0.1760
21091W        W38615  13.960  11.485   2.683  0.0908  0.1561 -0.1118
21092W        W38616   8.081   6.602  16.958  0.0637  0.1327 -0.0060
21093W        W38617   5.003   3.665   1.908 -0.0251 -0.2887 -0.2210
21094W        W38618  15.642   4.279   3.440 -0.0502  0.1547  0.1349
21095W        W38619  14.352   0.859   6.388 -0.1933 -0.5276  0.1822
21096W        W38620   3.761   4.973  16.099 -0.1845 -0.2824  0.2155
21097W        W38621  13.241   6.472   0.190  0.2717  0.2250 -0.3282
21098W        W38622   7.466   6.512  12.222  0.2552  0.2021 -0.2674
21099W        W38623  15.493  13.404   3.249 -0.2877 -0.0496  0.0367
21100W        W38624  15.831   7.259  12.459  0.2508 -0.2867  0.1986
21101W        W38625   2.442  12.498  13.812 -0.1730  0.1165  0.1974
21102W        W38626   5.769  11.089  13.643 -0.1769 -0.0918  0.1434
21103W        W38627   1.735   1.513  11.254  0.0396  0.3522  0.0429
21104W        W38628   8.961  14.259   2.819  0.2143 -0.0254  0.1448
21105W        W38629  13.432   3.104  15.866  0.1801 -0.1213 -0.0704
21106W        W38630   2.756   7.364   6.159 -0.1518 -0.2273 -0.3263
21107W        W38631   1.533  15.767   2.008  0.4497  0.0114 -0.1586
21108W        W38632   6.929  13.152   1.895  0.2440 -0.0569  0.0610
21109W        W38633  16.974   7.565   1.016  0.1551  0.0461  0.0624
21110W        W38634   0.490   4.783   0.415  0.0758  0.2964  0.2297
21111W        W38635  12.293  11.072   4.011 -0.0719  0.1605 -0.0835
21112W        W38636   9.977   5.492   4.853  0.1165  0.0191 -0.1422
21113W        W38637   8.887   1.368   2.495  0.0750 -0.0993  0.0339
21114W        W38638  15.150  16.417  16.244 -0.2489 -0.1806  0.2497
21115W        W38639   2.007   8.475   5.155 -0.0172 -0.1252  0.0778
21116W        W38640   8.568   6.186   3.996  0.2656 -0.1463  0.2533
21117W        W38641   2.591   9.143   4.699 -0.3570 -0.0376  0.2485
21118W        W38642   9.525   9.671  13.358 -0.2230  0.2500  0.1200
21119W        W38643   5.592   4.328   4.029 -0.0104 -0.1280  0.1982
21120W        W38644   3.393   9.964  14.090 -0.3266  0.1458  0.0699
21121W        W38645   6.768  16.484  16.102 -0.1986 -0.0239  0.2493
21122W        W38646  13.509   7.625   3.803  0.1648 -0.4765  0.1234
21123W        W38647  10.208   7.815   0.979  0.0713  0.2258  0.0884
21124W        W38648   1.871  16.415  14.566  0.0569  0.0508 -0.4182
21125W        W38649   3.259   0.986  13.936 -0.0050  0.0656 -0.0971
21126W        W38650   4.044  11.527  16.854 -0.2882  0.0269  0.3203
21127W        W38651  14.600   6.131   0.209 -0.1930  0.2216 -0.2313
21128W        W38652   2.353  16.286   4.494  0.0337  0.0757 -0.1893
21129W        W38653   9.722  10.354  13.656 -0.2973  0.0811 -0.0295
21130W        W38654  11.247   1.449   5.482 -0.0948  0.1874  0.2082
21131W        W38655  14.339   2.521  12.821  0.1222  0.3321  0.1629
21132W        W38656   0.163  13.557  12.873 -0.2053 -0.0896  0.0279
21133W        W38657   7.116   2.404   2.573  0.2662 -0.1789 -0.2384
21134W        W38658  14.669   8.826  13.790 -0.1821 -0.0814 -0.0213
21135W        W38659   8.786   4.154  14.317  0.1469 -0.0510 -0.3368
21136W        W38660  14.229  16.640   1.041  0.0357 -0.1489  0.2274
21137W        W38661   5.629   8.811   0.969 -0.0986 -0.3684 -0.1510
21138W        W38662   8.800  12.710   4.344  0.2358  0.1357  0.0971
21139W        W38663   9.174   4.488  14.654  0.0302  0.0417 -0.1610
21140W        W38664   0.290  12.350   4.688 -0.1821  0.0109 -0.2486
21141W        W38665  15.977   1.526   4.981 -0.1550  0.0233  0.2572
21142W        W38666   5.447   5.310   1.989 -0.0669 -0.2492 -0.1305
21143W        W38667   8.773  16.015   2.782  0.2060 -0.2126  0.3312
21144W        W38668  13.959   1.216  14.092 -0.0963 -0.1826  0.0394
21145W        W38669  14.395  16.800   2.202 -0.0969  0.1108 -0.0412
21146W        W38670   9.486   9.451   3.001 -0.1861  0.0841 -0.2875
21147W        W38671  15.676   6.282  17.298  0.0000 -0.2968  0.1084
21148W        W38672  14.508   5.815   3.475 -0.1203 -0.0334  0.1878
21149W        W38673   8.789   4.812  15.130  0.0597  0.0907  0.3389
21150W        W38674   7.856   9.176  13.655  0.2014  0.0448 -0.0216
21151W        W38675  16.163  14.329  17.210  0.0071  0.1023  0.0331
21152W        W38676  15.868  10.692  13.453 -0.0855 -0.0589 -0.2194
21153W        W38677  12.312   9.552   5.464 -0.3068  0.1322  0.1322
21154W        W38678   8.473   8.628   0.232  0.1995 -0.0903  0.2336
21155W        W38679  13.336  16.205   3.546  0.2143 -0.1347 -0.0861
21156W        W38680  15.921  15.717   4.329 -0.0208  0.0088  0.1134
21157W        W38681   7.194  11.973  17.512  0.1672  0.0270 -0.2013
21158W        W38682  14.119  10.181  17.298 -0.2248  0.0106  0.1482
21159W        W38683  10.159   5.015   3.132  0.1482  0.2315  0.0544
21160W        W38684   9.529   0.244   0.035  0.2120  0.2929 -0.4710
21161W        W38685   2.023   0.407   5.497  0.1746  0.1691  0.1917
21162W        W38686  13.053  10.350  14.240 -0.1935 -0.0469  0.4289
21163W        W38687   2.796   1.648   0.218  0.0057  0.3330 -0.1682
21164W        W38688   3.603  13.525   4.374  0.1446  0.4863 -0.0303
21165W        W38689  16.007   1.725  15.729  0.0523 -0.1743 -0.3545
21166W        W38690  16.797   2.217  15.198 -0.0951  0.2767  0.1671
21167W        W38691   0.574   2.743  12.825  0.1779 -0.1520 -0.0381
21168W        W38692   1.357  14.526   1.050  0.0233  0.0332 -0.1761
21169W        W38693   7.444  16.840   3.430 -0.3006 -0.1357 -0.0554
21170W        W38694   2.978   1.959  12.766 -0.0854 -0.0824  0.0017
21171W        W38695  14.986   5.073  16.455 -0.1227 -0.0410  0.1876
21172W        W38696   5.312  14.376   5.040 -0.0183  0.0807  0.0300
21173W        W38697  15.946  12.721  17.536 -0.3678 -0.1138  0.3939
21174W        W38698  15.421   4.336   3.948  0.2733  0.1760 -0.0519
21175W        W38699  14.168   6.444   1.091 -0.1863  0.2488  0.0837
21176W        W38700  12.500  16.410  12.527  0.0922 -0.0564 -0.0157
21177W        W38701  13.214   8.312  15.504 -0.3080 -0.2096  0.1979
21178W        W38702  13.124   5.621  16.400  0.0334 -0.3261  0.1347
21179W        W38703   9.924   3.669   2.630  0.0049 -0.0310  0.1133
21180W        W38704  10.821   5.065   0.806  0.3092 -0.2949 -0.0279
21181W        W38705  13.407   0.229   3.338  0.2420  0.0812  0.0050
21182W        W38706  10.516   5.106   2.740 -0.2919 -0.1700  0.5443
21183W        W38707  10.120   1.856   2.380  0.0934  0.2192 -0.3113
21184W        W38708  15.816  10.208   2.754  0.0040  0.4516 -0.1750
21185W        W38709   5.548  15.998   5.962  0.0239  0.2301 -0.2012
21186W        W38710  11.215  11.015   2.673 -0.2523  0.1412  0.3518
21187W        W38711   8.365   0.368  13.631  0.0397 -0.1669 -0.2512
21188W        W38712  10.047   1.639   5.011 -0.0956 -0.0037 -0.0899
21189W        W38713   3.314   1.453   1.523 -0.0735 -0.3244 -0.0584
21190W        W38714  10.338   4.368  16.880 -0.2095 -0.1257 -0.2792
21191W        W38715   9.446   4.037   4.153 -0.0470 -0.1033  0.1559
21192W        W38716   2.682   4.003   3.792  0.0762 -0.0983  0.0564
21193W        W38717   1.058  10.847   3.425  0.1245 -0.0951 -0.1777
21194W        W38718  15.594   7.754  15.650 -0.2176 -0.0208 -0.2192
21195W        W38719  16.949  14.065   4.793  0.1363  0.2662 -0.2872
21196W        W38720  10.944  16.906  14.206 -0.0434  0.1242 -0.1719
21197W        W38721   1.405   9.008  12.334 -0.0235 -0.0276  0.2339
21198W        W38722   2.127   1.252   2.269 -0.2453 -0.0136 -0.0471
21199W        W38723   9.022  11.065  14.615  0.1719  0.1050 -0.0586
21200W        W38724  15.108  12.473  17.077 -0.0744  0.0839 -0.2941
21201W        W38725  16.183   4.158  10.838 -0.3016 -0.3424  0.1574
21202W        W38726  11.394  13.108  12.511  0.2722  0.1119  0.0500
21203W        W38727   8.388   8.736  15.707 -0.0871  0.0365  0.1043
21204W        W38728   7.136   4.160   0.716  0.1475 -0.2780  0.3059
21205W        W38729  10.220  16.907   4.538 -0.0775  0.3803  0.0072
21206W        W38730  15.582  13.036  14.344 -0.1401  0.0007 -0.1026
21207W        W38731   0.170   5.459   3.660  0.3044  0.0422 -0.1407
21208W        W38732   8.277   4.448  17.605  0.1096 -0.0706 -0.2966
21209W        W38733  11.663   2.646   0.727  0.2774 -0.1797  0.1798
21210W        W38734  11.565   6.179   5.316  0.4362 -0.1668  0.0134
21211W        W38735   3.079  11.210  16.596 -0.2133 -0.2014 -0.2597
21212W        W38736   7.922   6.927  16.104 -0.1151 -0.0022 -0.0757
21213W        W38737   5.341   8.543   5.082 -0.1496 -0.1309 -0.0643
21214W        W38738  17.058  11.260   3.805 -0.1705  0.0774 -0.0811
21215W        W38739  11.024   5.738   2.979 -0.0370  0.1636 -0.1033
21216W        W38740   9.144   4.841   4.522  0.1495  0.0513  0.2477
21217W        W38741   3.195   6.285  16.844  0.1908 -0.2930  0.0022
21218W        W38742  16.490   9.983   1.716 -0.2091 -0.1796  0.1842
21219W        W38743   3.507  13.844   3.321 -0.5290 -0.2471  0.3250
21220W        W38744   0.632   6.719   6.274 -0.0157  0.1253 -0.0433
21221W        W38745  15.514   8.534  14.096 -0.0423  0.1294  0.1201
21222W        W38746  15.152   4.807  17.176  0.0838  0.0532  0.0179
21223W        W38747  12.120  12.652  14.201  0.4056 -0.2330 -0.4612
21224W        W38748  13.900  12.042   0.844  0.0966  0.4157  0.0732
21225W        W38749   8.426  15.206   3.412 -0.0952 -0.1324 -0.1277
21226W        W38750   2.215   5.361  16.678 -0.1264 -0.1652  0.0336
21227W        W38751   8.621   3.364   1.819 -0.0501 -0.1032 -0.0614
21228W        W38752   9.290  14.101  14.716  0.0307  0.1423  0.0521
21229W        W38753  15.430   4.920  13.838 -0.1642  0.4164  0.2013
21230W        W38754   8.802  15.213  13.018  0.1116  0.0746  0.1661
21231W        W38755   9.204  15.176   0.297 -0.0760 -0.0823  0.0505
21232W        W38756   9.958  11.433  17.151  0.0050 -0.3209 -0.1605
21233W        W38757   3.865  10.380  12.712 -0.1580 -0.2478 -0.2887
21234W        W38758   6.565   3.823  13.397 -0.1724 -0.1618  0.2155
21235W        W38759   1.702   3.299   0.737  0.2449  0.1321  0.0814
21236W        W38760  14.792   9.369  17.406 -0.0905 -0.1951 -0.1861
21237W        W38761   8.269  16.091  16.985 -0.2606  0.0953  0.2387
21238W        W38762  16.008   5.035  16.215 -0.3404 -0.0118 -0.3314
21239W        W38763   9.887   4.468   2.282 -0.1813 -0.0916 -0.0130
21240W        W38764  14.440   2.819   3.741 -0.3037 -0.3918  0.2849
21241W        W38765  16.995  11.561  12.588 -0.0964 -0.0602  0.0085
21242W        W38766   1.702   0.025  13.150  0.0681 -0.0173  0.1940
21243W        W38767  16.717  16.299  17.106  0.0970  0.0685 -0.1114
21244W        W38768   8.561  15.577   2.998  0.1066 -0.1677  0.0676
21245W        W38769  13.781  16.756  17.229 -0.0018  0.0204  0.2129
21246W        W38770  13.539  13.070   3.442  0.0959  0.1356 -0.1893
21247W        W38771  10.107   4.615   4.461  0.0121  0.2409 -0.1801
21248W        W38772   1.736  13.904  16.940  0.0003  0.1607  0.1990
21249W        W38773   2.864   7.514  15.053 -0.1534  0.2883  0.0852
21250W        W38774   6.670  11.929  16.424 -0.0817 -0.0679 -0.2208
21251W        W38775   4.543  11.906   5.125  0.3240  0.0274 -0.1029
21252W        W38776  11.404   6.773  16.998  0.1771  0.0110  0.2111
21253W        W38777  16.959   8.659  12.424 -0.1694 -0.1079  0.0603
21254W        W38778  16.174   6.657  16.472 -0.1067 -0.1757  0.0134
21255W        W38779  14.897  13.400  17.026  0.0277  0.2387  0.3099
21256W        W38780  16.444  11.050   2.980  0.1914  0.2025  0.1558
21257W        W38781   6.758  15.558   3.686 -0.1143  0.0843 -0.1422
21258W        W38782   3.740  11.422  16.055 -0.1312  0.2610 -0.0813
21259W        W38783  11.693   3.452   5.162  0.1559  0.1393  0.1632
21260W        W38784  12.781  13.654  15.370  0.3634 -0.1722  0.1271
21261W        W38785  14.906  12.517  14.851  0.2626 -0.1404  0.0351
21262W        W38786  16.407  14.656   5.038  0.1528  0.1157 -0.1949
21263W        W38787   7.017   3.152  13.130  0.2480 -0.1456  0.1126
21264W        W38788   4.242   1.761  12.804 -0.0263  0.0842 -0.2443
21265W        W38789   1.704   9.841  12.309  0.2423 -0.1373  0.0724
21266W        W38790   2.980  15.556  15.027 -0.2776  0.4276  0.0641
21267W        W38791  16.341   2.930  14.452 -0.1635  0.2640  0.1532
21268W        W38792  13.175  17.015   4.098  0.2114 -0.0928  0.0703
21269W        W38793  15.512   9.747   3.036  0.1297  0.1839  0.1075
21270W        W38794   5.727   0.599   4.186  0.1196  0.0741  0.1483
21271W        W38795   4.949   4.337  14.721  0.1087  0.0881 -0.1675
21272W        W38796   8.031  11.501   3.387 -0.3432 -0.0862  0.1024
21273W        W38797   5.371  12.476  17.029 -0.1989  0.0305  0.2682
21274W        W38798   3.525   2.791  15.655 -0.0519 -0.0089 -0.1612
21275W        W38799  14.937   7.081  11.999  0.4360 -0.0460 -0.2376
21276W        W38800  11.212   9.017  16.735 -0.3274  0.0525  0.1183
21277W        W38801   4.573   7.806  13.598  0.2172  0.0781  0.0441
21278W        W38802  13.269  13.928  12.455  0.0443  0.0485 -0.3387
21279W        W38803  13.352  11.247  16.518  0.0892 -0.0905 -0.0242
21280W        W38804   4.601  16.398   0.169  0.0918  0.1760  0.0270
21281W        W38805  12.952  15.163  15.515 -0.3166  0.5433 -0.2573
21282W        W38806   7.924   7.302   0.013  0.1254 -0.0619  0.1020
21283W        W38807   8.073  12.692  17.276 -0.0226 -0.2420  0.3156
21284W        W38808   4.334   1.060   5.332  0.0284  0.0700  0.1776
21285W        W38809  10.932   7.341   3.624  0.3449  0.0476 -0.3655
21286W        W38810   4.325   5.776   1.839  0.0641  0.1725  0.0941
21287W        W38811  11.987   3.996   1.836 -0.5799  0.2530 -0.1453
21288W        W38812   0.674  13.364   3.346 -0.2310  0.1440 -0.1023
21289W        W38813   1.270   5.724   4.644  0.3080  0.2890 -0.0492
21290W        W38814   6.224   2.830   2.563  0.3818  0.1620  0.0169
21291W        W38815  10.118  16.082   6.832 -0.0072 -0.2399  0.0251
21292W        W38816   6.072  13.559  14.677 -0.1247 -0.0698 -0.1201
21293W        W38817   3.639  11.814   3.910  0.0254  0.1427 -0.1893
21294W        W38818   4.658   7.121  16.718  0.0519  0.2326  0.2194
21295W        W38819   3.439  15.736  15.949  0.0172 -0.0047 -0.1707
21296W        W38820   4.860   0.365  14.510 -0.0185 -0.0243 -0.1694
21297W        W38821  15.408   9.830   2.558 -0.3067 -0.1192 -0.2486
21298W        W38822  11.800  11.202  14.378 -0.0207  0.0643 -0.2553
21299W        W38823   9.520  15.018  15.127  0.0918 -0.1692  0.0429
21300W        W38824   3.689   0.325   2.694  0.0341  0.1271  0.0191
21301W        W38825   4.891  12.861   1.285  0.0849 -0.2439  0.0810
21302W        W38826   5.614   9.087  14.112 -0.1917  0.0114 -0.1349
21303W        W38827  15.625   2.642   0.667  0.3023  0.2322  0.1446
21304W        W38828   3.453  13.086  12.546 -0.1258  0.1599  0.0734
21305W        W38829   6.176   9.733   3.891 -0.2108  0.1208  0.0381
21306W        W38830  15.802   9.368  15.348 -0.0102  0.3500  0.1143
21307W        W38831   7.504  13.355   3.830  0.3367 -0.2845  0.1471
21308W        W38832   3.092  10.479  15.036 -0.2670  0.0891 -0.0743
21309W        W38833  14.793  11.434   3.252  0.0690  0.0598  0.4834
21310W        W38834   5.721   3.017  12.677  0.1117  0.1593  0.2030
21311W        W38835  15.045   8.703  13.445 -0.2223 -0.1066  0.2600
21312W        W38836  14.482   0.847  17.155 -0.1177  0.2143 -0.0569
21313W        W38837   7.613   0.902   1.513  0.2497  0.0380  0.1367
21314W        W38838  12.745  14.698  16.178 -0.3283  0.2906  0.0845
21315W        W38839  13.192  16.096  15.452 -0.1162  0.2435  0.2190
21316W        W38840   5.364  13.859   0.306  0.0016 -0.2569  0.0181
21317W        W38841   6.728   1.100   4.125  0.1077 -0.0713 -0.0037
21318W        W38842   7.930   8.226  12.383  0.1081  0.0316 -0.0752
21319W        W38843  12.705   9.354  13.200 -0.0542 -0.0759 -0.1348
21320W        W38844  14.441  10.222   1.284  0.0856 -0.1414 -0.2844
21321W        W38845   1.468   1.237   4.004 -0.3344 -0.2005  0.4069
21322W        W38846   9.197  16.806  14.032 -0.1920  0.0146 -0.1822
21323W        W38847   5.634  13.112  16.430  0.0384  0.0493  0.2710
21324W        W38848  11.278   1.163  13.012  0.1734  0.5134  0.0026
21325W        W38849  14.192  12.638  15.149  0.3646  0.0522  0.0609
21326W        W38850   8.331  15.188  14.345 -0.0756  0.1684 -0.2081
21327W        W38851   0.485  15.151   4.436 -0.0015 -0.0023  0.1629
21328W        W38852  16.619   1.476  12.805  0.1558  0.1283  0.1552
21329W        W38853   0.566  13.898  14.875  0.0152 -0.2105  0.1061
21330W        W38854  11.403  10.597  15.581 -0.1244  0.3924  0.0039
21331W        W38855   2.337   8.890  12.821 -0.1531 -0.2514 -0.0826
21332W        W38856  12.301   1.588  17.110  0.1825 -0.0067  0.1990
21333W        W38857   1.208  16.219  13.574  0.0649  0.0685 -0.3128
21334W        W38858  10.118  10.139   4.622 -0.0980  0.2349 -0.0200
21335W        W38859   9.278   8.062  15.859 -0.0303  0.1689 -0.0927
21336W        W38860  16.406   5.315   1.695 -0.1759 -0.0061 -0.0902
21337W        W38861   7.222  11.679  16.895  0.2360 -0.0078  0.0115
21338W        W38862   8.787   6.613  12.492  0.1675 -0.1469  0.0365
21339W        W38863  10.008  15.966  13.053 -0.0749 -0.5919  0.3036
21340W        W38864   9.720  11.385  16.719  0.0981  0.0620  0.3316
21341W        W38865  14.913  16.010  12.515  0.1405  0.1171  0.1839
21342W        W38866  15.071   6.669   4.824 -0.2820 -0.1131 -0.1247
21343W        W38867   4.686   5.600   5.470 -0.0173  0.2521 -0.0337
21344W        W38868   1.594   1.826   2.442 -0.1408  0.0096  0.0828
21345W        W38869   3.358  12.722   1.945  0.1131  0.0097 -0.2048
21346W        W38870   2.063   5.125  12.177  0.3265 -0.0687  0.0162
21347W        W38871   1.575   8.399   1.954 -0.1065  0.0440  0.1825
21348W        W38872  12.196  16.140   5.046 -0.0804  0.0612 -0.0520
21349W        W38873  13.070   2.626  13.007 -0.0747  0.3116  0.1641
21350W        W38874   4.637  14.601  17.007 -0.3679  0.1581 -0.0816
21351W        W38875  13.595  12.130   4.055 -0.2806 -0.1618 -0.2080
21352W        W38876  10.619  14.313   2.159  0.1948 -0.0067  0.1194
21353W        W38877   8.414  13.349   4.707  0.1215 -0.1602 -0.3789
21354W        W38878  13.464  13.502  12.032 -0.1148 -0.1884  0.1187
21355W        W38879   5.956   5.124  13.943  0.0368 -0.2764 -0.0983
21356W        W38880  12.534   4.559  15.451  0.0311  0.1000 -0.0553
21357W        W38881  11.307  15.612  13.499  0.0433  0.2027  0.5467
21358W        W38882   5.724  12.904  14.050  0.1234  0.2096 -0.1790
21359W        W38883  11.660   0.176   5.728  0.0577 -0.1342 -0.0482
21360W        W38884  14.956  12.893  13.009  0.0359 -0.0619 -0.0522
21361W        W38885   1.801   4.155  13.183  0.1891  0.1698  0.2042
21362W        W38886   2.605   9.209   0.023 -0.0273 -0.2859 -0.2037
21363W        W38887   1.778  11.436   0.459 -0.2013 -0.0969 -0.0272
21364W        W38888  13.767  16.325   2.329  0.0400 -0.1942  0.0844
21365W        W38889   3.516   4.609   0.451 -0.1216  0.0022  0.1454
21366W        W38890   4.005   9.927  12.914  0.2306  0.2190  0.0717
21367W        W38891  10.111  10.638   0.187 -0.1408  0.2708  0.1020
21368W        W38892   6.943   2.483   5.439 -0.1879 -0.1878 -0.1807
21369W        W38893  11.175  13.172  16.726  0.2996  0.1157 -0.2039
21370W        W38894   3.359   7.818   0.431 -0.0691  0.1651  0.1357
21371W        W38895   1.693   8.525  16.928  0.2982 -0.2292 -0.3011
21372W        W38896  14.905  13.641  17.523 -0.4001  0.0866  0.1101
21373W        W38897  11.534   4.787  15.640  0.0590 -0.1007 -0.1000
21374W        W38898   4.599  16.076   2.111  0.0958 -0.1963  0.1582
21375W        W38899   9.381   4.049  13.251  0.2850  0.1818 -0.1085
21376W        W38900  12.217  11.368   1.762  0.3383 -0.0500 -0.1164
21377W        W38901   3.208  15.922  17.280  0.1872 -0.1360 -0.3298
21378W        W38902   2.930   5.415   2.574 -0.2627  0.0561  0.0241
21379W        W38903  10.925   0.545  13.627 -0.0039 -0.4856 -0.2256
21380W        W38904   8.218  14.802  16.262 -0.0342 -0.3695  0.1740
21381W        W38905   0.660   7.907   4.195 -0.0790 -0.2359 -0.0590
21382W        W38906   5.558   5.722   1.239  0.1121  0.0478 -0.0643
21383W        W38907   2.379   7.814  15.500 -0.0848 -0.2045 -0.0313
21384W        W38908   6.356  15.748  15.773  0.0378  0.0258 -0.2525
21385W        W38909   0.145   6.781  15.348  0.0899 -0.4271  0.1677
21386W        W38910  14.179   8.200   0.837  0.1762 -0.2203 -0.0746
21387W        W38911  12.508  11.180   0.330 -0.2419  0.0482 -0.2017
21388W        W38912  13.435   6.063   0.090 -0.1135  0.0205  0.2612
21389W        W38913  13.598  15.090   4.250  0.0340 -0.0550  0.3434
21390W        W38914   2.284   2.718   0.688  0.2720 -0.2147  0.1109
21391W        W38915  12.853   6.578   3.174  0.1954  0.1744  0.0141
21392W        W38916   1.392   4.245  14.992 -0.1704  0.4386 -0.1260
21393W        W38917  10.018  11.357   2.922 -0.1268 -0.2899 -0.1675
21394W        W38918   5.437  14.570  13.388  0.0219  0.1919 -0.1324
21395W        W38919   6.982   4.245   3.297 -0.1320 -0.0559  0.2440
21396W        W38920   5.189  10.227   0.557 -0.0157 -0.1788 -0.1029
21397W        W38921  14.084  15.817   3.196 -0.0732  0.0495  0.1026
21398W        W38922   8.371   8.617   4.210  0.0462  0.0029 -0.0745
21399W        W38923  10.579   4.932  16.735  0.0883  0.2443  0.2320
21400W        W38924   8.380   6.593   4.217  0.0627 -0.0791  0.2150
21401W        W38925   3.369   0.573   2.100  0.2786 -0.0439 -0.0812
21402W        W38926   5.121   7.185   4.362  0.2404  0.0880 -0.1224
21403W        W38927  12.717   0.641  12.881  0.0030  0.2157  0.0950
21404W        W38928  17.140  16.326   3.346  0.1637 -0.0749 -0.1419
21405W        W38929   8.902  15.006  15.729  0.2777 -0.4247  0.2892
21406W        W38930   3.684  15.517   5.667 -0.0320 -0.1017  0.0339
21407W        W38931   4.156   3.082  15.961 -0.0895  0.1253  0.0808
21408W        W38932   6.303  11.947  14.937  0.0014 -0.1387  0.2709
21409W        W38933   9.501   7.426   3.510 -0.1239 -0.1465  0.0862
21410W        W38934  17.155   5.999   0.860  0.2097 -0.1453  0.0560
21411W        W38935   4.179   2.822   0.789  0.0825  0.0514 -0.1019
21412W        W38936   7.915  10.365  13.791  0.0739 -0.0258  0.1579
21413W        W38937  14.936   8.066   2.239 -0.3546 -0.1595  0.3539
21414W        W38938  16.319  11.470  17.239 -0.1712 -0.2793 -0.2805
21415W        W38939  15.985   6.024  13.721 -0.1356 -0.0111 -0.4362
21416W        W38940   0.393  14.533   2.992 -0.3475 -0.0154 -0.2160
21417W        W38941   7.961  15.643  15.788 -0.0231  0.0181  0.0261
21418W        W38942  13.841  13.608   1.498  0.1746 -0.4412 -0.0056
21419W        W38943   5.390  13.812  17.438  0.1129  0.2190  0.1942
21420W        W38944   4.243  10.252   2.554  0.1482 -0.0695  0.0212
21421W        W38945   9.955   5.851   3.940  0.1357  0.3412 -0.0389
21422W        W38946   1.586  13.321  12.602 -0.0669  0.1220  0.0856
21423W        W38947  13.372   0.018  14.734  0.1981 -0.0640 -0.0848
21424W        W38948   0.740  13.333  12.331 -0.0538 -0.2001 -0.0104
21425W        W38949  14.776  10.799  12.193 -0.1368  0.1170 -0.2000
21426W        W38950   0.664   1.956   1.968  0.1154 -0.0133  0.3595
21427W        W38951   6.005   9.975  12.483 -0.5662  0.0097 -0.0656
21428W        W38952  17.068   2.319   2.578  0.0642  0.2441 -0.1460
21429W        W38953   2.233   7.243   5.089  0.1188  0.1652 -0.0815
21430W        W38954   8.817   2.639   6.697 -0.0178 -0.1651 -0.2766
21431W        W38955   0.982   1.592  17.455  0.2241  0.0704  0.3329
21432W        W38956  12.677  14.113  15.609  0.2142 -0.2909 -0.2195
21433W        W38957  13.347   0.233   4.927  0.0982 -0.0559  0.2855
21434W        W38958   9.508  11.022  17.066  0.0456 -0.0804  0.1123
21435W        W38959   2.291   7.641   5.373  0.3131  0.0949  0.1757
21436W        W38960  15.967  15.857   5.505  0.0990  0.2803  0.3208
21437W        W38961  13.652  13.521  12.506 -0.2319 -0.3340 -0.0239
21438W        W38962  12.282  14.895  12.951  0.2141  0.1805  0.2119
21439W        W38963  11.494   2.082   3.104  0.1285 -0.1139  0.0690
21440W        W38964  14.097  12.206   1.704  0.2763  0.0239  0.1853
21441W        W38965  11.194  13.866   1.439 -0.1956 -0.1860  0.0053
21442W        W38966  13.095  14.208  14.720 -0.1211  0.1657 -0.0472
21443W        W38967  16.955  10.221   5.939 -0.0859  0.1307 -0.0062
21444W        W38968   6.619  13.390   5.162 -0.1323  0.1888  0.0829
21445W        W38969  11.767   1.918  12.123  0.1519  0.1296  0.2010
21446W        W38970   2.070   7.135   1.767 -0.1494  0.0474  0.0224
21447W        W38971   7.786   3.654   1.308 -0.0197 -0.0698  0.2921
21448W        W38972   4.152   2.382  15.535 -0.2756  0.1345  0.2194
21449W        W38973  10.571   5.362   4.986  0.1025  0.0958 -0.0312
21450W        W38974   3.176   9.581   3.485  0.1819  0.3161 -0.0433
21451W        W38975  12.408  12.684  13.664 -0.2806 -0.1645 -0.0579
21452W        W38976   2.447   5.532   0.368  0.1131 -0.0154  0.0057
21453W        W38977  14.534   6.933   5.953 -0.2791 -0.3181 -0.1422
21454W        W38978   2.042   3.881   4.637 -0.0539  0.1233  0.1146
21455W        W38979   8.858   9.235  14.309  0.0334 -0.1614  0.0830
21456W        W38980  16.691   9.241  16.185  0.2334 -0.1693 -0.3132
21457W        W38981   8.940  12.992  17.105  0.1184 -0.0393 -0.0825
21458W        W38982  15.620   2.926   3.613 -0.2525  0.2862 -0.2493
21459W        W38983   6.185   6.889  12.917 -0.1224  0.1676 -0.0601
21460W        W38984   0.097  12.050   5.522  0.1237 -0.2115 -0.1476
21461W        W38985  10.860   1.027  15.778  0.0733 -0.1484 -0.1776
21462W        W38986   0.503   3.515  12.902  0.2205 -0.4388 -0.3316
21463W        W38987   3.730  13.495  12.314 -0.0391 -0.0468  0.0726
21464W        W38988   3.854   3.209   5.406 -0.0298  0.1625  0.1005
21465W        W38989  10.536   8.252  12.738  0.1591  0.0772  0.1599
21466W        W38990  14.542   6.107  14.212 -0.0362 -0.2045  0.1185
21467W        W38991   4.861  12.231   4.014 -0.1574 -0.1764  0.1507
21468W        W38992   8.234  15.515  17.082  0.2535  0.0471 -0.3439
21469W        W38993  11.037   8.233   1.037  0.2504 -0.1784 -0.4538
21470W        W38994   6.185   2.000  14.688 -0.2057 -0.0928 -0.1980
21471W        W38995   3.691  12.201   1.308 -0.0418  0.2073 -0.1689
21472W        W38996  13.733   5.802  12.619  0.0533  0.2514  0.2452
21473W        W38997  14.031   3.552   4.419  0.1431 -0.3254  0.0764
21474W        W38998   3.216   8.453   1.541  0.1200  0.2548  0.3137
21475W        W38999   4.357   9.791   3.904 -0.1746 -0.0661 -0.1108
21476W        W39000  17.190   2.099  16.699  0.0795 -0.2472  0.2045
21477W        W39001   0.476   5.297   2.609  0.1203  0.0790  0.1063
21478W        W39002  16.461   5.880   1.789 -0.2339  0.0282 -0.2301
21479W        W39003  10.187   8.736  15.885  0.0488 -0.0606 -0.2623
21480W        W39004  10.429  14.083   4.878  0.2624  0.2527 -0.1247
21481W        W39005  16.396   2.620  14.830  0.0853  0.1018  0.0934
21482W        W39006  13.469  12.458   2.295 -0.2751 -0.0785 -0.0274
21483W        W39007  17.180   3.450  17.566 -0.0947 -0.1384  0.2854
21484W        W39008   6.304   5.887   0.840 -0.1510 -0.2129 -0.3095
21485W        W39009   9.258   7.615  17.386  0.1478 -0.2604 -0.0977
21486W        W39010  14.449   0.524   0.301  0.0951 -0.1116 -0.1809
21487W        W39011   6.866  13.275   2.866  0.1100  0.0075  0.0699
21488W        W39012   2.072  11.303  15.755 -0.0317  0.0367 -0.2615
21489W        W39013  12.613   2.463   4.377  0.1663  0.1249  0.0036
21490W        W39014  12.181   8.037   4.122  0.3176  0.0621 -0.0125
21491W        W39015   4.001  15.916   4.476  0.2213  0.1062 -0.2546
21492W        W39016   9.068   8.799   2.580  0.4363 -0.3181  0.1262
21493W        W39017   4.544   3.213   0.051 -0.2170 -0.1144 -0.0209
21494W        W39018   4.301  13.830   5.561  0.1052  0.0424 -0.4369
21495W        W39019  10.431   2.087  14.296 -0.0777 -0.0537  0.1502
21496W        W39020   2.532   8.631   2.502 -0.0580 -0.0464  0.1735
21497W        W39021   4.076   9.583  13.723  0.1130  0.2881 -0.0346
21498W        W39022   3.073  16.359  15.653 -0.1095  0.1428  0.0980
21499W        W39023   1.199  10.322  15.327 -0.3018 -0.0676 -0.1842
21500W        W39024   3.471  11.264   2.557  0.0847 -0.1335  0.1678
21501W        W39025  14.726  15.359  14.028  0.4145  0.0763 -0.0679
21502W        W39026  15.588  10.277   2.287 -0.1988 -0.2294  0.1437
21503W        W39027   5.337   7.323   3.913  0.0124  0.2688 -0.4504
21504W        W39028  14.748   9.504  15.935 -0.0530 -0.2878 -0.0014
21505W        W39029  16.785  13.215  16.003 -0.0281 -0.1104  0.1334
21506W        W39030   3.936   0.603   1.264  0.1213 -0.3480 -0.0201
21507W        W39031  10.882   1.572  15.606 -0.2217  0.1331  0.2428
21508W        W39032   1.336  13.869  17.244 -0.1170 -0.1648  0.1000
21509W        W39033   1.134   3.435   3.340  0.1159  0.0428 -0.6226
21510W        W39034   1.507  11.121  15.384 -0.1276 -0.2088 -0.0944
21511W        W39035   8.111   9.500  15.093  0.2726 -0.5056  0.1481
21512W        W39036  12.171   3.248   5.250 -0.4686 -0.0921  0.0335
21513W        W39037  14.943   9.502  14.290 -0.2764 -0.1437  0.0144
21514W        W39038   5.941  14.017   3.802  0.0814 -0.0517  0.1510
21515W        W39039   2.983  12.502  11.891  0.1489  0.0662 -0.0113
21516W        W39040   3.702  14.412  14.959 -0.0318  0.1217 -0.2229
21517W        W39041  10.799   1.343   5.212  0.0986 -0.0568 -0.3072
21518W        W39042  11.209   4.708   3.744  0.0145 -0.0319 -0.0594
21519W        W39043   9.824   8.459  12.234 -0.2570  0.1748  0.0812
21520W        W39044   4.885   6.814  16.058 -0.1817 -0.1019  0.1825
21521W        W39045   3.035   2.983  14.788 -0.3187 -0.2355 -0.0847
21522W        W39046  15.974   3.537   4.691  0.0060 -0.2251 -0.4953
21523W        W39047   6.628  14.414  14.468  0.2024 -0.2347 -0.0768
21524W        W39048  15.350   9.044   2.298  0.1922 -0.1370  0.1252
21525W        W39049  13.061   4.805   0.164 -0.0699 -0.0739 -0.0832
21526W        W39050  15.928   8.691   1.503 -0.2901  0.1176  0.2423
21527W        W39051   5.616   5.045  14.810  0.0106 -0.0516  0.2754
21528W        W39052   2.218  14.416  12.099  0.1846  0.0101 -0.0154
21529W        W39053   6.156  12.970   4.420 -0.0608  0.0623 -0.0991
21530W        W39054   0.725   4.905  17.279 -0.0807 -0.1796 -0.0046
21531W        W39055   8.561  10.670   1.246  0.3759 -0.0086  0.1893
21532W        W39056  13.018   4.738  16.474 -0.3089 -0.3830  0.0581
21533W        W39057   8.957   5.535   1.820  0.0952  0.0769  0.2007
21534W        W39058   3.711   9.215  15.364 -0.0808  0.1319  0.0827
21535W        W39059   3.634  14.335  16.743  0.1832  0.1357  0.0217
21536W        W39060   3.400  13.493   0.710 -0.1469 -0.0992  0.1635
21537W        W39061   5.442   5.002  14.149  0.0462  0.1615  0.1012
21538W        W39062  12.576  14.981  15.267  0.0597 -0.2186 -0.3839
21539W        W39063  12.604   9.036  14.051 -0.0062 -0.0242 -0.1020
21540W        W39064   8.371   6.748   2.943  0.1982  0.2220  0.0815
21541W        W39065   9.673   9.844   4.278  0.0576  0.1100 -0.0229
21542W        W39066  12.396   6.367   0.685 -0.0244  0.2428 -0.1022
21543W        W39067   1.380  14.328  16.824 -0.1701  0.0324 -0.1247
21544W        W39068  10.944   9.289  17.431  0.0802 -0.0565 -0.0121
21545W        W39069   0.397   1.534   5.013 -0.2974  0.1848 -0.0852
21546W        W39070  10.426   9.832  16.913 -0.0939  0.1047 -0.2533
21547W        W39071   0.713  12.542   4.831  0.0934  0.1923 -0.1590
21548W        W39072   1.288   2.598   3.949  0.0645 -0.0339 -0.1544
21549W        W39073  12.565   7.782   0.465  0.2460  0.0527 -0.2819
21550W        W39074  11.496   6.718  15.520  0.1983  0.1865  0.3495
21551W        W39075   7.413  16.876  13.018  0.2220  0.1835 -0.1031
21552W        W39076   2.842   4.994   3.292  0.0536  0.0006 -0.4171
21553W        W39077   0.462   5.369  16.748  0.0928 -0.1177  0.0344
21554W        W39078   5.746  17.015   3.685 -0.0413  0.0510  0.2609
21555W        W39079  12.034  15.725   2.643 -0.2006 -0.2929 -0.0626
21556W        W39080   7.719  13.383  12.994 -0.0829  0.1585  0.1570
21557W        W39081  16.040  10.086  12.149 -0.1718 -0.2565 -0.3882
21558W        W39082  10.777   0.994   2.047 -0.2002 -0.0622  0.0798
21559W        W39083  13.639  15.686   0.958  0.2134  0.0354 -0.1380
21560W        W39084   8.628   1.576  14.605 -0.0971 -0.0765  0.0239
21561W        W39085   0.475   3.964   2.370  0.3052  0.2015 -0.0212
21562W        W39086   1.770   5.703  13.827  0.0370  0.1487  0.0914
21563W        W39087   4.572   3.341   2.794  0.2266  0.0302 -0.2860
21564W        W39088   6.435  14.005   4.482 -0.2107  0.0181  0.0160
21565W        W39089  15.674   4.444   4.410  0.2990 -0.0767  0.2160
21566W        W39090   5.067  14.729  15.051 -0.1344 -0.1610  0.2113
21567W        W39091  13.783   7.254   5.225  0.2622 -0.2981 -0.0199
21568W        W39092   3.564  10.842   4.090  0.1634  0.1520  0.6102
21569W        W39093   0.415  16.551   3.164  0.1049 -0.1762 -0.0026
21570W        W39094   1.146   5.522   0.553  0.0487  0.0562 -0.0776
21571W        W39095  14.181   1.670   1.603 -0.0959  0.0905 -0.0447
21572W        W39096  12.602   1.859   2.523  0.2143  0.0859 -0.0250
21573W        W39097  14.398  14.994   4.321  0.0743 -0.2159 -0.1586
21574W        W39098   6.607   8.429  13.015  0.5555 -0.1850  0.0148
21575W        W39099   8.622   2.424   4.513  0.1793 -0.1394  0.2787
21576W        W39100   2.772   0.341  16.921  0.0740  0.0579  0.0158
21577W        W39101   7.061   9.896   0.549 -0.2656  0.2024  0.0348
21578W        W39102   9.442   3.629   3.752  0.1076 -0.1313  0.1470
21579W        W39103   5.355  10.622   1.573  0.1569  0.2716  0.1524
21580W        W39104   7.262   0.005  15.109  0.2295  0.2616 -0.2112
21581W        W39105  14.438   6.823   4.544  0.4780 -0.4007 -0.0659
21582W        W39106  15.781   0.409   5.475 -0.1812  0.1257 -0.0442
21583W        W39107   3.288   9.336  14.357  0.2106  0.1789  0.1026
21584W        W39108  12.332  14.830   1.504 -0.0061 -0.1387 -0.2112
21585W        W39109  15.858  11.835  16.735  0.0799 -0.2298 -0.2489
21586W        W39110  17.092  10.846  13.008 -0.0855 -0.2767 -0.0689
21587W        W39111  14.415  15.362   3.973 -0.0434  0.2037 -0.0319
21588W        W39112   4.047  11.524  12.498  0.1218  0.1329 -0.2148
21589W        W39113  16.823  12.625  12.896 -0.2515  0.0547  0.0523
21590W        W39114  11.628   4.998   3.875 -0.0310  0.1890  0.0643
21591W        W39115  13.085  15.967  12.963  0.0492  0.0718 -0.0347
21592W        W39116  10.280   7.059  17.070  0.1073 -0.2461  0.3012
21593W        W39117  13.246  11.623   2.304 -0.2263  0.0911  0.2908
21594W        W39118   0.227   6.494   0.309  0.0997 -0.2851  0.2343
21595W        W39119   2.535   5.691  11.916 -0.1049  0.1540 -0.1476
21596W        W39120   4.200   3.477  13.652  0.2533 -0.0830  0.3749
21597W        W39121   2.197  15.309   1.572 -0.0859 -0.0761  0.1176
21598W        W39122   1.997  12.561  13.251 -0.0471 -0.0248 -0.2052
21599W        W39123  13.171   7.381   4.243  0.1485 -0.0891 -0.2169
21600W        W39124   2.908   8.928   3.016  0.2320  0.4211 -0.2621
21601W        W39125   9.722   4.703   0.380 -0.1740  0.4294 -0.0639
21602W        W39126  10.668   0.344   3.009 -0.2240  0.2281  0.0277
21603W        W39127   3.825  14.537   5.734 -0.1012  0.0494  0.0518
21604W        W39128  12.255  14.184   3.324  0.1534 -0.0186  0.4002
21605W        W39129  13.431  16.446  15.234  0.1000  0.2353 -0.1428
21606W        W39130   0.617   3.347  15.619  0.0380  0.0019  0.0408
21607W        W39131   7.593  16.557   5.268  0.1392  0.0583 -0.1169
21608W        W39132  14.486   8.413  17.450  0.0500 -0.0358  0.3422
21609W        W39133  14.344   9.223  13.869 -0.1240 -0.0848  0.0835
21610W        W39134   0.013   1.526   2.930 -0.0449  0.1844  0.0516
21611W        W39135   6.734  11.455  16.805  0.0009 -0.3028 -0.1411
21612W        W39136  10.407  15.935   2.289 -0.0118  0.0411  0.2726
21613W        W39137   0.841  12.993   1.192 -0.0987  0.2272  0.0257
21614W        W39138  13.353   0.802   0.090 -0.0293  0.0340  0.0675
21615W        W39139  14.960   8.984   3.661 -0.1328 -0.0390  0.0548
21616W        W39140   1.702  16.003   2.477  0.0865 -0.2780 -0.4851
21617W        W39141  12.230   0.472   2.778 -0.1574  0.0564 -0.0259
21618W        W39142   6.663   8.953   4.191  0.0778  0.0793 -0.4644
21619W        W39143   4.881  10.012   3.814  0.2624  0.0462  0.1408
21620W        W39144   5.229   6.156   4.934  0.2835 -0.1876  0.1834
21621W        W39145  10.529   7.990   4.266  0.2112  0.4039 -0.1977
21622W        W39146   9.567   7.697  13.775 -0.0396 -0.3554 -0.0856
21623W        W39147   3.058  16.451  16.121 -0.0155  0.1048  0.2060
21624W        W39148   3.721   8.890   3.082  0.3875 -0.1304 -0.0846
21625W        W39149   2.352  17.195  17.418  0.1344  0.0216  0.0100
21626W        W39150  10.419   6.618   3.649 -0.1404 -0.1286  0.0086
21627W        W39151   9.972   9.446  14.662 -0.1411 -0.3781  0.1149
21628W        W39152   7.699   7.436  14.389  0.3021  0.0921 -0.0698
21629W        W39153  12.770   0.679   3.552  0.2611 -0.0148  0.1334
21630W        W39154   3.588   2.043   3.441 -0.3517 -0.2219 -0.0003
21631W        W39155   3.612   4.663  14.456  0.0473  0.0012 -0.3515
21632W        W39156   9.565   4.004  16.892  0.1249 -0.0473  0.1114
21633W        W39157  10.965  16.471  13.564 -0.0711 -0.1768 -0.2449
21634W        W39158   4.893   8.472   5.367  0.2034 -0.1298  0.1992
21635W        W39159   0.922   8.795   2.402  0.0447 -0.2840  0.3172
21636W        W39160   4.957  16.672   0.969 -0.0134  0.0341  0.0037
21637W        W39161   5.730   4.967  16.601  0.0029  0.1780 -0.0570
21638W        W39162  10.143   8.432  12.985 -0.0416  0.1651 -0.0612
21639W        W39163  15.712  16.853  11.414  0.2533 -0.1852  0.0037
21640W        W39164   5.350   7.002   2.650 -0.0238  0.0197  0.0821
21641W        W39165   2.382   8.364   1.321  0.1172 -0.0287 -0.1284
21642W        W39166   9.305   1.063  14.928 -0.1960 -0.0232 -0.0407
21643W        W39167   8.359  12.861  15.756 -0.0163 -0.2468 -0.0035
21644W        W39168   9.841  10.684   2.817  0.0084  0.2866  0.0142
21645W        W39169   7.357   9.542   0.356  0.1341 -0.0812  0.0727
21646W        W39170  15.513  11.716   1.861  0.1071  0.2599 -0.0261
21647W        W39171   7.171   0.948  17.109 -0.0168  0.2899 -0.1287
21648W        W39172   5.873   3.363  16.029  0.1282  0.2320  0.0692
21649W        W39173   7.712   4.419   0.067 -0.1518  0.3338 -0.1807
21650W        W39174   7.567   5.228   2.976 -0.2992 -0.0276 -0.0718
21651W        W39175   9.687   7.578  15.572  0.0428  0.1766  0.1723
21652W        W39176   4.395  17.191   3.559  0.0554  0.0724 -0.0243
21653W        W39177   8.093  15.543  14.616 -0.0537 -0.0766 -0.2232
21654W        W39178   0.470  14.115   0.634 -0.2734 -0.0724 -0.2081
21655W        W39179   1.152   6.588   3.506 -0.1082  0.1592 -0.0249
21656W        W39180   4.781   2.849   3.141  0.3393 -0.1042  0.3378
21657W        W39181   2.246  14.237   4.974  0.2706  0.3448 -0.0280
21658W        W39182  10.092  10.008   1.298  0.1798 -0.1409 -0.4376
21659W        W39183   1.762   7.271  17.213  0.1690  0.1781 -0.2241
21660W        W39184  12.339   1.235  17.579 -0.2702 -0.0930  0.2999
21661W        W39185  16.411   3.426   1.628  0.0802  0.2232  0.1794
21662W        W39186   5.473  10.665   2.907  0.3239 -0.0689  0.0318
21663W        W39187   4.831   0.752   2.775 -0.2192  0.0856 -0.0566
21664W        W39188  12.891  17.177   4.745  0.0533  0.1689  0.1840
21665W        W39189   9.172  14.918   3.380  0.0195  0.2080 -0.2105
21666W        W39190   4.539   5.380   0.905  0.3188  0.1275 -0.1795
21667W        W39191   4.321  14.336   4.222 -0.0923  0.0595 -0.1904
21668W        W39192  11.380  16.409  15.622 -0.3520 -0.2023  0.1147
21669W        W39193  12.675   3.188   2.711  0.0268  0.4738  0.0002
21670W        W39194   9.319   0.053   3.919  0.2130  0.3168 -0.0224
21671W        W39195   4.828   2.339  13.532 -0.1815 -0.3334  0.0294
21672W        W39196  15.714  10.416   0.697  0.0520 -0.3954  0.1758
21673W        W39197   1.810  10.949  12.945  0.0457 -0.2492 -0.2190
21674W        W39198   4.488   6.087   5.532 -0.4868 -0.0028  0.2243
21675W        W39199  16.944   7.956  12.531  0.2394  0.2368  0.0475
21676W        W39200   9.262   4.047  15.127  0.3478 -0.1836 -0.0385
21677W        W39201  14.318   3.362   4.050  0.2359 -0.0329 -0.1085
21678W        W39202   8.759  16.326  12.893 -0.2264 -0.1312  0.0578
21679W        W39203   9.707  10.402   4.581  0.0787 -0.1147  0.2869
21680W        W39204  16.945  12.595  15.875  0.3096  0.2994 -0.0896
21681W        W39205  10.451  11.235   2.390  0.0191 -0.1779 -0.0496
21682W        W39206  10.270   4.927   3.609  0.1176 -0.2934  0.3448
21683W        W39207   4.512   6.650   0.303 -0.2506  0.1958  0.0203
21684W        W39208   2.327  13.568  13.767 -0.1363  0.0987  0.3166
21685W        W39209   8.653  14.405   0.119 -0.0542  0.3155  0.1524
21686W        W39210   2.967   9.116   0.879  0.0663  0.1632 -0.3157
21687W        W39211  17.032   9.008   0.984 -0.0455  0.1269 -0.1434
21688W        W39212  16.617  12.091  12.000 -0.2677 -0.2949  0.4664
21689W        W39213   2.543   7.994  16.777 -0.0484  0.0398  0.0381
21690W        W39214  14.083   3.061   4.578  0.3520 -0.0734 -0.2344
21691W        W39215   9.510  12.957  12.329  0.0545 -0.0626  0.1301
21692W        W39216  17.227  16.931   4.222 -0.0767  0.0353 -0.2863
21693W        W39217  11.241   8.869  13.175 -0.1031  0.1551 -0.0159
21694W        W39218   2.268   7.448  17.325 -0.1538 -0.2071 -0.0581
21695W        W39219  10.091  16.478   1.562 -0.1838 -0.0599 -0.0147
21696W        W39220  17.185  11.975  15.573  0.3273 -0.1747  0.1113
21697W        W39221  16.224   1.012   5.080 -0.0859  0.1394  0.0419
21698W        W39222   2.540   0.224   1.664  0.0207 -0.0005 -0.0881
21699W        W39223  12.131   5.402   0.720 -0.0801 -0.2122 -0.2215
21700W        W39224   1.217   4.468  12.002 -0.1250  0.0386  0.1332
21701W        W39225   5.465  13.154   0.368  0.0321 -0.0620  0.2151
21702W        W39226   5.643   5.228  16.210  0.1472 -0.2284 -0.3083
21703W        W39227   8.916   4.232  15.485  0.0608  0.0380  0.1309
21704W        W39228   7.073   9.736  14.093  0.1368 -0.0376  0.1829
21705W        W39229  13.915   2.066  15.995  0.1813  0.0864  0.1284
21706W        W39230   9.952   7.621  14.079  0.0773  0.1783 -0.1683
21707W        W39231   4.454  12.915  15.183  0.0640 -0.0464  0.0076
21708W        W39232   7.204  16.205   3.726 -0.1075  0.2176 -0.1063
21709W        W39233   3.920   0.250   0.859 -0.0946 -0.2436  0.2272
21710W        W39234  10.439   7.640   3.752 -0.1777 -0.1529 -0.1441
21711W        W39235   5.572  10.999  17.320  0.3045 -0.0423 -0.2165
21712W        W39236  16.178  16.073   5.164  0.3381  0.0582 -0.1056
21713W        W39237   6.905  11.944  16.005  0.0888 -0.0655 -0.0001
21714W        W39238   3.019   7.913  16.626 -0.2338  0.1647 -0.3128
21715W        W39239   7.518   0.891  13.410  0.3001  0.0327 -0.2320
21716W        W39240   1.913   1.451   3.943  0.0812 -0.0465  0.1270
21717W        W39241   6.493   1.532   4.211  0.2428  0.1289  0.3862
21718W        W39242   7.264   5.613  12.464 -0.1952  0.0582 -0.2118
21719W        W39243   4.920   8.738  13.015 -0.0223  0.1474 -0.1644
21720W        W39244  14.000   8.549  17.174 -0.1882 -0.1036 -0.1317
21721W        W39245   7.559   0.249   2.945  0.0562  0.1856 -0.1174
21722W        W39246  10.761  13.550   1.470 -0.0675  0.0994  0.1265
21723W        W39247   2.814  16.444  12.239  0.2226 -0.0577  0.0066
21724W        W39248   4.946  15.468   4.409 -0.0217 -0.1022 -0.1096
21725W        W39249  16.638   5.365  13.924  0.0579 -0.0563 -0.0349
21726W        W39250   3.401   3.224   5.084  0.1148 -0.2836  0.2031
21727W        W39251  15.110   1.349   3.038 -0.2535 -0.1468 -0.2976
21728W        W39252   5.586  13.537  13.526  0.0849 -0.2050  0.1521
21729W        W39253  14.861   4.299   2.439 -0.4248  0.1461  0.0976
21730W        W39254  17.193   1.915   4.238  0.0255 -0.2568  0.1300
21731W        W39255   8.189   0.139   0.555  0.1874  0.0562  0.1727
21732W        W39256   1.755  15.286   1.765 -0.1036 -0.0632  0.0467
21733W        W39257   8.743   0.027  16.982 -0.1180  0.2142  0.2114
21734W        W39258  15.160  10.395  14.567  0.4406 -0.0104 -0.1077
21735W        W39259   4.551  15.415  17.094 -0.0040 -0.2216  0.0161
21736W        W39260   9.256   4.577  15.189 -0.0456 -0.2265 -0.0573
21737W        W39261   1.836  13.556   2.414 -0.0548  0.0658 -0.0285
21738W        W39262  12.565  12.473   4.319 -0.1630  0.0825 -0.0920
21739W        W39263  12.909   0.486   2.631 -0.0400  0.0987  0.0381
21740W        W39264  13.589  15.655  12.887  0.2972 -0.0664  0.1042
21741W        W39265  16.653   8.258   1.648  0.0142  0.0492  0.0547
21742W        W39266   1.847   3.057   4.581 -0.0056  0.1761 -0.1877
21743W        W39267   2.181  15.485   4.501 -0.0030 -0.2570 -0.2017
21744W        W39268   8.733   1.595   1.950 -0.2872 -0.2216  0.1455
21745W        W39269   5.144   6.955   1.309  0.0540  0.0055  0.1183
21746W        W39270   1.764  14.848  16.872 -0.0535  0.0378  0.3923
21747W        W39271  13.437   9.212   3.581  0.2415 -0.1742  0.0996
21748W        W39272  12.946   9.065  16.035  0.1138 -0.2878  0.0416
21749W        W39273   7.136  14.832  17.596 -0.1722 -0.2089  0.0368
21750W        W39274   1.911   4.713  16.126 -0.2313 -0.2651  0.0303
21751W        W39275  12.528   5.710  14.049  0.0352  0.2987 -0.2313
21752W        W39276   4.309  16.402   6.475 -0.0206  0.3484  0.1073
21753W        W39277   6.962   7.455  12.207 -0.1127 -0.3721 -0.2506
21754W        W39278   6.934  16.820   0.154 -0.1863  0.4444  0.1138
21755W        W39279   3.465  10.464   1.120 -0.1720  0.1291  0.2086
21756W        W39280   7.825  12.863  14.812  0.0765  0.0910  0.3700
21757W        W39281   9.991   6.041  14.751 -0.0717 -0.1331 -0.0397
21758W        W39282   0.825   0.288  12.313 -0.2211 -0.2734  0.2528
21759W        W39283  13.183   4.778  16.022 -0.3077  0.0242  0.6074
21760W        W39284   0.127   7.888   4.165  0.1342 -0.3360  0.1481
21761W        W39285  11.951  10.671  15.713 -0.0640  0.0182  0.0330
21762W        W39286   2.146  15.368  12.572 -0.0725  0.0725  0.0301
21763W        W39287   1.936   0.606   0.392  0.1443 -0.2781 -0.2083
21764W        W39288  12.223  16.092  17.618 -0.0171 -0.0376  0.4640
21765W        W39289   8.525   4.086  13.024 -0.2661  0.1446  0.1353
21766W        W39290   6.261   7.386   4.747  0.0126  0.1850  0.1431
21767W        W39291   6.903  14.097   0.596  0.3532  0.1079 -0.3086
21768W        W39292   3.274  14.306  15.176 -0.2377 -0.0178 -0.0400
21769W        W39293  16.977  14.481  16.709  0.0938  0.0836  0.1820
21770W        W39294  12.117   4.152  13.452  0.1284  0.1423 -0.0914
21771W        W39295   3.187  15.340  16.151  0.0720  0.2788 -0.2317
21772W        W39296  13.661  12.463  16.409  0.2927 -0.2275 -0.3947
21773W        W39297  11.467  15.216  12.279  0.0351  0.1310  0.3856
21774W        W39298   2.128   6.065   2.237 -0.0137 -0.2619 -0.2632
21775W        W39299  11.703   9.494   2.360  0.2329  0.0515  0.0258
21776W        W39300   3.362  11.398  17.571 -0.1637  0.1250  0.0996
21777W        W39301  13.523   5.147   3.886 -0.1644  0.1757  0.1819
21778W        W39302  15.939  16.818   1.508 -0.0017 -0.0434  0.0194
21779W        W39303   1.069  13.889   2.609 -0.0352 -0.0209 -0.1004
21780W        W39304   8.409   1.297   4.709  0.1298  0.2302 -0.2101
21781W        W39305   7.348  16.099  16.424 -0.3551  0.2459 -0.1090
21782W        W39306   0.621  12.726  13.507  0.1655 -0.0393 -0.4177
21783W        W39307  15.801   4.640   1.596  0.0233  0.4864  0.1101
21784W        W39308   0.801   5.732  13.620 -0.1612 -0.0617 -0.0086
21785W        W39309  16.673   5.295   2.661 -0.0989  0.1797  0.0692
21786W        W39310  12.039  17.098   5.636 -0.1286  0.0303  0.1961
21787W        W39311   5.953   5.133  13.026 -0.0138  0.1476  0.2231
21788W        W39312   9.675   3.639  13.355 -0.1365 -0.3996  0.0902
21789W        W39313  13.693  10.866   2.411  0.0899 -0.0245 -0.0256
21790W        W39314   0.242   2.614  16.715 -0.2953  0.0205  0.2157
21791W        W39315   6.295   8.436   6.521 -0.1785 -0.0003 -0.1477
21792W        W39316   9.931  15.234   3.877 -0.1490  0.1880  0.0294
21793W        W39317  11.621   6.099  12.464  0.4869 -0.1119 -0.2046
21794W        W39318   9.715  15.539   5.722  0.1129  0.5244  0.3308
21795W        W39319   3.458   6.463  15.133  0.0902  0.2022  0.0219
21796W        W39320   4.474  15.220   2.374  0.3816  0.1091  0.0212
21797W        W39321  14.772   6.081  13.758 -0.1929  0.2814  0.0285
21798W        W39322   0.393   6.511  15.698 -0.1467  0.0260  0.1686
21799W        W39323   8.514  14.255   3.541  0.0464 -0.3895 -0.1215
21800W        W39324   8.911   3.974  13.395 -0.2026 -0.0753 -0.1324
21801W        W39325  12.391  13.510  11.423  0.0332 -0.0486 -0.0154
21802W        W39326  16.526  11.038  17.086 -0.0207  0.0198  0.1263
21803W        W39327  11.317  13.856  14.502 -0.2511 -0.0973 -0.0190
21804W        W39328   0.189   8.909  14.142 -0.2705  0.1610 -0.2033
21805W        W39329   2.452   5.649  14.719  0.0860  0.1548  0.2321
21806W        W39330   3.477   7.965   5.255 -0.0390  0.0799 -0.0059
21807W        W39331   5.102   8.705   6.071 -0.0722  0.0160 -0.1180
21808W        W39332   5.598   4.418  13.504 -0.0624 -0.2177 -0.0210
21809W        W39333   8.778   3.892  17.396  0.1467  0.1765 -0.3211
21810W        W39334   2.504  14.097  14.414  0.0407 -0.0737  0.5358
21811W        W39335   1.138   3.692   1.290  0.0711  0.2517  0.3887
21812W        W39336   3.800  15.309  13.479 -0.2308 -0.2686  0.2582
21813W        W39337  11.833  12.712   1.563 -0.1049 -0.1213  0.0398
21814W        W39338   1.572   8.999   0.966 -0.1855 -0.0229  0.0425
21815W        W39339  15.740   9.565   3.515  0.0734 -0.0633 -0.1136
21816W        W39340   7.659   9.426  15.870 -0.3173  0.0720 -0.0016
21817W        W39341   9.982   3.360  15.592 -0.0411  0.0601  0.0193
21818W        W39342   7.283   3.018  14.029 -0.0563  0.2601  0.0565
21819W        W39343  16.232   6.561   4.434 -0.0230  0.1796 -0.1015
21820W        W39344  14.157  13.838   3.841  0.1619  0.2093 -0.0625
21821W        W39345   8.883  13.722   2.190  0.1097 -0.0732 -0.0418
21822W        W39346  16.256   2.123  15.939  0.1124 -0.2810  0.0961
21823W        W39347  13.767   1.947  13.770  0.3425  0.0526 -0.0522
21824W        W39348   3.599  15.765   0.313 -0.0092  0.0134 -0.0931
21825W        W39349  13.248  17.010   5.182 -0.1479  0.2221  0.1040
21826W        W39350  13.047   5.032   4.104 -0.1988  0.0792 -0.0443
21827W        W39351  14.014  14.875   3.081 -0.2005 -0.2103  0.0316
21828W        W39352  13.927   9.911   1.494 -0.0335 -0.0951  0.3858
21829W        W39353   3.560  13.663   3.790  0.1176 -0.2628  0.1694
21830W        W39354   8.219  11.195   4.373  0.2769 -0.0027 -0.1374
21831W        W39355   3.414  16.735  16.298  0.3380 -0.0230 -0.1485
21832W        W39356  13.015  10.890  12.504 -0.1795  0.0534 -0.1061
21833W        W39357  11.021   5.379  16.590  0.0019 -0.0172  0.0404
21834W        W39358   1.151   4.267   4.515  0.1225 -0.1538 -0.0592
21835W        W39359  10.140  11.638  16.709  0.1208 -0.0768  0.1424
21836W        W39360   8.576   6.179   4.515 -0.0330 -0.2416 -0.3444
21837W        W39361   9.303  13.793  16.072  0.3348  0.0024 -0.0912
21838W        W39362  10.672  10.986   5.124  0.2931 -0.0441  0.1516
21839W        W39363  12.999  14.678  14.865  0.1247  0.0567  0.1151
21840W        W39364  15.391  13.444  17.020  0.0909  0.0340 -0.1578
21841W        W39365   3.774  10.671   0.188  0.3121  0.4057 -0.0649
21842W        W39366   5.252  13.530   3.024 -0.3274  0.0747 -0.1266
21843W        W39367  11.874  16.804  13.792  0.1510  0.4219  0.1423
21844W        W39368  16.369   1.716   2.698  0.0801 -0.1376 -0.2171
21845W        W39369   3.597   3.788  12.837  0.2362  0.0730  0.4182
21846W        W39370   9.174  11.792  14.216  0.1352  0.1796  0.0485
21847W        W39371  13.544  15.162   3.205 -0.1496 -0.1793  0.0798
21848W        W39372   8.432  10.742   2.118  0.0769 -0.1974 -0.2964
21849W        W39373  12.813   4.676   1.511  0.1596  0.1840  0.0304
21850W        W39374  11.965   3.507  15.119 -0.1394 -0.2320  0.4510
21851W        W39375   8.532   6.335  17.169  0.3237 -0.0140 -0.2463
21852W        W39376   7.857  13.540  13.452  0.0222  0.1607 -0.0818
21853W        W39377  14.413  14.918   2.037  0.0982 -0.0775  0.0722
21854W        W39378  11.431   9.362   4.318  0.0912  0.0267 -0.3765
21855W        W39379  15.423  13.941   6.224 -0.3070  0.1216  0.2052
21856W        W39380   6.145  15.895   0.661  0.0984 -0.1206  0.2622
21857W        W39381   8.791   1.164  17.270  0.2195 -0.0458  0.0694
21858W        W39382   0.185  15.009   1.554  0.1506 -0.0641 -0.0102
21859W        W39383   7.839   7.213   4.983 -0.0181  0.1576  0.2353
21860W        W39384   2.576   9.755  14.382  0.1579  0.1545  0.1822
21861W        W39385   2.991   6.703   2.246 -0.2623  0.0480  0.0241
21862W        W39386  14.747  14.296   2.778 -0.0335  0.1106 -0.0611
21863W        W39387   9.795   7.290  15.064 -0.1658  0.0043 -0.1284
21864W        W39388  12.618   7.310  14.046  0.0605  0.1383 -0.0529
21865W        W39389  11.235   3.671   4.415 -0.1819  0.0426  0.0802
21866W        W39390  16.194   8.907   0.007  0.1771  0.1757  0.0925
21867W        W39391   8.545   2.027   5.737 -0.0068  0.1716  0.0164
21868W        W39392  14.786   1.250   3.726  0.0832 -0.1373  0.0587
21869W        W39393  10.379   7.909   2.776  0.1398 -0.0790  0.2199
21870W        W39394   9.464   7.155   2.172  0.1380  0.0141  0.1353
21871W        W39395   0.421   2.349  14.311  0.0563  0.2880 -0.1250
21872W        W39396   3.801  12.800  13.853 -0.1571  0.3239 -0.4049
21873W        W39397  13.096   1.922  16.011 -0.0486 -0.1184 -0.3529
21874W        W39398   5.689   7.227   3.037  0.2592 -0.2651 -0.0426
21875W        W39399  10.035  14.466  13.033 -0.1745  0.2083  0.0233
21876W        W39400   9.764  14.766  15.964  0.1207  0.1930 -0.0891
21877W        W39401  13.227   7.998  10.914 -0.4507  0.1368 -0.1953
21878W        W39402   6.503   8.280  13.533 -0.2547 -0.0527  0.0545
21879W        W39403  15.426  12.111  12.200  0.2206  0.1031  0.2986
21880W        W39404  10.171  12.374  13.114 -0.0964 -0.1458 -0.0517
21881W        W39405   3.781  16.282   2.879  0.1027  0.3446  0.0741
21882W        W39406  12.034   1.922  13.979  0.0007 -0.1022  0.3274
21883W        W39407   3.910   0.142  13.813 -0.0717 -0.0660 -0.0271
21884W        W39408  14.607  13.730   3.622  0.0766 -0.1468  0.1724
21885W        W39409   2.884   8.455  15.212  0.4819  0.2372 -0.1091
21886W        W39410   3.020   1.077  16.169 -0.0883 -0.1436 -0.0515
21887W        W39411   0.145   9.470   1.217  0.0577  0.0436  0.0486
21888W        W39412  16.457  15.156  11.710 -0.0486 -0.1837 -0.0937
21889W        W39413   9.431  16.984   2.483 -0.0453  0.0406 -0.0251
21890W        W39414   1.346  12.556   2.944  0.0350  0.2808 -0.2129
21891W        W39415   4.137  13.446  16.007 -0.1344  0.0665  0.0258
21892W        W39416   7.076   8.283  12.798 -0.0379 -0.2789  0.0889
21893W        W39417  13.852   9.864   0.225  0.1682  0.2570 -0.0386
21894W        W39418   9.017  16.191  17.296 -0.1266  0.2148  0.3284
21895W        W39419  10.699   8.804  13.178  0.0701  0.1228 -0.0384
21896W        W39420   5.799   9.487   2.394  0.1594 -0.0614 -0.1134
21897W        W39421   8.103  16.830  15.094 -0.4619 -0.0702 -0.0779
21898W        W39422   6.386  15.755  14.130 -0.2452 -0.0793 -0.1115
21899W        W39423  12.653   9.826   1.667 -0.1339 -0.0789  0.0615
21900W        W39424  16.054   5.746   4.419 -0.3094  0.0255  0.2070
21901W        W39425  12.539  11.233   5.638 -0.0895 -0.0935 -0.1730
21902W        W39426   1.281  13.527  16.338  0.3090  0.4884  0.4518
21903W        W39427   9.656   6.728  13.918  0.2476 -0.1085 -0.0077
21904W        W39428   0.718   5.030  14.922  0.0579  0.0107 -0.1846
21905W        W39429  12.612  15.445   0.615  0.1797 -0.0145 -0.3105
21906W        W39430  10.476   6.376  12.953  0.1814  0.6336  0.1554
21907W        W39431  10.903   6.771   0.023  0.1412  0.0798  0.2654
21908W        W39432   6.514  12.990   4.754 -0.0035  0.0508 -0.0631
21909W        W39433   1.043   3.195  16.604 -0.1280  0.0092  0.1123
21910W        W39434   5.796   1.108   4.394  0.0357 -0.0510  0.0421
21911W        W39435   9.467   6.149   1.195 -0.2260  0.1001 -0.0959
21912W        W39436   8.758   4.702   1.329 -0.1474 -0.0944  0.1324
21913W        W39437  15.023   1.296   4.834 -0.0740 -0.0193  0.2028
21914W        W39438  12.718   3.387  16.581 -0.0326 -0.0084 -0.1179
21915W        W39439   3.340  13.567  15.357  0.0429 -0.2846 -0.3252
21916W        W39440   3.635  13.079   0.687 -0.1619  0.1362  0.0024
21917W        W39441   6.630  14.984   0.193  0.0488 -0.1718  0.0251
21918W        W39442   6.377   8.626   4.441  0.2141  0.0075  0.0779
21919W        W39443   6.790  12.294  14.664 -0.2151  0.0068  0.0366
21920W        W39444  13.138   8.032  12.591  0.1298 -0.0287 -0.1862
21921W        W39445   3.785   4.631   0.898 -0.0656  0.0303  0.0120
21922W        W39446   2.781   0.582   1.401 -0.1801 -0.3523  0.0838
21923W        W39447   7.954   1.011   1.004  0.0848  0.2643 -0.0939
21924W        W39448  14.626  12.460  13.894  0.0533  0.1071 -0.1332
21925W        W39449   1.445  16.381  14.259 -0.1023 -0.0391 -0.2665
21926W        W39450  15.783   3.258  11.832  0.1636 -0.0815  0.0338
21927W        W39451  10.871   5.986   1.184  0.3095  0.0492 -0.3512
21928W        W39452   7.751  14.479  17.014  0.0492  0.0694 -0.1931
21929W        W39453   5.842   4.251  15.508 -0.0244 -0.1733  0.2105
21930W        W39454   8.723   7.674   1.807  0.0284 -0.0466  0.1397
21931W        W39455   2.117  15.663   1.954  0.4902 -0.0299 -0.2701
21932W        W39456   8.755   6.371  13.759 -0.1495  0.0923  0.0238
21933W        W39457   2.289   4.884   3.546 -0.1298 -0.2537 -0.2043
21934W        W39458   9.744   2.712  14.197 -0.2227 -0.0566  0.1430
21935W        W39459   7.339   9.590   2.957 -0.1977 -0.2378 -0.2320
21936W        W39460   5.655   4.396   2.436  0.1258 -0.0043 -0.0940
21937W        W39461   6.595   6.834  16.815 -0.1552 -0.2169  0.2628
21938W        W39462   2.529   1.169   0.293 -0.0212  0.1100 -0.0267
21939W        W39463  15.202  13.680  13.351 -0.1194 -0.0988 -0.1533
21940W        W39464  15.755  15.377   3.969 -0.0146  0.1977 -0.1364
21941W        W39465   8.543  10.456  15.283 -0.1377  0.0786 -0.1622
21942W        W39466   5.597   0.638   1.161  0.0660  0.1862 -0.1622
21943W        W39467   1.469   3.780   0.822  0.1083 -0.2890  0.1604
21944W        W39468  16.741   6.842   3.333 -0.4638 -0.1158  0.1967
21945W        W39469   8.506  16.519   0.081  0.0588 -0.1467 -0.3302
21946W        W39470   4.326   5.038  16.152 -0.1968  0.1101 -0.0401
21947W        W39471   2.811   4.580  13.101 -0.0019  0.0569 -0.0160
21948W        W39472  13.998  16.406   1.406  0.1980 -0.1800 -0.1840
21949W        W39473   1.900  14.112  15.395  0.0190  0.0309  0.1369
21950W        W39474  10.013  13.968  13.292  0.0300 -0.1093 -0.0873
21951W        W39475  11.676   4.301   3.873 -0.0650  0.2647 -0.2549
21952W        W39476   2.959   6.062  17.299 -0.2359  0.0923 -0.0816
21953W        W39477   9.689   2.927   1.434 -0.0979  0.2667 -0.1167
21954W        W39478   7.495   6.029   3.671 -0.1634  0.0326  0.1487
21955W        W39479  11.853   9.499   1.353 -0.0569  0.2303  0.2932
21956W        W39480   6.148  16.355  14.141  0.3656  0.1949 -0.0236
21957W        W39481   0.360   0.639   1.572  0.2262 -0.0327  0.2832
21958W        W39482   1.105   2.083   1.217  0.0985 -0.3867 -0.1529
21959W        W39483   7.325   7.653   4.783  0.2682 -0.0916  0.1115
21960W        W39484  12.419   2.446  14.881 -0.2244  0.1227  0.0628
21961W        W39485   1.403   1.707  14.409 -0.0613  0.2144  0.1800
21962W        W39486   6.012  14.657   2.542  0.0350 -0.0982 -0.1015
21963W        W39487   4.807   8.705   2.846 -0.2827  0.0516  0.0603
21964W        W39488   0.942  15.305   2.738 -0.0780 -0.0731  0.0863
21965W        W39489   6.304   8.146  14.883  0.0207 -0.2407  0.2634
21966W        W39490   6.902   7.763   5.058 -0.2127 -0.2359 -0.1127
21967W        W39491   3.423   0.287   3.527 -0.0987 -0.1235  0.1703
21968W        W39492   7.346   5.091   1.706  0.0575  0.1217  0.2082
21969W        W39493   9.358  13.241   1.414 -0.1045 -0.0350 -0.2020
21970W        W39494   8.177   5.904   1.463  0.2746  0.3186  0.1179
21971W        W39495   3.560   6.074   2.761 -0.0572 -0.0392 -0.0822
21972W        W39496  13.583  13.537   3.208  0.1520  0.1982 -0.4596
21973W        W39497  13.289   7.815  13.341 -0.1487 -0.0379 -0.1501
21974W        W39498   9.650   0.445  16.438  0.2818 -0.0061 -0.0110
21975W        W39499   7.447  12.129   3.644  0.2283 -0.0536 -0.2435
21976W        W39500   6.867   4.990   0.974 -0.1785  0.2032  0.3118
21977W        W39501   0.675   9.998  13.033  0.0908 -0.2970  0.0019
21978W        W39502   3.939   4.024   4.649  0.1387 -0.0288 -0.0033
21979W        W39503   7.058  16.386   4.650  0.0666  0.1598 -0.0073
21980W        W39504   5.360   4.891   2.403  0.0126  0.1125  0.0706
21981W        W39505  10.318   5.248   0.932 -0.0528  0.3596  0.1321
21982W        W39506   8.795   7.381  16.048  0.0060  0.0564  0.1847
21983W        W39507  12.622   2.989   0.413 -0.3086  0.0738 -0.1130
21984W        W39508  16.514   4.845  16.153  0.2038 -0.2288 -0.0985
21985W        W39509   6.730   3.008   1.457 -0.0254 -0.0210 -0.0133
21986W        W39510   1.038  10.442  14.311  0.0923 -0.1069  0.1361
21987W        W39511   5.930  12.778   1.911  0.0486  0.0742 -0.3923
21988W        W39512   3.911   2.386  16.837 -0.2198 -0.1339  0.1105
21989W        W39513   5.001   6.628   4.691 -0.1039  0.1912 -0.0973
21990W        W39514  12.873   6.956  16.959 -0.0226  0.0034  0.2682
21991W        W39515   4.206   8.341   1.866  0.1720  0.2541  0.0769
21992W        W39516   7.949   4.677   1.256 -0.0800  0.0329 -0.0780
21993W        W39517   6.572  10.014  13.893 -0.3014  0.1551  0.2969
21994W        W39518  13.051   4.512   1.110 -0.0529  0.2320 -0.0988
21995W        W39519   5.020  11.835   3.788 -0.1011 -0.0534  0.0656
21996W        W39520   9.401   2.818   0.136 -0.1061 -0.0100  0.4010
21997W        W39521   6.594   5.104  16.957 -0.1435  0.1351 -0.0496
21998W        W39522   5.177   1.898  17.395 -0.0520  0.0140  0.2579
21999W        W39523  12.259  11.865   0.431  0.2754 -0.1247  0.1169
22000W        W39524   9.185   5.841  13.560 -0.3432 -0.2442  0.0707
22001W        W39525   6.639  15.303   0.931 -0.3205  0.0669  0.1393
22002W        W39526   3.903   2.140  12.169  0.3520  0.1463  0.0746
22003W        W39527   5.645  17.170   4.267  0.0586  0.0872  0.0784
22004W        W39528   6.717  15.659  16.146  0.0005 -0.0616  0.2546
22005W        W39529  16.617   4.164   3.964 -0.1334  0.2221 -0.2899
22006W        W39530  13.180   9.042   5.180 -0.0748 -0.0261  0.1730
22007W        W39531  12.956   8.132   1.486  0.1354  0.0378  0.1748
22008W        W39532  10.904  14.239  13.415  0.1468  0.0217  0.2834
22009W        W39533   2.395   4.581   2.632 -0.1956 -0.2024  0.1205
22010W        W39534   8.427   9.240   3.982  0.0997 -0.0346  0.0213
22011W        W39535   5.302   4.025  14.865 -0.1098 -0.1143 -0.2602
22012W        W39536   9.480  15.734   2.708 -0.0648 -0.1396 -0.0713
22013W        W39537  10.162   5.290  16.011  0.0681  0.2886  0.1860
22014W        W39538   5.076   0.092   4.923 -0.1250 -0.3940  0.0418
22015W        W39539   1.415  15.768  14.178  0.1394 -0.0644  0.0875
22016W        W39540  12.334   4.674  15.875  0.0401  0.1444 -0.1405
22017W        W39541   8.992   5.955  14.658  0.0832 -0.1831 -0.1622
22018W        W39542   6.744  11.674   4.345 -0.0291 -0.0543  0.0057
22019W        W39543  15.795   6.786   2.322 -0.2221 -0.0377  0.0261
22020W        W39544  12.482  11.927  13.184  0.2012 -0.2236  0.1323
22021W        W39545  16.337   9.386   4.153 -0.2113 -0.0809 -0.0439
22022W        W39546  16.160  14.238  13.318 -0.2008 -0.0858 -0.0168
22023W        W39547  15.275   8.701  16.969  0.0159 -0.0858 -0.1672
22024W        W39548   9.515  13.143  13.782  0.0262 -0.0160  0.1196
22025W        W39549  15.220   9.259  13.394 -0.0143  0.1963 -0.0925
22026W        W39550   2.951  13.245  13.886 -0.0089 -0.3746 -0.1014
22027W        W39551   3.671  12.590   4.206  0.1428  0.0241 -0.0313
22028W        W39552  10.252   9.092  12.740  0.0086 -0.1446  0.1115
22029W        W39553  14.152  12.701   3.439  0.1535  0.2017  0.0906
22030W        W39554   6.504   7.886  17.541  0.1101 -0.1397  0.1946
22031W        W39555  16.486  11.141  11.965  0.0201 -0.0729 -0.0210
22032W        W39556  16.205   6.501   4.994 -0.0309  0.0589  0.2614
22033W        W39557   7.340  17.148   2.045 -0.1279  0.1996 -0.0016
22034W        W39558  11.261   7.076   0.323 -0.0504 -0.2074 -0.0349
22035W        W39559   6.935   5.042  16.493 -0.1397 -0.2336  0.0378
22036W        W39560  15.543   8.178   0.904 -0.0477 -0.2490  0.0045
22037W        W39561  17.230   5.223   1.180 -0.0760 -0.2437  0.0335
22038W        W39562   0.625   6.751   4.023 -0.0378  0.2919 -0.0204
22039W        W39563   5.438   9.572   3.717 -0.1443 -0.1623 -0.2775
22040W        W39564  12.433   9.644  12.799  0.0832  0.1105 -0.0426
22041W        W39565  11.770  14.070  13.880  0.0389 -0.2147  0.0435
22042W        W39566  15.381  12.397   3.778 -0.1694 -0.1131  0.1218
22043W        W39567  15.809  14.862  12.988 -0.1750 -0.0972 -0.1552
22044W        W39568  13.978   2.391  13.899  0.2680 -0.2568  0.1425
22045W        W39569  13.421   6.887   4.460 -0.1090 -0.1045  0.2354
22046W        W39570  10.748  11.001   4.178 -0.3305  0.0752  0.0006
22047W        W39571   0.585  15.686   2.860  0.1036  0.0539 -0.2526
22048W        W39572   4.590   7.085  13.637  0.0663 -0.1142  0.0379
22049W        W39573  16.516   9.840  15.472 -0.0512  0.2546 -0.2243
22050W        W39574   4.463  11.623  15.317 -0.1005  0.1680  0.0005
22051W        W39575  16.582  14.783   1.002 -0.2714 -0.1625 -0.1285
22052W        W39576   1.938  13.574  16.247  0.0789 -0.1074  0.0706
22053W        W39577  15.978   1.934  17.112  0.1910  0.4366 -0.1826
22054W        W39578   3.727   5.876   0.239 -0.0907 -0.3285  0.0398
22055W        W39579  10.749   9.958   2.071  0.1587  0.0282  0.0795
22056W        W39580  17.043  15.381  14.235  0.0561 -0.0788  0.0765
22057W        W39581   2.839   0.579  16.083  0.0352  0.1160 -0.0572
22058W        W39582   5.893   1.516  15.963 -0.0284  0.1420  0.0567
22059W        W39583   9.350   5.655   1.120  0.1078  0.0231  0.2575
22060W        W39584   7.779  12.858   0.810 -0.1182 -0.1010  0.1409
22061W        W39585  14.297  16.274   3.257 -0.0164 -0.1592 -0.0663
22062W        W39586   8.124  12.335  16.609 -0.2539 -0.2100 -0.2592
22063W        W39587  12.064   8.175  14.171 -0.1016 -0.0071 -0.5209
22064W        W39588  15.326   1.553   3.526 -0.0717 -0.0750  0.3757
22065W        W39589   8.863   8.666   3.207 -0.3219  0.2817 -0.1882
22066W        W39590  16.281   7.831  11.650  0.0206 -0.1635 -0.0955
22067W        W39591   1.843  11.589  12.492  0.1717  0.0784  0.1458
22068W        W39592   2.576  14.453   4.185  0.1127  0.1822 -0.4857
22069W        W39593   3.314   1.781   0.398  0.0112 -0.0029  0.0095
22070W        W39594   4.262   3.288  17.120 -0.2168 -0.1314  0.0731
22071W        W39595   2.233   8.829  14.276 -0.2019 -0.1801 -0.3435
22072W        W39596   7.290  16.295   2.428 -0.0213  0.2199 -0.1967
22073W        W39597  16.326   5.990  11.938  0.6084  0.0800 -0.1814
22074W        W39598   1.830   9.448  15.014 -0.2022 -0.0844  0.1055
22075W        W39599   2.376   9.605  13.974 -0.3121  0.0620 -0.0918
22076W        W39600  16.274   4.532  14.277 -0.2863  0.0421  0.2405
22077W        W39601  15.178   3.604   2.414  0.0555 -0.0386 -0.1988
22078W        W39602   3.428   9.558  16.980 -0.2004  0.0840 -0.0330
22079W        W39603   3.083   8.774  11.690  0.2025  0.0336  0.1609
22080W        W39604   4.176   7.144   3.477 -0.1154 -0.0197 -0.4375
22081W        W39605   1.579   7.575   0.612 -0.0591 -0.0900  0.2307
22082W        W39606   1.622  16.719   4.120 -0.3836 -0.1394  0.1622
22083W        W39607   3.916   5.880  12.981 -0.0554  0.3748 -0.2878
22084W        W39608  14.592   8.093  13.091 -0.0056  0.0975 -0.1663
22085W        W39609  14.889  16.638  16.897 -0.0330  0.1611  0.0399
22086W        W39610   4.678   6.385   1.169 -0.1712 -0.0033 -0.4870
22087W        W39611   1.287  13.083   0.936 -0.0408  0.4839 -0.0947
22088W        W39612  13.734  13.893  12.191  0.2341 -0.0460  0.1545
22089W        W39613   8.859   7.213  14.762 -0.0340  0.1619 -0.1035
22090W        W39614  14.663   7.630  16.195 -0.1218 -0.2260 -0.2525
22091W        W39615   5.175   0.170   0.381  0.1700 -0.2839 -0.0240
22092W        W39616  12.066   5.857   0.221  0.1915  0.2956  0.0722
22093W        W39617   1.986   3.359   0.123 -0.1713  0.0399 -0.1901
22094W        W39618  14.100  13.956   1.793  0.0936 -0.0727 -0.0006
22095W        W39619  11.636   7.694  14.897  0.3523 -0.2658  0.0078
22096W        W39620   3.467   4.385   1.818  0.0133  0.1675  0.1576
22097W        W39621  10.097   4.634  13.057 -0.1855  0.2063 -0.0659
22098W        W39622   2.407   3.882   1.276 -0.0063 -0.0613  0.2412
22099W        W39623  16.546  15.631  15.126 -0.1079  0.2195 -0.1286
22100W        W39624   5.847  15.670  15.863  0.0103 -0.1163  0.0112
22101W        W39625   2.876   7.928   5.199 -0.3123  0.0186  0.0839
22102W        W39626   4.244   3.222  12.736  0.3116 -0.0303 -0.3650
22103W        W39627  10.364   5.937  17.462  0.2196  0.0162  0.0050
22104W        W39628  11.920  11.618  14.656 -0.2201  0.0566 -0.3848
22105W        W39629   8.159   3.178   5.850 -0.0687  0.2574 -0.0202
22106W        W39630   4.537   7.332   5.898 -0.0054  0.1314  0.0167
22107W        W39631   0.925  16.570  16.753 -0.0516  0.2447 -0.0833
22108W        W39632   8.911   0.583  12.515  0.1804  0.2536 -0.1100
22109W        W39633   8.370   5.412   2.969 -0.2046  0.4229 -0.3302
22110W        W39634  12.683  11.652  12.225 -0.1085 -0.1636 -0.6159
22111W        W39635  13.196   3.476  14.395 -0.1083  0.2196 -0.3493
22112W        W39636   4.116  12.730   2.016 -0.0463  0.0753 -0.1712
22113W        W39637   6.874  16.133  16.373 -0.3878 -0.0290  0.1628
22114W        W39638  10.804  10.541  16.327  0.0870  0.1818 -0.1952
22115W        W39639   5.385   0.993   2.546 -0.0505  0.1614  0.3993
22116W        W39640   2.962  12.230  12.404  0.1936 -0.2505 -0.0337
22117W        W39641  14.299   7.416   1.699  0.1249  0.1162  0.1082
22118W        W39642   8.785   5.130  17.113  0.0290  0.2020  0.0680
22119W        W39643  15.940   0.508   5.946 -0.1606 -0.0335  0.1080
22120W        W39644   1.925  12.332   5.421 -0.4104  0.1565  0.0320
22121W        W39645  13.987   0.795  16.041  0.0589  0.0527  0.2318
22122W        W39646  13.942   4.598  13.307 -0.0402 -0.2666  0.0149
22123W        W39647  12.930   3.084  14.228  0.1381  0.1878  0.0103
22124W        W39648  14.225   6.443   4.296  0.1706 -0.0340  0.0338
22125W        W39649   6.739  10.543  16.838 -0.0817  0.1295  0.0280
22126W        W39650   5.305   3.789   4.793  0.0852 -0.0103  0.3317
22127W        W39651   8.006   7.520  13.398  0.2392 -0.1326  0.1184
22128W        W39652  14.366  16.385  16.935 -0.0767  0.3084  0.0202
22129W        W39653   9.373   5.163   4.173 -0.1129 -0.0626  0.0795
22130W        W39654  15.865   3.645  13.577 -0.1936  0.0163  0.1567
22131W        W39655   8.492   2.649  16.505 -0.0971  0.1264 -0.2096
22132W        W39656   5.712   5.731   5.524  0.1405  0.0190  0.1984
22133W        W39657  12.430  15.684  12.651 -0.0183 -0.0643 -0.0360
22134W        W39658   7.922   3.304   2.158 -0.0224  0.2282  0.1082
22135W        W39659   9.326  15.799  13.662  0.2344  0.2667  0.0905
22136W        W39660   5.876   7.644  16.327 -0.0862  0.2393  0.1739
22137W        W39661  16.460   1.401  15.619  0.2508  0.1036 -0.0980
22138W        W39662  17.148   9.385  15.085  0.0430 -0.0320 -0.0211
22139W        W39663  12.883   8.099   4.395  0.3794 -0.0705 -0.2975
22140W        W39664  15.325   6.086  15.622 -0.0789  0.0050  0.2253
22141W        W39665  14.607   9.492  12.013 -0.0863 -0.0937  0.1375
22142W        W39666  15.749   0.828   2.012 -0.2494  0.1169  0.1056
22143W        W39667   0.524   8.875  14.861  0.0430 -0.0613 -0.4461
22144W        W39668  10.978  11.321   0.319  0.3726 -0.3328  0.0928
22145W        W39669   7.573   1.752  15.463  0.2480  0.0687 -0.0198
22146W        W39670   9.366  11.069  13.289 -0.1563 -0.0005 -0.0696
22147W        W39671  11.596  13.009   1.204  0.1320  0.0023  0.0556
22148W        W39672   3.303  11.142  14.561 -0.0876  0.2114 -0.0241
22149W        W39673  13.650  12.217   1.927  0.1592  0.0625 -0.2924
22150W        W39674   9.611   1.098  17.399 -0.0060  0.2801  0.1720
22151W        W39675   5.009   9.097  14.107  0.1906 -0.0722 -0.0675
22152W        W39676   6.989  15.848   3.326 -0.2059 -0.1743 -0.1399
22153W        W39677  15.468  12.164   1.666  0.3285 -0.3163  0.1815
22154W        W39678   9.758   6.184   3.185  0.0110  0.1013 -0.2718
22155W        W39679   3.156  12.358  15.031  0.2297  0.0700  0.0559
22156W        W39680   1.216  13.354  15.786 -0.0037  0.2386 -0.1873
22157W        W39681  14.322   9.663  17.051  0.2153 -0.1379  0.0549
22158W        W39682   4.141   6.644   3.482  0.0296 -0.3940  0.0357
22159W        W39683  11.985   2.374   4.553  0.0475  0.1146 -0.0256
22160W        W39684  11.380   9.130  12.207 -0.0246  0.1198  0.0634
22161W        W39685  15.563   4.008   1.459 -0.3128  0.1091 -0.1450
22162W        W39686   2.233   8.817   4.702 -0.2421 -0.1114  0.0317
22163W        W39687   9.412  15.166   3.864 -0.2170  0.0742  0.1346
22164W        W39688   3.627   1.631  14.440  0.1133 -0.0851  0.2870
22165W        W39689   6.021   6.188   1.416 -0.1325  0.0144  0.0761
22166W        W39690  11.830   5.530   4.590  0.0309 -0.0153  0.1103
22167W        W39691   0.540   6.931   4.737 -0.1486  0.1016 -0.1610
22168W        W39692   5.820   9.453  14.426 -0.2781  0.2754 -0.2604
22169W        W39693  10.956   9.030   2.324 -0.0685 -0.1141  0.0726
22170W        W39694  14.274   6.319   2.207  0.0513 -0.0696 -0.3079
22171W        W39695  11.569   0.623   6.070  0.0816  0.1398 -0.3248
22172W        W39696   5.109  13.610  14.193 -0.2133 -0.2291 -0.2100
22173W        W39697   1.911   5.629   1.041  0.2359 -0.0393 -0.2107
22174W        W39698   8.717   2.083  15.443  0.0192 -0.0015  0.2770
22175W        W39699   2.942   2.449   2.624 -0.1653  0.2107 -0.3161
22176W        W39700   8.903  12.678  14.078 -0.0389 -0.3110 -0.4943
22177W        W39701   6.317   2.748   3.892 -0.1835  0.2075 -0.1431
22178W        W39702   2.773   9.680   2.500  0.1394 -0.2207  0.0223
22179W        W39703  14.407   4.452  16.398  0.1560 -0.1583 -0.4152
22180W        W39704   8.511  12.503   4.001  0.0195 -0.4389  0.1748
22181W        W39705  10.794   1.500  13.944 -0.0674  0.0376  0.0709
22182W        W39706  17.173   5.123   3.959  0.0585  0.0565 -0.1110
22183W        W39707   3.926  14.736   0.910  0.1991  0.0421  0.0930
22184W        W39708   6.214   5.188  16.606 -0.0499 -0.0782  0.2436
22185W        W39709   1.742  12.846  12.824 -0.0641 -0.3256  0.0151
22186W        W39710   0.534   9.573  16.157 -0.0827  0.1128  0.0854
22187W        W39711   4.605  15.097   5.233 -0.0540  0.0204 -0.0989
22188W        W39712   2.046  12.519   1.237  0.4764  0.0727  0.0324
22189W        W39713  10.969   5.065   1.518  0.2892 -0.3341  0.3677
22190W        W39714   2.098   2.615   5.233 -0.0568 -0.0848 -0.1863
22191W        W39715   8.070   1.304   3.324 -0.0021 -0.1981 -0.1063
22192W        W39716   0.399   1.853  12.729 -0.0432  0.0738  0.0557
22193W        W39717  12.739  14.558  13.079 -0.1133  0.0357  0.0718
22194W        W39718  13.693  11.551   0.067  0.3834 -0.0341 -0.1527
22195W        W39719   4.388   3.103   4.911  0.0854  0.2422 -0.0182
22196W        W39720  10.162   7.745  15.900  0.0496 -0.0450 -0.0630
22197W        W39721   8.735  11.284   3.777  0.0935  0.2001  0.2970
22198W        W39722  15.852   3.353   0.905 -0.0133  0.0826  0.3079
22199W        W39723   8.531  12.981  17.425  0.0886 -0.0321  0.0246
22200W        W39724   9.593   3.392  12.715  0.3132 -0.0023 -0.1241
22201W        W39725  11.698   8.646  14.041  0.0505 -0.0302  0.0508
22202W        W39726   2.667   8.691  13.593 -0.2366 -0.0949 -0.3285
22203W        W39727  11.689  16.607   1.649  0.0536 -0.0439 -0.0626
22204W        W39728  10.551   2.725  15.958  0.0753 -0.0148  0.2531
22205W        W39729  16.786  14.136  11.995  0.0634  0.4865  0.1669
22206W        W39730  10.421   0.909  13.304  0.3483  0.1108  0.0880
22207W        W39731  12.287   2.811   0.059  0.0456 -0.1915  0.3045
22208W        W39732  15.681   2.548   1.861  0.0568 -0.0712  0.0194
22209W        W39733  13.766   4.405  14.728 -0.0441  0.1216  0.0855
22210W        W39734   2.544  13.945  15.263  0.0938 -0.0925  0.2710
22211W        W39735   8.616  15.627  14.451  0.1054 -0.0206 -0.3553
22212W        W39736  15.576  15.689  14.293  0.1382  0.2326  0.1246
22213W        W39737  13.367   5.972  17.304 -0.1960  0.1838  0.2402
22214W        W39738   7.866   8.028  13.140  0.3752 -0.2475 -0.0286
22215W        W39739   5.714  15.216   3.374 -0.2137 -0.0104  0.1498
22216W        W39740   8.700   5.293  13.455  0.1825 -0.1117 -0.3956
22217W        W39741   4.792  13.087   2.071 -0.2679  0.2188  0.1707
22218W        W39742   3.948   6.368  14.982  0.0723  0.0925  0.2311
22219W        W39743  13.547   4.594   1.098  0.1390 -0.2006 -0.2706
22220W        W39744  16.789   0.031  15.891  0.1579  0.0454 -0.0543
22221W        W39745   9.289  10.043   3.852  0.0606 -0.1526  0.0787
22222W        W39746  12.387  12.243  16.215 -0.2278 -0.2184 -0.0731
22223W        W39747   8.802   1.140   0.709  0.1081  0.1086  0.4057
22224W        W39748   9.700  13.646  13.031 -0.1770 -0.2435 -0.1985
22225W        W39749  10.839  16.227   1.475 -0.1111  0.0929 -0.3073
22226W        W39750   6.011   0.528   5.010  0.0436 -0.1236 -0.0867
22227W        W39751   2.874   2.183   4.214  0.1444 -0.1304  0.3237
22228W        W39752   7.581   7.424  17.090 -0.0678  0.2702  0.2221
22229W        W39753  11.078  13.222   4.027  0.3660  0.0530 -0.0623
22230W        W39754   9.603  13.561   2.752 -0.1271  0.0311  0.0144
22231W        W39755   0.217   6.135   4.550  0.0972 -0.0075  0.3503
22232W        W39756  11.855   5.885   1.184  0.1936  0.0679  0.2103
22233W        W39757   7.267  11.259   2.097  0.0774 -0.0194  0.3722
22234W        W39758  11.706   8.718   1.870  0.1825 -0.0680 -0.2231
22235W        W39759   8.762  14.480  15.920  0.0928 -0.0996 -0.3618
22236W        W39760   1.169  12.719   5.548 -0.0677  0.0967 -0.1272
22237W        W39761   8.093   0.622   1.289  0.2405 -0.3173  0.2338
22238W        W39762   0.982  15.724   3.316  0.3284  0.2069 -0.5105
22239W        W39763   6.632   2.399   3.812 -0.2806 -0.0489  0.0789
22240W        W39764  12.369  11.497  15.031 -0.1283 -0.2127  0.1799
22241W        W39765   1.511   0.111  15.530  0.0462 -0.1115  0.1278
22242W        W39766   0.304   8.470   5.057  0.1058  0.0842  0.1587
22243W        W39767   4.336   0.236   0.491  0.1497  0.0354 -0.4092
22244W        W39768  12.329  11.808  14.315  0.1968 -0.0209  0.0614
22245W        W39769   0.921  10.828  16.772 -0.0700  0.2710 -0.0172
22246W        W39770   4.421   4.090  17.186 -0.0713  0.3435 -0.0601
22247W        W39771   3.931  12.947  13.284 -0.1022 -0.0181  0.2211
22248W        W39772  11.149   9.633   3.488 -0.1987 -0.1638  0.0882
22249W        W39773  11.054   9.605   4.540  0.0653  0.2359  0.2440
22250W        W39774  15.734  12.239  11.840  0.1247  0.4776 -0.1439
22251W        W39775   6.014  14.537   5.687  0.1976 -0.1582 -0.1484
22252W        W39776   1.389   2.054  14.032 -0.1008  0.1913 -0.1131
22253W        W39777   2.620  13.235  16.916  0.0422  0.3691 -0.1001
22254W        W39778  15.091   6.370   1.491  0.0727 -0.3382 -0.1042
22255W        W39779   8.369  14.293   5.057  0.3948  0.3042 -0.0827
22256W        W39780   4.858   5.229  16.878  0.1410  0.3442 -0.0098
22257W        W39781   3.258  15.454   0.079  0.0430  0.1323  0.0945
22258W        W39782  15.769  10.915  14.163 -0.2924  0.0205  0.2163
22259W        W39783   2.870  15.483  17.315  0.0435 -0.0425  0.2949
22260W        W39784  11.075  17.062   2.103  0.3756  0.1050  0.1153
22261W        W39785   1.898   0.734  16.359  0.3630  0.0235 -0.1691
22262W        W39786  13.631  15.031  16.032 -0.1650  0.1168 -0.0826
22263W        W39787  11.161   4.433  13.190  0.1854 -0.0986 -0.3373
22264W        W39788   9.205   9.074  17.058 -0.1359  0.1452 -0.0464
22265W        W39789   2.366   6.752   1.533  0.0245 -0.1961 -0.0821
22266W        W39790  10.824   1.531   1.312  0.1371 -0.3977 -0.0594
22267W        W39791   3.295   7.779   0.982  0.1417  0.0624 -0.1586
22268W        W39792   1.407   6.714  16.763  0.0946 -0.6011  0.0922
22269W        W39793  14.001   7.801  12.543 -0.1909 -0.1096 -0.0540
22270W        W39794  14.578  11.307  16.655 -0.0144 -0.3532  0.2844
22271W        W39795   7.620  14.010  17.067  0.1002 -0.1909 -0.2920
22272W        W39796  12.931  11.682   0.868 -0.1065 -0.2445  0.2371
22273W        W39797  16.421  12.473  17.019  0.3799 -0.0094  0.3052
22274W        W39798   4.756   5.499   1.423  0.2430  0.0204  0.2220
22275W        W39799   5.910  14.357   0.298 -0.0515  0.2424  0.0315
22276W        W39800   7.260   4.841  15.672  0.2637  0.0315  0.1119
22277W        W39801   8.496   8.248   4.685  0.0393 -0.2300  0.2717
22278W        W39802   1.221   4.878  12.693  0.0601  0.3682  0.2473
22279W        W39803   2.491  13.044  13.848  0.0261 -0.1331  0.1412
22280W        W39804   7.371   0.967   0.093  0.0177 -0.2458 -0.2139
22281W        W39805   2.062  13.958  13.680  0.2736 -0.0481  0.1934
22282W        W39806   3.622  11.827  17.482  0.1581  0.0427  0.1574
22283W        W39807   6.657   2.263  14.469  0.0426 -0.0307  0.1108
22284W        W39808  15.719  16.902  17.380 -0.1192  0.3668  0.2186
22285W        W39809  15.117  15.955   4.958 -0.1434 -0.0617  0.0563
22286W        W39810   2.732   6.475   1.803  0.1741 -0.0109  0.1319
22287W        W39811  10.187  16.593  15.631  0.0239  0.1938  0.1558
22288W        W39812   6.244  15.379  12.663  0.1863  0.4509 -0.0621
22289W        W39813  15.773   2.371   5.394  0.1306  0.2957 -0.1531
22290W        W39814   7.343  14.491   5.327  0.1627  0.1596 -0.0456
22291W        W39815   9.659   8.627  14.580 -0.0365 -0.0270 -0.2425
22292W        W39816  15.680   8.038   3.277  0.1941 -0.1122 -0.0245
22293W        W39817  16.112   9.256   3.733 -0.1315 -0.0640 -0.1408
22294W        W39818   7.896  14.821   1.617  0.0176  0.2493  0.0398
22295W        W39819   5.512  13.087   5.167  0.1669 -0.0869  0.0655
22296W        W39820  14.583   7.376   1.277 -0.1703  0.0674 -0.1052
22297W        W39821   9.790   4.253   4.526  0.1041  0.0636 -0.0069
22298W        W39822  14.254   3.941  16.365  0.1970 -0.0361  0.2294
22299W        W39823   0.938   2.025   6.092 -0.0642  0.2657  0.2765
22300W        W39824   3.908  12.629   1.486  0.0126 -0.3890 -0.0085
22301W        W39825  16.065  13.668  13.668 -0.1458 -0.1619  0.1646
22302W        W39826  11.492  10.507   3.617  0.2071 -0.1866 -0.0426
22303W        W39827   7.889   6.425  15.905 -0.0061  0.3520 -0.2762
22304W        W39828   7.258   5.510  12.991 -0.1565 -0.1402  0.2407
22305W        W39829  14.499   2.972  17.455 -0.0101  0.1418  0.2777
22306W        W39830   1.430   5.712  11.850 -0.1609  0.0981 -0.0248
22307W        W39831   1.698   7.741   1.836  0.3071  0.2611 -0.0080
22308W        W39832   3.198   8.751  15.430  0.5244  0.2846  0.2823
22309W        W39833  13.637  16.809  13.051 -0.1676  0.0866 -0.0051
22310W        W39834   1.627  16.465  13.748 -0.2120 -0.1205  0.2854
22311W        W39835   5.213  10.892   3.694 -0.0133  0.0018  0.0359
22312W        W39836  13.812   8.683  14.482 -0.0560  0.1476  0.0087
22313W        W39837   8.028   2.694   4.545  0.2280  0.1362  0.1815
22314W        W39838   6.412   6.758   1.492 -0.4746 -0.2412 -0.2368
22315W        W39839  13.555   5.547   3.554  0.0016 -0.2958 -0.0093
22316W        W39840   2.802   2.829   1.331 -0.1374 -0.2135  0.3614
22317W        W39841   8.064   9.456  15.621  0.0011  0.0743  0.1293
22318W        W39842  16.922  13.281   0.715  0.1925 -0.1338 -0.1330
22319W        W39843  11.587   7.587  11.081 -0.1612 -0.0218  0.3826
22320W        W39844  14.178   5.811  15.321 -0.0576 -0.0714  0.2264
22321W        W39845  17.018  10.249   1.697  0.1227 -0.1582  0.1343
22322W        W39846   6.160  11.743  12.681  0.1600  0.0658 -0.0135
22323W        W39847  12.893   3.653   4.703 -0.3125  0.0943 -0.0558
22324W        W39848   7.432   4.174   5.905 -0.0031  0.1966 -0.0463
22325W        W39849   2.410   6.163   2.696 -0.1115 -0.1446  0.0027
22326W        W39850  10.016   4.870   5.757  0.3189  0.0130  0.0152
22327W        W39851  16.309   2.974   0.285 -0.1141  0.2182 -0.0516
22328W        W39852  17.000   5.652   2.397  0.0901  0.2638 -0.1379
22329W        W39853   1.496   0.896   0.478  0.1350  0.3150  0.4119
22330W        W39854  10.315  10.932  11.964  0.1186  0.1047  0.0535
22331W        W39855   3.993   3.529   4.971 -0.0822 -0.1520 -0.2912
22332W        W39856   8.267  10.601  13.482  0.0991  0.0096 -0.1216
22333W        W39857  10.578   5.403  13.171  0.0731  0.0318  0.1367
22334W        W39858  13.766  13.927   4.104  0.0321  0.0323 -0.0289
22335W        W39859  13.190  14.608  12.287  0.1681  0.1644  0.0456
22336W        W39860   0.959   4.725   1.506 -0.2636 -0.1384  0.1448
22337W        W39861   8.197   5.692  16.538 -0.0053 -0.1128  0.0214
22338W        W39862   2.959  13.182  17.333 -0.0020  0.2706  0.1898
22339W        W39863  12.535  16.764  17.003  0.0128  0.0898  0.0650
22340W        W39864  12.824  11.103   4.006 -0.0483  0.2155  0.0762
22341W        W39865  14.282  14.125  14.615  0.1442 -0.0933 -0.0585
22342W        W39866  13.722   1.907   4.832 -0.0232  0.3062  0.0130
22343W        W39867   7.513  12.167  14.035  0.0490  0.1529  0.2376
22344W        W39868  13.939   3.742  16.733 -0.0537  0.2432  0.0784
22345W        W39869  13.453  10.794   3.021  0.2884  0.1144 -0.0315
22346W        W39870   1.496  12.956  17.023 -0.2096 -0.2169 -0.0345
22347W        W39871   8.664  12.863  16.566 -0.1777  0.0905  0.2291
22348W        W39872   7.318  15.641  15.509  0.0971  0.3202 -0.2956
22349W        W39873   6.273  13.342   2.520 -0.1283 -0.2734 -0.0882
22350W        W39874  16.402  13.679   0.712 -0.0206  0.1991 -0.0070
22351W        W39875  12.327  12.381  15.007  0.4181  0.0444 -0.1247
22352W        W39876  10.908  16.011   2.014 -0.1563 -0.0595  0.1225
22353W        W39877   6.191  12.315   0.736  0.0393  0.1000 -0.1328
22354W        W39878   4.434   7.142   2.492 -0.0012  0.3336  0.0829
22355W        W39879   7.540  10.392  15.261  0.1096  0.0851 -0.0455
22356W        W39880   8.434  14.026   1.520  0.1753  0.0327  0.1712
22357W        W39881   8.057   9.820  14.517 -0.0669  0.0866  0.2355
22358W        W39882   7.520  12.948  17.192 -0.3590 -0.2725  0.0746
22359W        W39883  15.804   8.519   0.054 -0.1645  0.3866 -0.2096
22360W        W39884   0.188   4.477  17.172  0.0562 -0.0267  0.0718
22361W        W39885   3.266  10.814   5.355 -0.0416  0.1531 -0.1192
22362W        W39886   3.213  14.266   2.757  0.0009 -0.0060  0.3706
22363W        W39887   9.196   3.584  13.485  0.0115  0.1668 -0.2353
22364W        W39888  12.345  11.904  15.316 -0.1301 -0.1473  0.2710
22365W        W39889  14.327   7.926   1.747 -0.0850 -0.0479  0.0434
22366W        W39890   5.693   8.307   3.755  0.0049 -0.0887  0.1783
22367W        W39891   1.464   9.482  14.628  0.1166 -0.1612  0.0688
22368W        W39892   3.821   9.306  17.143  0.0766  0.0526  0.1408
22369W        W39893  14.113   2.036  14.309 -0.1842 -0.0777  0.2057
22370W        W39894   3.613   3.671   2.060  0.1942  0.0907 -0.2802
22371W        W39895  11.232   1.647  12.971  0.0763 -0.1825  0.0436
22372W        W39896   3.046   0.542   5.832 -0.3551  0.1516 -0.0203
22373W        W39897   2.534  13.153   1.683 -0.0220 -0.2061 -0.1902
22374W        W39898  13.052  12.394  11.208  0.5042 -0.2473  0.2672
22375W        W39899   3.745  16.405   3.593  0.1509 -0.4039 -0.0147
22376W        W39900  15.868   8.888  16.513  0.0685  0.0053  0.0724
22377W        W39901   9.732  16.886  16.351 -0.1643  0.1089  0.0612
22378W        W39902  17.065  10.089   3.937  0.0970 -0.2780 -0.1756
22379W        W39903   6.220  11.674   4.424 -0.2524 -0.3488  0.0925
22380W        W39904   6.120   2.299   0.776  0.1312 -0.1107  0.1577
22381W        W39905   7.242   6.988   2.520  0.0720  0.1113  0.1263
22382W        W39906  13.709   9.746  17.043 -0.0306  0.2686 -0.1688
22383W        W39907  14.028  15.509   2.000  0.0009  0.1758 -0.2968
22384W        W39908  15.268  17.101   0.614 -0.0087 -0.1728  0.1106
22385W        W39909   2.422  16.700  12.693  0.0376  0.0324  0.4617
22386W        W39910   2.187  17.237   3.834  0.0468 -0.0433 -0.0074
22387W        W39911  11.802  17.010  12.721  0.0917  0.1231 -0.0693
22388W        W39912  13.608   1.796   0.915 -0.1524  0.0381 -0.0680
22389W        W39913  15.969   5.269  16.776  0.2578 -0.0456  0.0594
22390W        W39914  14.577   8.444   0.630 -0.1853 -0.1047 -0.0235
22391W        W39915   5.429   9.372   6.176 -0.1217 -0.0715  0.0438
22392W        W39916   4.927   1.034  12.801  0.1197  0.3118 -0.3239
22393W        W39917  11.420  11.921   3.016  0.0335 -0.1359 -0.0421
22394W        W39918   9.028   7.860   2.276  0.1703  0.1718  0.0215
22395W        W39919  12.531   7.669  16.777 -0.2075 -0.2110  0.2066
22396W        W39920  13.988  12.862  16.589 -0.3301  0.2407  0.2382
22397W        W39921   1.362   1.594  12.934 -0.1377  0.0094  0.0076
22398W        W39922  14.759  10.924  14.926  0.2842  0.2285 -0.0149
22399W        W39923  12.447  14.895  15.806 -0.0917  0.0129  0.0196
22400W        W39924   6.642   1.170  14.056  0.0872 -0.1820  0.0953
22401W        W39925  10.408   2.055  15.882  0.0570 -0.1865 -0.0313
22402W        W39926  11.295   5.161   0.391 -0.0430 -0.0379  0.0643
22403W        W39927  10.023  15.582  14.127 -0.0159  0.0682  0.0979
22404W        W39928   5.975  15.847   2.799 -0.1725 -0.1318 -0.0407
22405W        W39929   7.746  15.504  17.089 -0.3108  0.1883 -0.0057
22406W        W39930   8.015  16.924   1.420  0.1810  0.4600  0.1067
22407W        W39931  14.454   2.894   4.268 -0.0199 -0.0762 -0.2435
22408W        W39932  12.620   5.287  14.733  0.1125 -0.2525 -0.1770
22409W        W39933  11.513   1.123   2.458 -0.1811 -0.1157  0.3388
22410W        W39934   9.669   8.469   3.258  0.1768 -0.0429 -0.1557
22411W        W39935  14.264  15.583   1.531 -0.0625 -0.0273  0.2465
22412W        W39936   3.301   4.644   4.059  0.1458  0.0613 -0.2705
22413W        W39937   8.596  15.677   4.686  0.0821 -0.2766 -0.0669
22414W        W39938  10.829  11.261  15.756  0.0125 -0.1110 -0.2527
22415W        W39939  16.108   3.547   3.156 -0.1251  0.2016 -0.5686
22416W        W39940   5.851   2.957   3.901 -0.1710  0.0177  0.2673
22417W        W39941  16.988   5.477   3.354 -0.3059 -0.1360 -0.3246
22418W        W39942   3.528  13.088  17.080 -0.4318 -0.0379  0.0933
22419W        W39943  12.878   6.257   0.419  0.1694  0.1225  0.1796
22420W        W39944   4.005  16.542   0.114  0.1455  0.2250  0.3469
22421W        W39945  10.161   5.290   2.063  0.0681  0.1475  0.0440
22422W        W39946   6.457   3.544  15.869  0.0783 -0.0002 -0.0741
22423W        W39947   3.148  16.621  15.213  0.0525 -0.1732  0.2718
22424W        W39948  12.940   8.339  17.302 -0.1179 -0.0138 -0.5084
22425W        W39949  15.428   1.311   4.406 -0.0377 -0.2099  0.0582
22426W        W39950   7.480  16.709   4.782  0.3870  0.0165  0.1007
22427W        W39951   1.697  14.675   4.265  0.3081  0.1059 -0.0162
22428W        W39952  13.958   9.518  16.574  0.0215  0.2345 -0.0266
22429W        W39953   2.670   3.804   0.803 -0.3290  0.3174  0.0404
22430W        W39954  16.258  15.526  13.553 -0.0234  0.3482 -0.1996
22431W        W39955  16.956  16.555  16.218  0.1098  0.2175  0.0233
22432W        W39956   6.604  10.643   4.025  0.0415  0.2379 -0.1082
22433W        W39957  17.219  16.399  13.353 -0.1536  0.0974 -0.2726
22434W        W39958   0.635   0.624   2.829 -0.1081 -0.0326  0.0865
22435W        W39959  16.112  11.003   0.714  0.0856  0.1876 -0.0023
22436W        W39960  15.272  11.237   0.955 -0.0425  0.1524 -0.0139
22437W        W39961  16.695   6.805  13.334 -0.1243 -0.0375 -0.0145
22438W        W39962   5.688   4.092   3.102 -0.1775 -0.1289  0.1890
22439W        W39963  13.603   8.663   3.405 -0.1692 -0.1550 -0.0572
22440W        W39964   1.799   7.561   5.160  0.1388 -0.0420  0.1097
22441W        W39965   5.818  13.265   3.561 -0.1815 -0.1047 -0.0634
22442W        W39966  14.095   3.898   3.967 -0.1081 -0.0304  0.2380
22443W        W39967  14.496   6.280   3.696  0.0113  0.0897 -0.2887
22444W        W39968  15.033   7.047  15.408 -0.1454 -0.0316  0.0862
22445W        W39969   1.251   6.091   3.572  0.0647  0.1452 -0.2169
22446W        W39970   0.282  16.380   6.125 -0.0474  0.2256  0.0042
22447W        W39971  10.091   7.075  14.690 -0.0199 -0.1534  0.0578
22448W        W39972   7.887   2.071   5.106  0.1094  0.1867 -0.2160
22449W        W39973   0.548   0.284   5.319 -0.3267  0.0373 -0.1813
22450W        W39974  10.947  14.513  12.409  0.0304  0.0565 -0.1009
22451W        W39975   0.689   5.493   0.848 -0.1174 -0.0198  0.0093
22452W        W39976   2.107   9.128  17.349 -0.1596 -0.0789 -0.2057
22453W        W39977   5.200  10.955  16.118 -0.1035  0.0650  0.3063
22454W        W39978   0.620   4.564   3.859  0.0010  0.1395  0.1365
22455W        W39979   4.159  17.226   1.237 -0.1374  0.1456 -0.1489
22456W        W39980   4.637  14.660   4.806 -0.2491 -0.1387 -0.0379
22457W        W39981   9.879   0.222   5.553 -0.0711  0.1630 -0.2310
22458W        W39982   3.084   1.538   2.697  0.1138 -0.1013 -0.4261
22459W        W39983   5.438   3.277  16.643 -0.0150  0.0660 -0.1085
22460W        W39984   8.504   7.802  15.488 -0.0238  0.0621 -0.1165
22461W        W39985   5.877   7.117   4.886  0.1974  0.0373 -0.0854
22462W        W39986  13.825   1.444  12.829 -0.1118 -0.0255  0.2442
22463W        W39987  11.693   2.711  14.129  0.2738  0.0367 -0.0605
22464W        W39988   5.709   4.220  14.668 -0.0196 -0.1048 -0.1400
22465W        W39989   1.614   2.327   4.145 -0.1756  0.2309 -0.1443
22466W        W39990  14.443   6.971   2.613 -0.1831  0.0284 -0.0418
22467W        W39991   7.769   7.424   4.010  0.0547  0.0508  0.0098
22468W        W39992  15.617  10.229   5.010 -0.0994  0.1589 -0.1083
22469W        W39993   6.996  11.955   1.422  0.0946 -0.0518  0.1947
22470W        W39994   0.118   6.456   2.755 -0.0016  0.2206 -0.2657
22471W        W39995   5.308   8.367  13.434  0.2292  0.1276 -0.1195
22472W        W39996  10.022   4.151   0.153  0.0505 -0.3059  0.3018
22473W        W39997  17.154   9.355  16.082 -0.0481  0.0539  0.2503
22474W        W39998  12.243  10.675   0.054 -0.0383 -0.0071 -0.0176
22475W        W39999   4.973  15.181   3.358 -0.1125 -0.2703  0.1906
22476W        W40000  10.385   7.256  16.103 -0.3373 -0.0827  0.0637
22477W        W40001  10.634  14.374  17.188  0.0224 -0.3217  0.1396
22478W        W40002   7.697  11.527   4.603 -0.1684 -0.0130 -0.3064
22479W        W40003  12.266  13.874  13.177 -0.1925 -0.1015  0.0616
22480W        W40004   6.636  10.532  13.729  0.0622  0.0439 -0.1304
22481W        W40005   6.695   6.493   2.723 -0.0703  0.2635  0.0752
22482W        W40006   2.080   6.967   4.384 -0.1090  0.3217  0.2853
22483W        W40007  15.986   6.796   2.821 -0.3626 -0.0165  0.1504
22484W        W40008  10.188   0.122  16.996 -0.1216  0.1384  0.2620
22485W        W40009  12.374  15.000   0.870 -0.0353  0.2547 -0.0793
22486W        W40010   4.740   6.369   3.729  0.1339 -0.0012 -0.1712
22487W        W40011  17.182   5.994   3.265  0.2835  0.1320  0.0637
22488W        W40012   7.661   1.683  14.587  0.1742  0.0231  0.0680
22489W        W40013   9.369  13.829   1.403 -0.1080 -0.0341 -0.4273
22490W        W40014  17.009   1.258  15.505  0.2322  0.3477 -0.2432
22491W        W40015   2.657   9.318  13.096 -0.0316 -0.1861  0.0630
22492W        W40016   9.077   4.705  15.639 -0.0010  0.1518  0.1284
22493W        W40017  16.806   0.101   5.196  0.2547  0.1859  0.0108
22494W        W40018   5.287   3.932  14.303  0.0586  0.0601 -0.1542
22495W        W40019   9.810  15.396  15.301  0.1459  0.0557 -0.0309
22496W        W40020  14.690   3.272  15.012  0.2448  0.1694  0.2668
22497W        W40021  14.712  13.939  16.363  0.0408 -0.0069 -0.0797
22498W        W40022  13.547   4.587   2.093 -0.1615 -0.1260  0.0060
22499W        W40023  15.769   4.546   0.185  0.2736 -0.2884  0.1207
22500W        W40024   6.892   9.483   3.766  0.0193  0.5577  0.1603
22501W        W40025   0.860  15.511   3.748  0.4028  0.2809  0.2137
22502W        W40026   8.181   6.071  16.183 -0.2458 -0.0826 -0.2844
22503W        W40027   2.032  16.261   0.145 -0.0233  0.0961 -0.1603
22504W        W40028   7.335  15.362   5.010  0.2756 -0.1168 -0.0127
22505W        W40029   3.233   2.488  17.654  0.2155  0.0365  0.2144
22506W        W40030   8.417   9.418   2.258 -0.2101  0.1840 -0.0039
22507W        W40031  15.546   7.595  13.241  0.3617 -0.1030 -0.0453
22508W        W40032  10.571   6.751  17.268 -0.0522  0.2122 -0.2078
22509W        W40033  15.032   2.677   4.070 -0.1768  0.3647  0.0545
22510W        W40034   8.383  10.317   1.632 -0.1020 -0.1486 -0.0727
22511W        W40035  15.597   6.197   1.417  0.2533  0.1650  0.0086
22512W        W40036  13.938   4.986  12.545  0.0691  0.0287  0.2177
22513W        W40037   1.732   1.814  16.846  0.4516  0.2266  0.0452
22514W        W40038   1.599   3.982   4.295 -0.1435  0.0369  0.0350
22515W        W40039   3.046  11.073   3.331 -0.0785 -0.2620 -0.1922
22516W        W40040   9.785   6.244   4.789  0.2167 -0.0247 -0.4628
22517W        W40041   5.917   9.782   5.476  0.0468 -0.0032 -0.1243
22518W        W40042   6.962   7.016  12.552 -0.1390 -0.0142  0.3809
22519W        W40043   7.374  13.254   4.442  0.0262  0.2823 -0.2991
22520W        W40044   6.535   9.263   2.454  0.1568  0.1850 -0.2894
22521W        W40045   1.743  11.812  13.680 -0.0213 -0.1460  0.1198
22522W        W40046   9.940   0.866   3.895 -0.1231  0.1159  0.0069
22523W        W40047   2.795  15.298  16.837  0.1983 -0.2499  0.2014
22524W        W40048  10.771   0.095  13.357  0.0689 -0.0423 -0.0948
22525W        W40049   6.100  11.745   2.410 -0.1427  0.0580  0.0967
22526W        W40050  15.168  15.903   4.484  0.1218 -0.1262 -0.0543
22527W        W40051   6.356  13.551   6.249  0.1801  0.1931 -0.0144
22528W        W40052  16.087  17.181   4.238 -0.1543 -0.0752 -0.3129
22529W        W40053  11.765   3.533   0.928 -0.0632 -0.1511  0.1462
22530W        W40054  11.724  15.075   5.295 -0.0371  0.1773  0.1049
22531W        W40055  13.688  10.455  13.191 -0.1043  0.0768  0.0176
22532W        W40056  15.368  11.086   4.319 -0.0646 -0.0655 -0.2926
22533W        W40057   0.170   9.721   3.151 -0.2067  0.1084 -0.2766
22534W        W40058   8.561  11.831  16.968  0.0504  0.1062  0.1092
22535W        W40059  15.022   5.003  14.182  0.0378  0.1896 -0.2626
22536W        W40060   4.068  12.756   0.658 -0.0381  0.0085  0.0246
22537W        W40061  16.480   2.054  14.127 -0.2037  0.0765  0.1088
22538W        W40062  10.207  11.707  17.426  0.0509  0.0708  0.3433
22539W        W40063   1.840   6.505   4.594 -0.1420 -0.0708  0.0494
22540W        W40064   0.839   9.093  16.786 -0.2308  0.1547  0.0949
22541W        W40065   6.249  15.931   4.680 -0.0643  0.2303 -0.2223
22542W        W40066  10.667   5.683  15.190  0.1069 -0.1368  0.1082
22543W        W40067  17.049   5.650   5.749 -0.1668 -0.2138 -0.3126
22544W        W40068  11.541   2.893   0.299 -0.0896  0.1208  0.0339
22545W        W40069   1.305   3.052  14.019 -0.2737 -0.1519 -0.2180
22546W        W40070   1.817  12.670   2.878  0.2166 -0.1594 -0.0675
22547W        W40071   6.610  15.634  15.315  0.0293 -0.0750  0.2265
22548W        W40072  16.364   3.806  15.968  0.2226 -0.3838 -0.0108
22549W        W40073   7.931   0.057   4.309 -0.1088 -0.1382  0.1981
22550W        W40074  10.821   4.513  15.576 -0.2786  0.1277  0.0820
22551W        W40075   2.535  12.669   1.439 -0.4133 -0.2732  0.1319
22552W        W40076   9.447  17.229   1.091 -0.1789 -0.0305  0.2928
22553W        W40077   9.856   7.333  13.659 -0.1053  0.3077 -0.0434
22554W        W40078  14.909  13.628   4.431 -0.2016  0.3430  0.0183
22555W        W40079  13.182  13.797  15.062 -0.0244  0.1754 -0.1734
22556W        W40080   6.520   8.470   1.021 -0.3937  0.0326  0.0397
22557W        W40081   0.563   1.663  13.565  0.0999  0.1006 -0.1583
22558W        W40082   2.713  13.698   5.539  0.1122 -0.0333 -0.0157
22559W        W40083   5.920   5.140  14.438  0.0855  0.2929  0.3159
22560W        W40084  10.862  13.412   5.105 -0.0133 -0.1965  0.0247
22561W        W40085  15.977  15.770  11.826 -0.2067 -0.3439 -0.0081
22562W        W40086  16.057   2.879   5.399  0.0564  0.0881 -0.0572
22563W        W40087  16.582  16.900  16.368 -0.0470  0.0111 -0.3328
22564W        W40088  15.800   2.324  14.842 -0.1272 -0.1879  0.3104
22565W        W40089  14.230   2.575  13.435  0.0413  0.2136  0.0240
22566W        W40090  13.605  12.815   0.732 -0.0598  0.0041  0.0429
22567W        W40091   9.866   1.256  14.287 -0.0569 -0.1972 -0.1656
22568W        W40092   3.243   0.484  12.656 -0.1667 -0.1205 -0.1224
22569W        W40093  13.738  12.849  14.960  0.1910  0.2005  0.5728
22570W        W40094  11.583   6.081   2.992  0.0827  0.0912 -0.0388
22571W        W40095  13.480   6.815  12.177  0.2856 -0.1617  0.0722
22572W        W40096   8.743  13.796  12.878 -0.0793 -0.1495 -0.2414
22573W        W40097  11.522  13.093   4.321 -0.1097 -0.0671 -0.1700
22574W        W40098   8.608  14.749   5.010  0.0549 -0.3379 -0.0432
22575W        W40099   5.012  16.518  13.732  0.0787 -0.0711 -0.0775
22576W        W40100   2.022   1.117  15.217  0.2186 -0.2645 -0.0103
22577W        W40101   8.362   9.365  16.880 -0.1545 -0.0496  0.3708
22578W        W40102   7.955  13.441  15.653 -0.1320  0.0475  0.0578
22579W        W40103   5.614  16.299   3.214 -0.2042 -0.0690 -0.1664
22580W        W40104   3.394  13.889  15.803  0.0388  0.2112  0.1791
22581W        W40105  10.921   4.394   3.210  0.2285  0.2657  0.1229
22582W        W40106  13.072   5.042  11.247  0.0158  0.1298 -0.0927
22583W        W40107   5.819   7.054  15.572  0.1432 -0.5649  0.3638
22584W        W40108  12.058  10.470  13.880 -0.0860  0.2758 -0.0876
22585W        W40109   5.541  16.652   4.199  0.0863 -0.3434  0.0631
22586W        W40110  13.223   5.117   4.751  0.2358 -0.3076 -0.1440
22587W        W40111  12.044  11.618  15.701 -0.3231  0.0612  0.0522
22588W        W40112  14.155   9.914   1.069  0.0093  0.1604 -0.0104
22589W        W40113   1.392  14.847  14.338  0.0043 -0.0285 -0.1149
22590W        W40114   6.701  15.147   2.762 -0.0956  0.1805  0.1433
22591W        W40115  15.231   0.580   0.228 -0.1939  0.0280  0.1564
22592W        W40116  13.301   9.164   2.305 -0.0658 -0.0527 -0.0975
22593W        W40117  16.822  11.179  16.480 -0.1527  0.2156 -0.3259
22594W        W40118   8.578  16.414  14.939 -0.2706  0.0180 -0.2451
22595W        W40119   6.363   4.285  16.790  0.0728 -0.0244  0.0378
22596W        W40120  16.967   1.818   2.678 -0.2250  0.0554 -0.0080
22597W        W40121  12.489  16.041  17.092  0.1423 -0.1988 -0.0139
22598W        W40122   2.066  13.255   3.061  0.0322  0.2218  0.2644
22599W        W40123   8.588   2.515   5.471  0.1562 -0.1201 -0.2395
22600W        W40124  12.856   2.478   0.419  0.1796 -0.2587  0.1028
22601W        W40125   0.113   0.910   3.771  0.0054  0.1127 -0.1246
22602W        W40126   3.898  10.908   3.303  0.2058  0.0816 -0.0295
22603W        W40127  11.614   7.890  16.237 -0.1597  0.0203 -0.3292
22604W        W40128  10.469  11.970  16.373 -0.2196  0.0538 -0.1504
22605W        W40129   3.055   5.110  13.976 -0.2227  0.0565 -0.2830
22606W        W40130   5.926   0.976   0.427 -0.1502  0.0048 -0.0002
22607W        W40131   2.970  16.349  17.309  0.1069 -0.0697  0.1182
22608W        W40132  14.890  14.752  16.798  0.0305 -0.1429  0.3187
22609W        W40133   0.416   6.308   4.082 -0.0475  0.1080 -0.2608
22610W        W40134   4.009   1.314  15.291 -0.0908  0.2021 -0.0053
22611W        W40135  11.081  12.869  15.583  0.0377  0.0333 -0.0371
22612W        W40136  17.174   9.582   3.917 -0.3492  0.0084  0.0862
22613W        W40137   3.818  14.690  13.632 -0.0401  0.0301  0.0316
22614W        W40138   9.477   3.498   4.319  0.0493 -0.0193  0.2899
22615W        W40139   2.976  14.924   1.832  0.0723  0.2011  0.0140
22616W        W40140   4.883   0.627  16.251  0.1750  0.0846  0.0352
22617W        W40141   1.064   4.455   2.007  0.2947 -0.1314 -0.0125
22618W        W40142  10.534   1.546   4.261  0.4099 -0.1618  0.0870
22619W        W40143   9.514   8.789   5.705 -0.0186  0.0566 -0.1566
22620W        W40144   5.941  13.766  14.254  0.0192 -0.3248  0.0441
22621W        W40145   8.752  15.866  12.193 -0.2213 -0.1293 -0.2264
22622W        W40146  11.486   4.604   5.760  0.4224  0.0707 -0.1275
22623W        W40147   6.503  14.698  13.195 -0.1402  0.1857  0.1543
22624W        W40148  12.731   7.902  13.267 -0.0742 -0.3505 -0.2975
22625W        W40149  13.464  16.042   4.515  0.1517  0.1108 -0.0684
22626W        W40150   0.349  12.201   3.685  0.2709  0.1590 -0.0345
22627W        W40151   2.626  16.140  15.630  0.0786  0.4334  0.1471
22628W        W40152  13.269   4.866   1.521 -0.1017  0.1592  0.0771
22629W        W40153  10.083  13.700  17.298 -0.2199  0.4579  0.0649
22630W        W40154   3.826   0.110   4.323 -0.1786 -0.0552 -0.0037
22631W        W40155   3.889   6.786  15.692  0.0339 -0.0520 -0.0882
22632W        W40156   2.116  16.466  13.129  0.1747 -0.0981  0.1073
22633W        W40157   0.662   8.224   0.825 -0.0995 -0.2688 -0.1950
22634W        W40158   8.913   0.675   1.036  0.0726 -0.0730  0.0824
22635W        W40159   6.381   5.434   1.607 -0.1304 -0.0093 -0.1412
22636W        W40160  16.698   7.545   3.014  0.2046  0.0757 -0.0830
22637W        W40161   1.020   2.372   3.075  0.3957  0.0264 -0.0558
22638W        W40162  11.758  17.102  12.210  0.0244  0.0087 -0.4078
22639W        W40163  10.528   3.471   0.485 -0.1867  0.0013  0.1665
22640W        W40164  10.856  14.352  12.923  0.1098  0.0151 -0.2857
22641W        W40165   4.727  13.667  16.357 -0.0507  0.2077 -0.2006
22642W        W40166   3.865   1.933  17.098 -0.3122  0.2345 -0.0872
22643W        W40167   6.760   1.896  14.768 -0.2159 -0.2340  0.2188
22644W        W40168  14.132   5.234  14.401  0.1464  0.4304  0.2370
22645W        W40169  10.219  14.776  17.179 -0.2378 -0.0219 -0.2139
22646W        W40170   8.627   2.615  12.122 -0.0143  0.1352  0.1238
22647W        W40171   6.408   2.454  12.526  0.0140 -0.0044 -0.1894
22648W        W40172   5.882  12.974  17.543  0.1319  0.0008  0.0905
22649W        W40173   5.260   6.710   4.234 -0.2250  0.6073 -0.3095
22650W        W40174  10.600   3.819  14.170 -0.2075 -0.0103  0.2803
22651W        W40175   4.110  15.660  12.559 -0.1245  0.2094 -0.3130
22652W        W40176  14.408   7.006  12.219  0.1696 -0.2577  0.2091
22653W        W40177   0.948   7.732  16.872  0.0258  0.4724  0.1373
22654W        W40178   8.283  11.999  13.236  0.0862  0.0943  0.0614
22655W        W40179   6.232   0.338   3.529  0.2205  0.1746  0.1812
22656W        W40180  14.888  11.045   4.243  0.1470 -0.0476  0.0784
22657W        W40181   6.366   3.703   0.394 -0.1436 -0.1109  0.0222
22658W        W40182   6.225   3.832   0.840  0.5154 -0.1641 -0.2270
22659W        W40183  12.632   0.395  15.932 -0.0191 -0.1577  0.0924
22660W        W40184   1.108  11.137  17.160 -0.1627  0.2839  0.0166
22661W        W40185  16.351  13.563  14.146 -0.0145 -0.1263 -0.1053
22662W        W40186   7.634  17.191  16.294 -0.1014  0.0259 -0.3579
22663W        W40187  12.362  10.843  11.862  0.1377  0.2232 -0.1237
22664W        W40188  14.686   3.936   2.888 -0.3078 -0.0993  0.1524
22665W        W40189   3.686  10.632   5.149  0.1970 -0.0316 -0.0333
22666W        W40190   2.121  13.884  14.159  0.1495  0.0708  0.0186
22667W        W40191   7.366  10.446   3.232 -0.4372  0.0233 -0.0825
22668W        W40192   1.526   7.869   2.335 -0.1765  0.2406 -0.1329
22669W        W40193   0.514   8.161  12.188  0.0325 -0.2589 -0.1758
22670W        W40194  11.304   1.338  15.629 -0.1355 -0.1458 -0.2072
22671W        W40195  12.955   3.962  13.688  0.1616 -0.2893 -0.4122
22672W        W40196  16.715  16.562   3.126  0.0509  0.0161  0.2142
22673W        W40197   7.467   0.515  16.991  0.3303 -0.2366  0.1831
22674W        W40198   3.378   5.009  12.017  0.1890 -0.2812  0.2256
22675W        W40199   3.282   6.861   3.599 -0.2195  0.0012 -0.3772
22676W        W40200  16.113   1.630   3.592  0.1722 -0.0186  0.0200
22677W        W40201   4.417   2.767   4.050  0.0378  0.0152 -0.0657
22678W        W40202  12.710   9.260  16.544  0.0429 -0.0416 -0.1203
22679W        W40203  15.873  14.379   1.276 -0.1068 -0.0199  0.2059
22680W        W40204  17.236  10.465  15.881  0.3512 -0.0860  0.0832
22681W        W40205  13.768   3.314   5.300  0.1593 -0.2239  0.2152
22682W        W40206   2.238   2.073   0.137 -0.1330  0.0439 -0.0101
22683W        W40207   2.793   9.540  13.582  0.1970  0.0242  0.1323
22684W        W40208   5.102  14.964  16.958  0.1205  0.1873 -0.3614
22685W        W40209   6.785   2.137  17.482  0.0855 -0.0987  0.1518
22686W        W40210   2.388  10.127   3.707  0.3370  0.2098  0.2109
22687W        W40211   2.206   4.565   8.381  0.0958 -0.1518 -0.2775
22688W        W40212   7.990   7.108  17.230 -0.0211  0.0165  0.0955
22689W        W40213  14.074   3.935   1.823  0.1088 -0.3029 -0.1788
22690W        W40214  14.823   4.109  13.462 -0.0902  0.0684 -0.0346
22691W        W40215   3.456   4.267  17.187 -0.1277  0.1005  0.1055
22692W        W40216   9.350   2.489   0.754 -0.3952  0.1659  0.0586
22693W        W40217   6.396  12.053   4.678  0.0880  0.4521 -0.0492
22694W        W40218  11.281   7.019  15.091 -0.1594 -0.0904 -0.0484
22695W        W40219   2.980  11.787   1.794  0.0684  0.2616 -0.1740
22696W        W40220  12.867  14.540  13.664 -0.0711  0.1186  0.1827
22697W        W40221   8.474   8.986  16.505  0.1835  0.0396 -0.0339
22698W        W40222  16.687   9.753   0.064 -0.0283  0.1083  0.0170
22699W        W40223   6.133   5.249  17.197 -0.4789  0.2817 -0.2316
22700W        W40224   3.752  14.620  15.793 -0.1848 -0.1871 -0.1738
22701W        W40225  10.383  15.787   5.208 -0.0361  0.4181 -0.2998
22702W        W40226   0.148   5.927   1.643  0.4643 -0.0383  0.1961
22703W        W40227   6.693  11.421   3.263  0.0454  0.1134  0.0023
22704W        W40228  10.895   0.345  15.366  0.2079 -0.1159 -0.0774
22705W        W40229   1.156   7.966   0.537 -0.0727 -0.1623  0.1073
22706W        W40230   3.712  10.797  12.953  0.0178  0.0688  0.1663
22707W        W40231  11.499   4.465   4.732 -0.1942 -0.0764  0.1665
22708W        W40232   5.785  11.681  16.116 -0.0787 -0.2043  0.0634
22709W        W40233  14.051  13.663   5.078  0.1884 -0.0924  0.1613
22710W        W40234  14.175   8.645  16.693 -0.1316  0.0087 -0.0852
22711W        W40235   2.785  11.845   0.460  0.2374  0.1685 -0.2654
22712W        W40236   2.210  14.488  13.796 -0.0674  0.2581 -0.1176
22713W        W40237   1.526  11.410   3.613  0.1584  0.0830 -0.0520
22714W        W40238  10.184   6.345  17.273  0.0348  0.2740 -0.1925
22715W        W40239   5.765  10.277  16.585  0.0182  0.1493 -0.0864
22716W        W40240   0.515  13.840   3.330  0.1529  0.2064  0.0872
22717W        W40241   2.065   6.268   3.079  0.0716 -0.0077  0.3011
22718W        W40242  15.785   4.194  15.345 -0.0791 -0.1541  0.0837
22719W        W40243  13.104  14.280   3.093 -0.3010  0.1617  0.0216
22720W        W40244  13.527   9.859   4.796  0.0084 -0.1778  0.2382
22721W        W40245   0.006  14.206   0.905 -0.0866 -0.0417 -0.1161
22722W        W40246  11.866  14.025  12.855 -0.0652 -0.0389 -0.0597
22723W        W40247  15.220  10.933   2.007 -0.1152 -0.0705  0.1108
22724W        W40248  15.681   2.607  16.975 -0.2068 -0.0082 -0.3192
22725W        W40249  11.690   7.233   5.967  0.0948 -0.0612 -0.3081
22726W        W40250  16.508   8.330  15.181  0.0353  0.1296  0.5037
22727W        W40251  12.657   6.103   2.553  0.3781  0.3469 -0.1178
22728W        W40252  14.673   6.769   1.550 -0.0946 -0.0838  0.0217
22729W        W40253   0.341  11.011  10.940 -0.0889 -0.1206  0.0048
22730W        W40254   0.692   6.822  13.238 -0.3199  0.0256  0.2495
22731W        W40255  12.294   0.130   6.506 -0.0597 -0.1074 -0.0883
22732W        W40256   4.288   1.778  16.874  0.1832  0.1860 -0.1707
22733W        W40257   8.584   7.598   3.463 -0.1181  0.0746 -0.1870
22734W        W40258   5.960   0.141   0.382  0.1556  0.1723  0.0449
22735W        W40259   2.988  12.606   2.330 -0.2765  0.1628 -0.3400
22736W        W40260  14.710   2.364  12.368  0.2525  0.0629 -0.0294
22737W        W40261  14.644   4.199  16.746 -0.0562  0.1989 -0.0164
22738W        W40262  16.303  12.593  13.710  0.2283  0.4701 -0.2110
22739W        W40263   0.323  16.573   2.513 -0.1761  0.1083  0.4132
22740W        W40264  14.023   7.368   1.273 -0.2406 -0.0011 -0.1629
22741W        W40265  12.738  16.203  15.681 -0.0299  0.1034  0.2101
22742W        W40266  10.162  14.482   0.563 -0.0523  0.0878 -0.1027
22743W        W40267   1.435   9.938  13.604  0.0337  0.1848 -0.1128
22744W        W40268   8.493   6.367  13.034 -0.0614 -0.1152 -0.3060
22745W        W40269   6.749   5.598  12.475  0.3216  0.1947 -0.0186
22746W        W40270   3.540   3.885  14.116 -0.0132  0.0407 -0.0472
22747W        W40271   7.503  14.418  13.891  0.1024  0.0216 -0.0882
22748W        W40272   7.718   5.622   4.592 -0.0664 -0.0362  0.1903
22749W        W40273   2.725  14.256  12.475  0.1497  0.1667 -0.2238
22750W        W40274   2.048   3.188  13.233  0.2402 -0.4989 -0.3432
22751W        W40275   4.260   2.439   1.135 -0.1325 -0.2193 -0.1523
22752W        W40276   4.018   4.530   2.198  0.0141 -0.2740  0.0223
22753W        W40277   4.774  13.110   3.923 -0.1605 -0.0454  0.0906
22754W        W40278  12.816   4.107   1.446  0.2547 -0.0074  0.3513
22755W        W40279   5.340  13.619   1.640  0.0603 -0.2439  0.0115
22756W        W40280   9.068   8.364  14.721 -0.0076 -0.1178  0.1942
22757W        W40281  17.218  16.229   5.430  0.0274  0.1844 -0.1813
22758W        W40282  15.816  13.732   4.529 -0.1966 -0.0209  0.1111
22759W        W40283   6.936  12.365  17.270  0.1195 -0.0154 -0.3147
22760W        W40284   7.030   3.504  14.024 -0.1019  0.3954  0.1861
22761W        W40285   2.291  11.260  12.862 -0.2565  0.1380 -0.0573
22762W        W40286  11.447   1.487   2.028 -0.2648  0.1890  0.2593
22763W        W40287   3.215  12.638   0.093 -0.1370  0.1414 -0.1671
22764W        W40288   0.914  15.297  13.912 -0.1398  0.2913 -0.1636
22765W        W40289  14.572  14.930   5.231  0.1134  0.2222  0.3988
22766W        W40290   5.400   1.415  17.556  0.0957 -0.1700  0.0331
22767W        W40291   7.051   8.807  13.017  0.0366 -0.1537 -0.0190
22768W        W40292   3.840   1.389  12.820 -0.0312  0.0651 -0.1997
22769W        W40293   0.208   4.393  16.404 -0.3368  0.2260  0.1584
22770W        W40294  13.490   7.690  12.792  0.2024 -0.1478 -0.1180
22771W        W40295   9.960   0.307  15.571 -0.0650  0.1737  0.0816
22772W        W40296  13.043   6.320  15.256  0.2649  0.0709 -0.1326
22773W        W40297   9.690  15.394  17.243  0.2185  0.0602 -0.1643
22774W        W40298  13.631  10.832  13.523  0.0909 -0.1120  0.0435
22775W        W40299   8.146  11.475  16.286 -0.0203  0.1291 -0.2058
22776W        W40300  12.549   5.586   2.468 -0.1815 -0.1908  0.1655
22777W        W40301  15.566  17.102  12.246  0.2601 -0.0394  0.2429
22778W        W40302   0.837  14.796  12.503 -0.2891 -0.1373  0.4425
22779W        W40303   8.638   5.024   2.913  0.1718 -0.0935 -0.1627
22780W        W40304  14.828   7.369  12.986 -0.1820  0.1956  0.4077
22781W        W40305   4.218   5.288   2.800 -0.0305 -0.0948  0.1155
22782W        W40306   7.148   9.683  16.998  0.1317 -0.3106 -0.1374
22783W        W40307  12.011   3.347   3.197  0.0868 -0.1220 -0.2988
22784W        W40308  14.274  15.800  14.549  0.0587  0.0642 -0.3012
22785W        W40309   1.433   9.574   4.783 -0.1790 -0.0304 -0.2811
22786W        W40310   5.715  12.668   2.350 -0.0960 -0.0500 -0.1390
22787W        W40311   8.571  10.904  13.226 -0.0403  0.3683  0.1753
22788W        W40312   1.160   0.501   2.224 -0.1503 -0.0324 -0.1244
22789W        W40313   1.299   7.418  13.937  0.1465 -0.2615  0.3003
22790W        W40314  12.039   4.140  14.455  0.2443 -0.1264  0.0794
22791W        W40315   7.322   5.461   4.864 -0.1715  0.7017  0.0963
22792W        W40316   1.361  12.671  11.552  0.1833  0.3383 -0.1623
22793W        W40317   2.590  13.969   4.458  0.1495  0.2596  0.0389
22794W        W40318   1.984   6.121   1.001 -0.4079 -0.2698  0.1635
22795W        W40319   1.733  11.057  16.952  0.0120  0.0837  0.2016
22796W        W40320   6.261  15.435   3.043  0.0177  0.1879  0.1797
22797W        W40321   9.488   8.034  12.369  0.0063  0.3095 -0.1049
22798W        W40322  10.554  10.864  14.816 -0.0195  0.5074 -0.0826
22799W        W40323   9.747   6.356   0.801 -0.0882 -0.0535  0.1804
22800W        W40324  15.661  12.741  15.384  0.1399 -0.0714  0.0933
22801W        W40325   5.364  14.243   3.700 -0.0540 -0.0020 -0.0038
22802W        W40326  16.909   6.229   2.882 -0.0830 -0.2595 -0.0615
22803W        W40327  15.824   8.641   4.398  0.0546 -0.0337  0.0341
22804W        W40328  14.454  14.225   5.101  0.2007 -0.1084 -0.2158
22805W        W40329  12.950   3.260   4.209  0.1608  0.1303  0.2167
22806W        W40330   9.646  13.907  12.502  0.3350 -0.2551 -0.2778
22807W        W40331  12.145  11.905  11.391 -0.3780  0.3010  0.2576
22808W        W40332   3.571  11.266  14.098  0.0896 -0.0053  0.2255
22809W        W40333   9.084   1.907   0.184  0.0834  0.1388 -0.0912
22810W        W40334   1.193  12.830   5.027 -0.0393 -0.0012  0.1269
22811W        W40335   6.631  11.724  12.855 -0.2724  0.3317  0.1259
22812W        W40336   0.782  15.905  12.812 -0.1449  0.3472 -0.1068
22813W        W40337  14.481  14.027   4.618 -0.0505 -0.0290 -0.1635
22814W        W40338   7.610   1.883   1.170 -0.2554  0.4251  0.0270
22815W        W40339  12.759  11.183  17.316  0.0301 -0.1933  0.2085
22816W        W40340  14.830   0.823  13.876  0.1036 -0.2650  0.3393
22817W        W40341   1.658   9.675   5.177 -0.0813 -0.2695 -0.2145
22818W        W40342  12.792   6.281  11.944  0.0075 -0.1106  0.0745
22819W        W40343   5.471  16.892  14.750  0.1847  0.0385 -0.1648
22820W        W40344  13.555  11.653  12.008 -0.0150  0.0875  0.0460
22821W        W40345   8.392   5.473   0.235  0.3644 -0.1172 -0.3146
22822W        W40346  15.873  12.582  12.148 -0.0188 -0.1160  0.0338
22823W        W40347   0.962   2.505   1.882  0.0488  0.0079 -0.2708
22824W        W40348   2.755   7.233  17.584  0.0072 -0.2262  0.0339
22825W        W40349  16.038   0.447  14.104  0.1809 -0.0269  0.1104
22826W        W40350   8.561   7.437  14.112  0.0985  0.2090 -0.3044
22827W        W40351   0.542   5.498  11.865  0.0054  0.3158  0.1165
22828W        W40352  13.132   8.443   4.155  0.0659  0.2195  0.1472
22829W        W40353   0.055  16.931   3.262 -0.3868  0.0358  0.0129
22830W        W40354  11.624   7.730   6.116 -0.1952 -0.0404 -0.0242
22831W        W40355   8.932   8.644   2.089  0.0779  0.3598  0.4279
22832W        W40356  12.972   2.035   3.866  0.2693 -0.1659 -0.0583
22833W        W40357  12.047   8.609   1.396  0.0714 -0.0481 -0.2517
22834W        W40358   1.930  17.191   1.008 -0.0390 -0.3753 -0.0401
22835W        W40359   2.903   4.335  16.307 -0.1648  0.0965  0.3503
22836W        W40360  15.720   0.834   5.266 -0.0840  0.1748 -0.1444
22837W        W40361  14.697  13.178  14.461  0.2968  0.0833  0.1959
22838W        W40362   6.906  14.124  16.413 -0.2991 -0.2572 -0.0672
22839W        W40363   8.998  11.737   4.681  0.0095  0.2439 -0.0383
22840W        W40364   7.321  12.136  14.673 -0.0318 -0.1033  0.2693
22841W        W40365  10.587  13.397   2.219 -0.1502  0.1446 -0.0777
22842W        W40366   1.044  11.313  13.430 -0.0577  0.0931  0.1035
22843W        W40367  15.353   2.498   3.727  0.1683  0.1324 -0.1505
22844W        W40368  17.151   8.335  12.896 -0.2724  0.0589 -0.0699
22845W        W40369   2.947   0.514   2.979  0.0011  0.4924 -0.2017
22846W        W40370  13.741  13.028  12.516 -0.5719 -0.0801  0.2497
22847W        W40371  12.815  14.931   2.429  0.0165  0.0147 -0.0575
22848W        W40372  13.344   1.734  13.980  0.1072 -0.0298 -0.0987
22849W        W40373   9.665  16.392   1.890 -0.2724 -0.0635  0.0301
22850W        W40374   5.567   6.219  15.345  0.1620 -0.0990 -0.0852
22851W        W40375   8.101   1.953  16.251  0.1006 -0.1594 -0.2848
22852W        W40376  14.329  14.511   4.642  0.0877  0.1683  0.1537
22853W        W40377   6.543   7.184   0.334 -0.0019 -0.1241 -0.0217
22854W        W40378   1.742   6.471  13.566 -0.3004 -0.0934 -0.0151
22855W        W40379   9.352   5.418   0.281  0.2527 -0.0945  0.1482
22856W        W40380  16.469   6.881  14.811 -0.0181  0.1042  0.1883
22857W        W40381   2.731   0.676  14.453  0.0779  0.1465 -0.0635
22858W        W40382   3.675   3.649  13.627 -0.0705 -0.1372 -0.1334
22859W        W40383  13.017  11.248   0.106 -0.0028 -0.0111 -0.0871
22860W        W40384   5.506   4.324   5.469  0.0691  0.0674 -0.2707
22861W        W40385   1.255   5.408  13.013 -0.0626  0.0286  0.0569
22862W        W40386   1.280   8.798  15.146  0.2031  0.1536 -0.2064
22863W        W40387  15.846  11.963  13.004  0.1910 -0.0247  0.1063
22864W        W40388   1.867   3.869   2.048  0.0159 -0.0623 -0.0751
22865W        W40389   1.498   1.069  15.006  0.2188 -0.1102  0.0730
22866W        W40390   6.125   0.986  17.234  0.0097 -0.0214  0.1254
22867W        W40391   5.027   5.327   5.165  0.0257  0.1110  0.1596
22868W        W40392  15.802  15.769   1.118 -0.0919  0.2095  0.0231
22869W        W40393   2.775   2.290  13.968 -0.2056 -0.0816  0.0146
22870W        W40394   2.548  12.573  16.093  0.2814  0.3347  0.1918
22871W        W40395  16.976   8.907  17.506 -0.0513  0.0097 -0.2261
22872W        W40396  12.691   4.708   3.102 -0.0920  0.0252 -0.0541
22873W        W40397  13.711   3.525  16.345  0.0148  0.2173  0.0277
22874W        W40398  13.426   9.509  13.673 -0.1207 -0.0586  0.1863
22875W        W40399  10.879   9.266  13.876  0.2472 -0.2735 -0.2518
22876W        W40400   5.109   9.566  12.327  0.3653 -0.0515 -0.1713
22877W        W40401  16.066   1.326   1.062 -0.0226 -0.1790  0.1892
22878W        W40402   2.944  17.082  14.923  0.1734  0.1561  0.2249
22879W        W40403   9.085   3.173  16.975  0.0072  0.1226  0.1278
22880W        W40404   1.182  13.201  14.833  0.1177  0.3506 -0.1492
22881W        W40405   9.907   8.939  12.417  0.0144  0.1375 -0.0196
22882W        W40406  11.903  10.116  14.179 -0.1291  0.0735  0.0587
22883W        W40407  10.139  16.630   4.959 -0.0535 -0.2081 -0.2016
22884W        W40408  15.721   9.506   1.622  0.0189 -0.0392  0.1757
22885W        W40409  13.860  16.843   2.430  0.0147  0.0085 -0.0608
22886W        W40410   1.761  13.103   5.062  0.1538  0.2528  0.0037
22887W        W40411  13.237   1.474   3.077  0.0925 -0.3278  0.1519
22888W        W40412   1.949   6.978  13.536 -0.0451  0.1909 -0.2020
22889W        W40413   6.732   2.128   2.354 -0.1466 -0.2019  0.1548
22890W        W40414  16.821   3.382  13.689  0.2595 -0.2238  0.2518
22891W        W40415  14.651  16.371  17.481  0.1123  0.1315 -0.0735
22892W        W40416   0.928   4.559  12.405  0.0984  0.0059  0.1308
22893W        W40417  15.365   7.952  13.604 -0.0771 -0.1661  0.1177
22894W        W40418  10.010  14.067   5.843  0.0478 -0.0070  0.0404
22895W        W40419  12.738  10.715   3.020  0.0066 -0.1086  0.0201
22896W        W40420   4.910  11.373   0.139  0.1942 -0.3796  0.2076
22897W        W40421  16.056   3.016  14.025  0.2520 -0.2963  0.1476
22898W        W40422  15.209   8.076   3.132  0.0478  0.0265  0.0396
22899W        W40423  14.084  11.737   1.496 -0.0712  0.0018  0.0168
22900W        W40424   4.813  15.938  12.048  0.1537  0.0927  0.4720
22901W        W40425  14.846  16.184   4.102  0.0187  0.0123  0.1585
22902W        W40426  13.677   6.482   1.467 -0.3397 -0.0012  0.2799
22903W        W40427   2.459  10.569  14.653 -0.4270 -0.2140  0.1860
22904W        W40428  16.453   6.269  16.387  0.2220  0.2054  0.0958
22905W        W40429   1.365  12.758   2.514  0.1518  0.0228 -0.0635
22906W        W40430   6.814  14.837  15.842 -0.2632  0.0758 -0.1435
22907W        W40431  13.982  12.894   4.387  0.2254  0.2315 -0.0797
22908W        W40432   8.942  13.798  16.451 -0.1388  0.3429 -0.0546
22909W        W40433   9.909   6.279   4.175  0.0948 -0.1008  0.4090
22910W        W40434  12.135   4.095  15.593  0.1172  0.1480  0.4057
22911W        W40435   6.183  15.431  14.485  0.2028 -0.1757  0.2663
22912W        W40436  10.616  12.482   0.127 -0.3707 -0.0419 -0.3105
22913W        W40437   6.248  14.432   3.578 -0.0061  0.0163 -0.2963
22914W        W40438   6.902  13.702   4.046  0.0099 -0.1378 -0.0318
22915W        W40439  13.870   0.095  14.738 -0.1056  0.2295  0.2443
22916W        W40440  14.533  12.004   1.385  0.0662  0.0566  0.2168
22917W        W40441   9.161   0.115  15.103 -0.1962 -0.2163  0.3932
22918W        W40442   5.077   7.849  14.647 -0.1179 -0.2900  0.3471
22919W        W40443  14.535   1.294  14.910 -0.1631 -0.0648 -0.1399
22920W        W40444  11.266   0.968   1.790 -0.3290 -0.4030  0.0176
22921W        W40445   9.683  13.635  13.985 -0.1709  0.3424 -0.0728
22922W        W40446  15.105   8.107  17.465  0.1287 -0.3232 -0.0745
22923W        W40447  11.733   7.277  15.197 -0.2925 -0.1930  0.1353
22924W        W40448   7.603  10.759   0.742 -0.2235  0.1572  0.1977
22925W        W40449  15.489   0.304   0.495  0.1951  0.1869 -0.0156
22926W        W40450   0.084   2.791  14.555  0.0642 -0.0866  0.0895
22927W        W40451  16.253   7.289  12.210  0.3480 -0.2728  0.1105
22928W        W40452   3.403   0.734   1.309  0.0260  0.3702  0.0160
22929W        W40453   9.986  10.066  17.080  0.0067  0.2994 -0.0244
22930W        W40454   7.233   3.931  16.764  0.0758 -0.0501 -0.1064
22931W        W40455  12.467  14.303  16.042 -0.4277  0.0333 -0.0133
22932W        W40456   5.660   6.719   0.779  0.1029 -0.1526  0.0375
22933W        W40457   5.161  12.138   1.645 -0.1618  0.1510 -0.0833
22934W        W40458   9.092   9.903  16.110 -0.1505 -0.2418 -0.3886
22935W        W40459  15.711   8.502   0.565  0.1219  0.0258  0.0843
22936W        W40460   5.153   2.652   5.474 -0.2634 -0.1316 -0.0134
22937W        W40461   0.246  13.205  16.729  0.0863 -0.1514  0.1197
22938W        W40462  10.711   2.319  16.163 -0.0598  0.1699  0.2961
22939W        W40463  12.077  16.493  11.550  0.1310 -0.0660 -0.1004
22940W        W40464  17.146   9.028  13.712  0.1608  0.0803 -0.0712
22941W        W40465  17.226  11.408  11.696  0.0657 -0.1445 -0.2254
22942W        W40466   1.870   5.550   2.352 -0.0785  0.1386  0.0672
22943W        W40467  14.628   1.580   4.908  0.0191 -0.0568  0.1703
22944W        W40468   7.134   6.421   2.232  0.1955  0.1512 -0.0641
22945W        W40469  11.090  13.642  16.534  0.0680  0.2257  0.0899
22946W        W40470  14.382  10.986  14.481  0.1251 -0.1806 -0.1832
22947W        W40471  15.022  16.807  14.164 -0.1473 -0.0716 -0.0878
22948W        W40472   6.070   4.196   4.784 -0.4139 -0.3003 -0.1005
22949W        W40473  11.750   0.815   1.636 -0.0864  0.1528  0.1125
22950W        W40474   7.700  14.704  16.597 -0.1187 -0.2207 -0.4325
22951W        W40475  14.677   9.909  14.992  0.0469  0.1770  0.3126
22952W        W40476   5.485   6.311  13.200  0.0289  0.1987 -0.0593
22953W        W40477   5.058   9.011  14.985 -0.3532  0.0530 -0.3053
22954W        W40478  12.546   2.448  13.746  0.1434  0.0931  0.0618
22955W        W40479   0.585   2.380  17.625 -0.1434 -0.0466 -0.1490
22956W        W40480   6.502   2.552   3.354 -0.2428  0.0505  0.0125
22957W        W40481  14.797  15.094  13.600  0.2068 -0.1163  0.1798
22958W        W40482   3.802   3.919  15.876 -0.3629  0.0230 -0.1822
22959W        W40483   2.261  15.027   3.758  0.1095  0.2485  0.1607
22960W        W40484  14.022   4.867  16.627  0.0912  0.1384 -0.1391
22961W        W40485   7.726   7.073  13.280  0.1771 -0.2801  0.2465
22962W        W40486   4.520   3.650  17.540  0.2646 -0.0284  0.2359
22963W        W40487   6.475   1.140  16.432 -0.0353 -0.0506 -0.1187
22964W        W40488   4.722  12.538   3.207 -0.3101 -0.0556 -0.0056
22965W        W40489  15.004   7.517   2.400 -0.4926  0.3071  0.1010
22966W        W40490  12.481   2.083  11.891  0.3617 -0.2066 -0.0956
22967W        W40491   1.635  13.944  16.437  0.2692  0.1015 -0.1327
22968W        W40492   6.963  12.508   0.231 -0.0706 -0.1717 -0.2084
22969W        W40493  11.577  15.013  13.201 -0.1191 -0.0873 -0.2153
22970W        W40494   3.637   9.115   0.044  0.3464 -0.3026 -0.0649
22971W        W40495   3.277  16.900   2.247 -0.1751 -0.2377  0.2276
22972W        W40496   0.227  15.060  15.066  0.0931  0.2039 -0.0096
22973W        W40497   2.161  12.775   3.557  0.0409 -0.1366 -0.0166
22974W        W40498   6.608   9.786  16.998 -0.2441 -0.2491  0.1923
22975W        W40499   5.649   8.910  15.214  0.2602 -0.2722 -0.1288
22976W        W40500   5.742   3.949  15.085 -0.2475 -0.0782  0.2142
22977W        W40501  11.665   6.495   2.773  0.1473  0.2107  0.4235
22978W        W40502   4.043   2.617   2.036  0.0199  0.1806 -0.1183
22979W        W40503   2.427   6.254   1.312 -0.0291 -0.2658  0.0561
22980W        W40504   8.990   6.278   0.265 -0.1999 -0.1700  0.0723
22981W        W40505   6.316  11.876  16.129 -0.1705  0.4273 -0.2216
22982W        W40506   2.303  15.083  16.011  0.2307  0.1483  0.0823
22983W        W40507   9.933   6.869  15.860  0.1423 -0.0283 -0.1087
22984W        W40508   3.319   4.281  14.256  0.0444  0.0914 -0.1678
22985W        W40509   4.081   7.554   3.791 -0.0281  0.0884 -0.0789
22986W        W40510   6.667   7.987  15.817  0.3396  0.1865 -0.2222
22987W        W40511   8.919  15.863   1.551 -0.2641  0.1921  0.3229
22988W        W40512  16.342   9.038  16.524  0.2727  0.1215  0.2373
22989W        W40513   2.763  10.645   5.459 -0.1231 -0.1670 -0.1164
22990W        W40514   5.648   8.878   3.725 -0.3463  0.0210  0.0582
22991W        W40515   5.291   7.064   0.261  0.2088  0.3248 -0.0800
22992W        W40516  13.064  14.141   0.176  0.0024  0.2631  0.1256
22993W        W40517   4.059   4.711  13.263 -0.0232  0.2249 -0.0491
22994W        W40518   1.699  10.180   0.753  0.3057  0.3042 -0.1724
22995W        W40519  11.860  12.494   5.282  0.0464  0.2474 -0.1480
22996W        W40520  15.060  14.924   1.340  0.1296 -0.1919  0.0019
22997W        W40521   7.705   7.714  17.467 -0.0604 -0.4396 -0.1874
22998W        W40522   0.119   0.203  14.346  0.2834  0.1417 -0.0871
22999W        W40523  14.046  12.630  16.071  0.0676 -0.5192 -0.1379
23000W        W40524   0.326  15.798  13.238 -0.0289 -0.2129 -0.0964
23001W        W40525  13.905   5.348   4.251  0.0496  0.2629  0.1632
23002W        W40526  10.050   3.688   5.122  0.3419  0.0011  0.2457
23003W        W40527   9.469  15.246   1.117 -0.1158  0.0474 -0.1709
23004W        W40528   0.624   9.209   0.548 -0.1203 -0.1065  0.2249
23005W        W40529   8.372   8.234  15.740  0.0748 -0.3043  0.2135
23006W        W40530   8.832   6.385  14.874  0.0263  0.0611 -0.0184
23007W        W40531   3.684   3.953   1.603 -0.0445  0.1245 -0.1624
23008W        W40532   0.797   2.239   5.262  0.1735 -0.3461  0.3797
23009W        W40533   9.519   1.711   0.425 -0.0841  0.3013 -0.0569
23010W        W40534   8.568   2.911   3.703  0.0171 -0.1167 -0.1736
23011W        W40535   3.496   7.962   6.626  0.1239  0.3080 -0.0440
23012W        W40536   1.793  10.036  17.358  0.0936 -0.0048 -0.0142
23013W        W40537   8.500   7.066   3.666  0.4331 -0.0064 -0.3213
23014W        W40538  11.486  13.564   0.118 -0.0886  0.1905  0.1292
23015W        W40539  11.037   3.089   0.169  0.0919 -0.0240  0.2661
23016W        W40540   7.454   8.239   0.591  0.1145  0.0770  0.0686
23017W        W40541  11.493  11.671   2.188  0.1183  0.0666 -0.1401
23018W        W40542  13.753  16.372   4.377  0.3931  0.1429 -0.1315
23019W        W40543   8.797   6.829   1.955 -0.0895 -0.2055 -0.1042
23020W        W40544   4.108   7.892  13.832 -0.4419  0.1296 -0.2272
23021W        W40545   1.033   0.411  12.741  0.1273 -0.0375 -0.1022
23022W        W40546   6.588   8.193   4.528 -0.0425  0.0322 -0.0592
23023W        W40547  12.974   0.646   2.156  0.1010 -0.0303  0.0210
23024W        W40548  13.098   1.805  17.495  0.0495 -0.0359 -0.1478
23025W        W40549   9.662   2.094   1.772  0.0167 -0.3566  0.0953
23026W        W40550  16.967  16.682  14.113  0.0966 -0.0847  0.1310
23027W        W40551  13.538  12.215  13.782  0.0862 -0.1606  0.1604
23028W        W40552  14.451   1.555  16.537 -0.2496  0.0342 -0.1315
23029W        W40553   2.437   1.012   1.629 -0.3147 -0.0464  0.0816
23030W        W40554  12.117  14.199   5.044  0.0517 -0.3105 -0.1267
23031W        W40555  12.316  15.626  14.429 -0.0431 -0.1820  0.1034
23032W        W40556   7.633   6.600  13.037 -0.1816 -0.1459  0.2143
23033W        W40557   1.899  13.045  15.263  0.2274 -0.1322 -0.2928
23034W        W40558   9.622   5.482  15.904 -0.0257 -0.0035  0.0467
23035W        W40559   9.883   8.185   0.021 -0.0264  0.1164 -0.2456
23036W        W40560  12.274   2.415   2.923 -0.1715  0.0824 -0.1947
23037W        W40561   5.688  16.697  13.321  0.0867  0.2525  0.1707
23038W        W40562   9.178   5.640   2.268 -0.0282 -0.5772  0.0725
23039W        W40563   0.504   8.610   2.069 -0.1019  0.3249 -0.1578
23040W        W40564   9.536  11.407  12.908  0.1264 -0.0079  0.1991
23041W        W40565  15.874   5.399   4.821  0.1197  0.2217 -0.0790
23042W        W40566   6.663   2.985  17.325  0.0343 -0.0863  0.0020
23043W        W40567   5.936  15.453  17.167 -0.1781  0.1966 -0.3530
23044W        W40568   1.153  11.272   3.207 -0.0768  0.3018  0.0247
23045W        W40569  11.055   1.067   2.756 -0.1779  0.0420  0.0979
23046W        W40570   8.147   2.803  12.200 -0.0788 -0.0923 -0.0730
23047W        W40571   5.470  10.266  15.653  0.2008  0.1444 -0.1866
23048W        W40572  10.320   6.745  14.962 -0.1855 -0.1259  0.2112
23049W        W40573   6.241  16.103  13.066 -0.4715  0.0572  0.1697
23050W        W40574  15.999  14.746   5.322  0.0938  0.1361  0.1418
23051W        W40575   2.109  17.090   5.630 -0.4865 -0.3929  0.0517
23052W        W40576  10.578   6.845   2.734  0.0220 -0.1019  0.2490
23053W        W40577  10.560  13.152  16.088 -0.1540  0.0793  0.0209
23054W        W40578   2.383  12.312   4.259 -0.1308 -0.3028  0.1118
23055W        W40579   7.316   2.299  16.888 -0.1061 -0.1285 -0.3933
23056W        W40580   1.716   6.249   0.533  0.2099  0.1086 -0.1457
23057W        W40581  13.956   2.667  12.505  0.0465 -0.1520  0.1227
23058W        W40582   2.354   8.978  13.320 -0.0040 -0.0561  0.1337
23059W        W40583   6.987  13.835  12.523  0.1012 -0.0214 -0.0258
23060W        W40584   7.292  16.873  16.097 -0.1453 -0.1263  0.2684
23061W        W40585  10.373   4.138  17.378  0.0403  0.0695 -0.0195
23062W        W40586   2.167  15.774  13.402  0.3936  0.0175 -0.2468
23063W        W40587   7.245   3.679   4.232 -0.1065  0.0556  0.0890
23064W        W40588   5.535   0.695  15.004  0.1184 -0.3592 -0.0455
23065W        W40589  15.173   5.778  15.259 -0.2263 -0.2906  0.1521
23066W        W40590  16.017   6.578  14.381  0.0879  0.1218  0.1758
23067W        W40591   4.271  15.773   1.156  0.0716 -0.0519  0.2103
23068W        W40592   1.005  12.244   0.061  0.4618  0.1372 -0.1043
23069W        W40593   1.872   9.406   2.374 -0.2150  0.3463 -0.0836
23070W        W40594  14.922  16.841   2.064 -0.2677 -0.2783  0.2905
23071W        W40595   7.536   1.466  12.669  0.1100 -0.0316  0.0330
23072W        W40596   0.670  14.920  16.648  0.1797 -0.0248 -0.0991
23073W        W40597  14.513   7.831   0.630 -0.1605 -0.0648 -0.1330
23074W        W40598   0.090   9.402  14.019  0.2027 -0.1850 -0.1165
23075W        W40599   9.276   8.458  15.438  0.0775 -0.0926  0.1575
23076W        W40600   3.716   5.027  12.396 -0.1776  0.1568  0.0353
23077W        W40601  11.733   7.696  15.526 -0.2982  0.2984 -0.0297
23078W        W40602   6.501   1.653   2.242  0.2169  0.1281  0.0734
23079W        W40603   0.652   9.245   1.071  0.3467  0.0350  0.1747
23080W        W40604   9.314   4.370   1.634  0.0534  0.4486  0.0816
23081W        W40605   8.397   7.763   0.825  0.1736  0.3192 -0.1781
23082W        W40606   8.180  10.851   2.564  0.0371 -0.0232 -0.0414
23083W        W40607   4.115   4.001  17.631  0.1459  0.0957 -0.0991
23084W        W40608   5.470  14.698  16.716 -0.2797  0.0446  0.1587
23085W        W40609   9.728  16.912   1.860 -0.0031 -0.1279  0.3710
23086W        W40610   6.039   8.574  12.978  0.1475  0.1229 -0.1455
23087W        W40611   7.712   8.378   3.747 -0.0077 -0.0410  0.0978
23088W        W40612   4.883  16.122  14.875 -0.1650  0.3667  0.2626
23089W        W40613  16.175   7.552  15.437  0.3013  0.1241 -0.2355
23090W        W40614  14.242   1.903   2.093 -0.0377  0.0701 -0.0547
23091W        W40615  13.937  14.946  14.898 -0.1063 -0.1409 -0.0469
23092W        W40616  15.723   5.789  14.203 -0.2213 -0.0801 -0.1558
23093W        W40617  14.736   4.743   2.725  0.2864  0.4740 -0.2062
23094W        W40618   9.509   3.345   4.806  0.0911  0.2681 -0.1030
23095W        W40619   8.443  14.166  13.018  0.1079 -0.0597 -0.1153
23096W        W40620   9.985   1.137  13.055  0.1964  0.1824 -0.1060
23097W        W40621  15.909  15.662  15.365 -0.0394 -0.1633  0.1828
23098W        W40622  14.602  14.578   3.315 -0.0192 -0.2058  0.0135
23099W        W40623   0.116   5.516   0.787 -0.0212 -0.0090 -0.0371
23100W        W40624  11.996  10.811   5.283 -0.1322 -0.0039 -0.3531
23101W        W40625  11.347   7.232   2.276  0.0116  0.0201 -0.0589
23102W        W40626   3.188  15.453  15.532  0.0710 -0.1028  0.0035
23103W        W40627  14.896   0.182  15.263 -0.1506 -0.2612  0.1090
23104W        W40628  13.939   9.296  17.066  0.0727  0.0986  0.0243
23105W        W40629  15.630   7.544   3.351  0.3034  0.2216 -0.2628
23106W        W40630   8.405   5.801   1.939 -0.1715 -0.1199 -0.1498
23107W        W40631  14.368   5.751  11.709  0.1497 -0.2029 -0.1507
23108W        W40632  14.504   9.653  14.253  0.0879  0.1053  0.2563
23109W        W40633  11.835   1.472  17.492 -0.4143  0.1622  0.0409
23110W        W40634   1.379  14.616   0.540  0.4521 -0.0602  0.0390
23111W        W40635   5.355  12.171   3.908 -0.0470 -0.1474  0.0392
23112W        W40636   7.912   8.670   5.300  0.2240 -0.0315 -0.1011
23113W        W40637   5.597  16.017   1.918 -0.3748  0.3796  0.1656
23114W        W40638   4.393   8.182   3.171  0.3043 -0.0524 -0.1771
23115W        W40639   7.147  10.559   0.829  0.3596 -0.1689 -0.2791
23116W        W40640   1.817   2.980  12.719  0.2016  0.1356  0.1494
23117W        W40641   9.666   4.437  13.318 -0.0574 -0.1094 -0.1603
23118W        W40642  12.529  14.100   4.620  0.0139  0.0043 -0.0970
23119W        W40643   4.061   7.366   0.346 -0.1810  0.0067 -0.2170
23120W        W40644   9.268  10.964  12.789  0.0354  0.0551 -0.0891
23121W        W40645  10.799   0.158  14.915  0.0440  0.4973 -0.1988
23122W        W40646   2.673  16.052  14.063 -0.1319 -0.3024 -0.1283
23123W        W40647   7.078  11.889  14.263  0.1312  0.1079 -0.0141
23124W        W40648   0.675  10.487  13.122 -0.2865  0.2056  0.0569
23125W        W40649  10.861   9.559   6.528 -0.0129  0.2212  0.2095
23126W        W40650   7.838   3.060  11.896 -0.1783 -0.1170 -0.3928
23127W        W40651  10.439   3.020   0.957 -0.1810 -0.0767 -0.0511
23128W        W40652   1.701   8.238  16.121 -0.1109  0.0352 -0.1567
23129W        W40653  16.211  12.846  16.732 -0.2410  0.2793  0.0354
23130W        W40654  14.862   8.394  17.097  0.1185  0.0634 -0.0493
23131W        W40655  10.362  11.718   4.565 -0.2907  0.4187 -0.1983
23132W        W40656   0.839   4.206   4.924  0.1348  0.0259 -0.0354
23133W        W40657   3.555  10.797   2.443  0.0781 -0.0126  0.0300
23134W        W40658   6.084  17.047  13.356  0.0235  0.3302 -0.2107
23135W        W40659   6.816  12.763   5.776 -0.1930  0.1352  0.0748
23136W        W40660   0.200   6.505   2.277  0.2518 -0.1104 -0.0016
23137W        W40661  13.977   5.085  13.040 -0.2843  0.0320  0.1746
23138W        W40662  12.189  16.630  12.977 -0.3047 -0.1037  0.2574
23139W        W40663   8.612   6.657   4.694  0.1978 -0.0023 -0.0014
23140W        W40664   0.008   5.757   4.742 -0.2134  0.1187  0.2232
23141W        W40665  14.376  10.214   3.371  0.0242  0.0870  0.1998
23142W        W40666   6.144   8.764   0.229 -0.1577 -0.0246  0.0418
23143W        W40667   9.892   2.603  13.124  0.3741  0.1959 -0.1310
23144W        W40668   6.573   3.411   3.140  0.1434  0.2702  0.1100
23145W        W40669   8.972   2.647  15.150 -0.1958  0.1016 -0.0772
23146W        W40670   7.964   4.718   4.650  0.0353 -0.1762 -0.3783
23147W        W40671  13.928  16.509   0.038  0.1505  0.0365 -0.0338
23148W        W40672  11.096  16.531   0.118 -0.1362 -0.1495  0.3938
23149W        W40673  14.805   0.934  14.639 -0.1915  0.1653 -0.0798
23150W        W40674   3.048  16.580  14.734 -0.2879 -0.1372 -0.0531
23151W        W40675  15.260   9.299   1.834  0.0174  0.5076  0.0917
23152W        W40676  16.180   4.510   4.714  0.0180  0.0496  0.2489
23153W        W40677   2.368   0.460  14.670  0.0751 -0.1031  0.1109
23154W        W40678  10.189   3.190   6.087 -0.1623 -0.3074  0.2083
23155W        W40679  15.998  13.391   0.655 -0.2158 -0.0667 -0.0296
23156W        W40680  16.970  10.079  12.127  0.0083  0.0474 -0.2182
23157W        W40681   8.516   2.754   0.523  0.0104 -0.0009  0.0563
23158W        W40682   0.776  13.006   3.660  0.3932 -0.2044  0.2144
23159W        W40683   6.408   2.394  17.144  0.2170  0.0761  0.2079
23160W        W40684   4.182   3.856   5.614  0.0460  0.2062  0.1003
23161W        W40685  15.038   8.248  15.716 -0.1780 -0.2161 -0.0652
23162W        W40686  13.132   3.410   2.622  0.1504  0.0189 -0.1931
23163W        W40687  15.191  14.037   0.081  0.2563  0.0704 -0.0265
23164W        W40688   9.941  12.836  12.829 -0.1978  0.1275  0.1202
23165W        W40689  16.257   5.049  12.101 -0.1735  0.0850 -0.0188
23166W        W40690   4.262   9.577  13.265 -0.3452  0.2764  0.3507
23167W        W40691  13.840   4.581  17.486  0.2311 -0.0890  0.1813
23168W        W40692   3.095   0.288   3.951  0.1101  0.1177  0.2672
23169W        W40693   0.468   7.814   3.283 -0.2269  0.2776 -0.0747
23170W        W40694  11.450  13.808  17.279  0.0154 -0.1635 -0.0642
23171W        W40695   9.125  12.615  16.896  0.0141 -0.0008 -0.0414
23172W        W40696   2.452   8.460  16.579 -0.1076 -0.0841  0.1225
23173W        W40697   8.651  17.033  17.452 -0.0996  0.1954 -0.2096
23174W        W40698   8.781  12.698   0.647  0.0517 -0.2123  0.2280
23175W        W40699   2.125  12.379   2.066  0.1805  0.1602 -0.3455
23176W        W40700   3.059   1.428   4.843  0.4032  0.0240  0.0147
23177W        W40701   9.815  11.945   0.850  0.3713 -0.0744 -0.0407
23178W        W40702  16.849   8.169   3.982 -0.0136  0.0421  0.3936
23179W        W40703  16.890   3.669   0.254  0.0143 -0.0477 -0.3175
23180W        W40704   5.912   6.345   0.485  0.4428  0.1524  0.0741
23181W        W40705   3.074  15.145   0.477 -0.0632  0.2398 -0.0658
23182W        W40706   7.257  12.910  17.589  0.2737  0.0081 -0.3331
23183W        W40707   2.029  10.339  16.080  0.3808  0.1070 -0.2946
23184W        W40708   1.637  12.639   4.893  0.0460 -0.1883  0.2287
23185W        W40709  14.600   4.353  12.197 -0.0646 -0.0632 -0.2013
23186W        W40710  15.649   6.067   2.190  0.1540  0.0759 -0.1681
23187W        W40711   0.490   5.617  15.733 -0.1460 -0.0634 -0.0893
23188W        W40712  15.637   0.485  17.014  0.0933  0.2313 -0.1495
23189W        W40713  13.559   9.736  14.526  0.0030 -0.1670 -0.2957
23190W        W40714  11.659   8.125   1.896  0.1293  0.1847  0.0698
23191W        W40715  14.439   6.241  11.516 -0.1529  0.0938  0.0486
23192W        W40716   1.957  15.455  13.728 -0.1036 -0.0089  0.3247
23193W        W40717   1.260  13.124  14.230  0.0701  0.1606  0.2282
23194W        W40718   8.212  15.590  12.375 -0.0554  0.5094  0.0040
23195W        W40719  16.890   1.762  15.442  0.0153  0.0118  0.2731
23196W        W40720   5.458  16.368   4.686  0.0293 -0.0695 -0.1363
23197W        W40721   6.371  12.524  12.398 -0.2068  0.1159  0.1552
23198W        W40722   1.540   0.817  13.117  0.1565  0.1089 -0.0103
23199W        W40723  16.955   7.121   1.223 -0.0318  0.1155 -0.1486
23200W        W40724  10.763   0.540  13.051  0.0205 -0.1539 -0.2449
23201W        W40725   6.377   7.947  13.123 -0.0734  0.2483  0.0275
23202W        W40726  10.079   4.451   2.930  0.2102  0.0064 -0.1151
23203W        W40727   7.826   7.076   5.550  0.1627 -0.1847 -0.2353
23204W        W40728  14.859   8.986  12.069 -0.0618 -0.0040  0.0873
23205W        W40729   0.574   7.437   4.821  0.0376 -0.0709  0.0989
23206W        W40730   8.371   8.408   5.194 -0.4844 -0.4796  0.1686
23207W        W40731  14.814  17.007   0.507  0.4749 -0.2233  0.3178
23208W        W40732   3.058   8.123  13.272 -0.0958  0.0025 -0.1097
23209W        W40733  15.667  10.169  12.982  0.0906 -0.3942 -0.1020
23210W        W40734   2.209  16.022  12.973 -0.2554 -0.1238 -0.1066
23211W        W40735   5.462   3.149   2.809  0.1849  0.3800 -0.3183
23212W        W40736  12.344   4.300   2.005 -0.1230 -0.0736  0.0219
23213W        W40737  12.421  10.243  13.597 -0.0104  0.0082 -0.2213
23214W        W40738  12.008   7.879  13.776  0.0407 -0.3132  0.2126
23215W        W40739  12.892   4.191  16.676 -0.0875  0.1991  0.0737
23216W        W40740   1.617   4.421   2.061 -0.1858 -0.0208  0.1432
23217W        W40741  16.963  14.043  17.569 -0.1335 -0.0879  0.0100
23218W        W40742   7.153   8.530  13.514  0.0918 -0.3298  0.1267
23219W        W40743   5.076   1.516  12.767  0.2273  0.0996 -0.2082
23220W        W40744   7.706  13.154   1.255  0.0014 -0.0175  0.2332
23221W        W40745   2.252   5.787   3.116  0.0067 -0.1072  0.2324
23222W        W40746  16.536  10.483  12.853 -0.0030  0.2559  0.3526
23223W        W40747   4.281   6.517  16.018  0.2062 -0.0705  0.0214
23224W        W40748   7.792  15.931  14.340  0.1923 -0.3205 -0.2901
23225W        W40749  14.577   6.884   3.078  0.2287  0.1597  0.3267
23226W        W40750  12.723   9.503  14.049 -0.0780 -0.2812 -0.2918
23227W        W40751   1.407   0.585  16.270 -0.0922 -0.2309 -0.0921
23228W        W40752   6.197  13.955   3.222 -0.0588 -0.1092 -0.1135
23229W        W40753  15.689   7.232  16.948 -0.0665  0.0186 -0.0711
23230W        W40754   7.592   9.164   5.211 -0.2316 -0.1919 -0.3764
23231W        W40755   8.607  11.926   4.983  0.0140 -0.1065 -0.2080
23232W        W40756   8.186  10.527  14.776  0.0176 -0.1946  0.0778
23233W        W40757  12.411  13.897   1.907  0.1841 -0.1857  0.4316
23234W        W40758  10.048  16.256   2.506 -0.1429  0.0013 -0.3302
23235W        W40759   5.898   3.473   3.005 -0.0025  0.2394 -0.0318
23236W        W40760  13.825   0.284  13.800  0.1305 -0.1934 -0.4676
23237W        W40761  15.940   9.848  16.724 -0.0986 -0.2517  0.0811
23238W        W40762  14.356   1.419  13.062 -0.1261  0.2666  0.0384
23239W        W40763   1.252   9.269   3.478 -0.3373  0.0093  0.0058
23240W        W40764  14.012   1.616  15.618  0.4091  0.1732  0.2252
23241W        W40765   0.809   0.255   2.537  0.0733 -0.0143  0.1917
23242W        W40766  12.064  15.223   1.272 -0.1142  0.1070  0.1555
23243W        W40767  10.246  11.953   0.589  0.3223 -0.2874  0.2528
23244W        W40768   8.527   2.422  15.113  0.1602  0.0044 -0.2057
23245W        W40769   4.257  12.591  17.205  0.1207 -0.0860 -0.1773
23246W        W40770   6.758  16.089  13.773  0.2926 -0.0076 -0.0501
23247W        W40771  14.527  13.532   3.047  0.2202  0.0016  0.0248
23248W        W40772   4.923  13.816  14.629  0.0691  0.1140  0.2263
23249W        W40773  13.453  12.636  14.572  0.0031 -0.3443  0.2623
23250W        W40774   5.446   6.022   3.039  0.0020 -0.0844 -0.0025
23251W        W40775   7.662   3.115   2.937 -0.1457  0.1830 -0.2125
23252W        W40776   8.832  13.264   1.964 -0.1615  0.2044  0.1915
23253W        W40777   2.453  12.217  14.322 -0.2292  0.2875 -0.0999
23254W        W40778   9.759   0.716  17.634  0.1949  0.0987  0.0113
23255W        W40779   1.175   1.004  13.478  0.0544  0.4362 -0.2642
23256W        W40780  16.709   7.229  16.813 -0.0005 -0.0750  0.1974
23257W        W40781  12.607  14.293  14.532  0.1379 -0.3236 -0.0910
23258W        W40782   6.378  11.942   3.971 -0.2550  0.0795 -0.1366
23259W        W40783  10.286   1.226   1.961 -0.0799  0.0635  0.1097
23260W        W40784  15.135   7.741  12.910  0.0575  0.1039  0.2680
23261W        W40785  12.835  13.476  17.270 -0.0715  0.3044  0.1680
23262W        W40786   7.694   1.233  14.760 -0.1167  0.0155 -0.1803
23263W        W40787  14.536   6.629  14.237 -0.3408 -0.1753  0.1430
23264W        W40788   6.131   4.673   2.232 -0.0380 -0.0163 -0.1424
23265W        W40789  16.514   1.868  12.458  0.1589  0.2600  0.1796
23266W        W40790   6.285   1.073  12.486  0.1312  0.1116  0.0564
23267W        W40791   4.748   5.704  15.794  0.1959 -0.2454  0.2236
23268W        W40792   9.387  10.068   3.279 -0.0772 -0.1950 -0.0585
23269W        W40793   5.732   2.943   5.139 -0.0623 -0.0191 -0.0958
23270W        W40794  12.632  14.374   1.224 -0.1189  0.1347  0.0047
23271W        W40795  14.661   8.657  16.622 -0.1952  0.1586  0.0974
23272W        W40796   6.050   7.993   3.769 -0.1897  0.0351  0.0563
23273W        W40797   1.724  13.834  12.709 -0.2458  0.2379 -0.0574
23274W        W40798  12.004  11.734   1.999 -0.0514 -0.0223  0.1020
23275W        W40799  13.459   8.350  12.201  0.1399 -0.0212  0.0768
23276W        W40800  14.932   7.115  17.087 -0.0599 -0.0500 -0.1049
23277W        W40801   0.490   3.285  16.476  0.0907  0.1112  0.1403
23278W        W40802   2.845  10.066   4.970 -0.0393 -0.0090  0.1184
23279W        W40803  13.317   1.770  14.599  0.0708 -0.0190  0.1276
23280W        W40804   5.234   3.213  12.891  0.0849 -0.0097 -0.0058
23281W        W40805  14.798   0.652   4.579 -0.2410  0.0713 -0.1755
23282W        W40806   3.434   4.764  17.243 -0.2169  0.1138 -0.2094
23283W        W40807   3.242   5.570  15.229 -0.3233 -0.4150 -0.1945
23284W        W40808  16.675   1.502   0.991 -0.0477 -0.0977  0.3087
23285W        W40809  13.932  12.517   0.963  0.0341 -0.2780 -0.0131
23286W        W40810   4.979  15.995   2.521  0.0083  0.1720  0.0378
23287W        W40811   5.440  16.568   1.004 -0.1651  0.0392 -0.2043
23288W        W40812  12.489   4.699   3.545  0.0796 -0.1130 -0.1991
23289W        W40813   0.683   9.399  17.136 -0.1906  0.0014 -0.0673
23290W        W40814   6.200  12.981  12.341  0.1679 -0.1083 -0.0776
23291W        W40815  13.623  15.563  17.048 -0.1061 -0.1677 -0.0298
23292W        W40816   6.926  16.685  13.284 -0.2397  0.2204  0.0621
23293W        W40817  13.637   0.035  17.568  0.0205 -0.0380 -0.1134
23294W        W40818   0.354   9.324   4.138  0.2327 -0.3665  0.0073
23295W        W40819   3.989  11.360   5.575 -0.0286  0.1199  0.0324
23296W        W40820  16.022  10.519  14.359 -0.0744 -0.1994  0.2631
23297W        W40821   7.255   3.304   0.669  0.0101 -0.1372 -0.1546
23298W        W40822   6.200   1.500  16.738  0.1386 -0.0538  0.2506
23299W        W40823  15.953   3.065   1.643 -0.0736 -0.1165  0.3156
23300W        W40824   7.006   0.743  12.449  0.1561  0.0156 -0.0630
23301W        W40825   3.868   2.197   2.962  0.3007 -0.1027 -0.1636
23302W        W40826  13.022  14.570  14.296  0.2780  0.1023  0.0546
23303W        W40827  14.559   1.062   0.010  0.1654  0.3732 -0.0822
23304W        W40828  11.028  12.107   0.026  0.0551 -0.0136 -0.2022
23305W        W40829  16.422  10.721   4.350  0.0082 -0.0995  0.4072
23306W        W40830   3.927   2.633   3.859  0.1633  0.1739  0.2696
23307W        W40831  13.124  11.722  14.336 -0.4419  0.0784  0.0861
23308W        W40832   4.366   1.569  14.914 -0.0543  0.3016  0.1978
23309W        W40833   9.904   8.353  13.620  0.0193 -0.0505  0.0424
23310W        W40834   4.192   9.913  16.305  0.0843  0.1087  0.1463
23311W        W40835  13.121   8.752  15.708  0.2310 -0.1162  0.3057
23312W        W40836  14.422   3.616  17.197 -0.0291 -0.0080 -0.1199
23313W        W40837  12.495  10.675  11.424  0.2494 -0.1306  0.0218
23314W        W40838   0.055   4.610   0.714 -0.1711 -0.2055  0.0023
23315W        W40839   3.564   0.275   1.278  0.0010  0.1344  0.0165
23316W        W40840  13.443  11.878  13.432  0.0345  0.0514  0.1089
23317W        W40841   4.023  14.596  14.077 -0.0012  0.0675 -0.0441
23318W        W40842   4.992   0.574  16.753 -0.0431  0.2253  0.0375
23319W        W40843   0.957   4.805  14.467  0.2995 -0.1610 -0.1046
23320W        W40844   4.090   2.210  15.060 -0.4273  0.2098  0.1952
23321W        W40845   6.751  16.181  12.902  0.0195 -0.3979  0.5047
23322W        W40846  15.823   0.712  16.620 -0.2410 -0.0649 -0.1940
23323W        W40847  16.976   8.188   0.211 -0.2341  0.0515 -0.0782
23324W        W40848   5.649   0.835   4.783  0.2147 -0.4262 -0.3494
23325W        W40849  13.447  13.163  14.549  0.0291 -0.1133  0.1272
23326W        W40850   2.765   9.282  17.135 -0.0788 -0.0499  0.3181
23327W        W40851  17.094  16.304  14.992  0.0508  0.4621  0.0276
23328W        W40852  15.646   6.426   2.615 -0.1402  0.3919  0.0069
23329W        W40853   2.698   3.208   2.304  0.2412  0.1308  0.1583
23330W        W40854   7.040   4.392  15.665  0.0111 -0.0026 -0.0044
23331W        W40855  13.434   0.964  14.375 -0.0163  0.2510 -0.1925
23332W        W40856  14.914   4.521   1.313  0.4285 -0.3682 -0.1171
23333W        W40857   9.208  11.759  15.479  0.0987  0.3082 -0.0114
23334W        W40858   5.783   2.792  14.411 -0.1716  0.0487 -0.1017
23335W        W40859   8.897   1.532   3.300  0.1783  0.0071 -0.2132
23336W        W40860  15.424   3.491  14.339 -0.5021 -0.4628 -0.0581
23337W        W40861  13.366   7.380   2.060  0.2242  0.1685  0.0740
23338W        W40862   9.962  14.299   4.865  0.2539 -0.0046 -0.2524
23339W        W40863   7.876   0.204   5.223 -0.0705 -0.0098 -0.0944
23340W        W40864   0.257   0.336   1.048 -0.2865 -0.2265  0.3266
23341W        W40865   1.437  10.773  16.544 -0.2935 -0.0335  0.1445
23342W        W40866   8.298   0.507   4.933  0.2535  0.2978 -0.2749
23343W        W40867   2.800   0.901  13.570  0.3280 -0.1832 -0.0673
23344W        W40868   7.891  13.607  12.601  0.0646  0.0201  0.0939
23345W        W40869  13.051   9.852   5.094  0.0432 -0.0295  0.2449
23346W        W40870  11.300   9.915  15.941 -0.2629 -0.0378  0.1277
23347W        W40871   4.269   2.481  13.991 -0.1831  0.3603 -0.1526
23348W        W40872   1.385  14.212   3.508 -0.2359  0.3306 -0.1781
23349W        W40873  11.809   7.743   3.856 -0.2677  0.2477  0.0846
23350W        W40874  15.010   3.542  14.111  0.0288 -0.1729 -0.0880
23351W        W40875   5.191  15.804   3.895 -0.0181  0.0270 -0.1506
23352W        W40876   4.850   2.561  16.700  0.2170 -0.0385  0.1474
23353W        W40877   7.278   6.348   0.653 -0.0285 -0.0227 -0.2605
23354W        W40878  15.525   6.790  15.712  0.0581 -0.0361  0.1752
23355W        W40879   3.982   8.877  16.154 -0.1894 -0.2883 -0.1261
23356W        W40880   2.069   7.943   2.946 -0.0391 -0.5810  0.1951
23357W        W40881  14.528   4.390   5.458 -0.0569  0.1420  0.0884
23358W        W40882   3.341   1.499  16.027  0.0897 -0.3762 -0.0407
23359W        W40883  14.730  16.309   3.592 -0.0966 -0.1725 -0.0892
23360W        W40884   4.722  15.077  17.435 -0.0361  0.0817  0.2650
23361W        W40885  16.651   5.994   0.501 -0.0184 -0.0880 -0.2674
23362W        W40886  14.279  16.056   5.030  0.0541  0.1313 -0.0570
23363W        W40887  15.641  10.944  11.008 -0.5741 -0.0451 -0.0286
23364W        W40888   2.666   8.894   5.764  0.1541  0.0301 -0.3023
23365W        W40889   7.075  13.738   2.832 -0.0606  0.0437 -0.0160
23366W        W40890   2.605  17.195  11.184 -0.0172  0.0481 -0.0470
23367W        W40891   2.506  16.013   0.786  0.1442  0.1606 -0.0047
23368W        W40892   0.246   0.057  15.389 -0.0509 -0.2147  0.1334
23369W        W40893   8.554  13.947   2.592 -0.1337  0.2837  0.1847
23370W        W40894   0.543  13.690  15.359 -0.1218  0.2731 -0.0953
23371W        W40895   4.292  15.353   0.849  0.1197  0.4515 -0.1499
23372W        W40896   7.306   0.043   2.500 -0.1410  0.0542 -0.1446
23373W        W40897   9.665  13.082   4.406  0.2183 -0.1282 -0.1206
23374W        W40898   7.674  10.219   1.753  0.0016  0.2671 -0.0182
23375W        W40899   5.011  16.815   2.025 -0.1007  0.2536  0.1645
23376W        W40900   5.992   5.533   2.112 -0.0733 -0.2135  0.1315
23377W        W40901   2.125   1.360   5.004 -0.0030  0.0774  0.1570
23378W        W40902  16.255  10.935  12.629  0.0821 -0.0878 -0.1756
23379W        W40903  11.452  11.825  17.058  0.2978 -0.1636 -0.2527
23380W        W40904  13.181   8.705  13.635  0.2133 -0.0541  0.0814
23381W        W40905   5.252   1.911   4.527 -0.0627  0.0568 -0.1020
23382W        W40906  16.708  15.602   1.034  0.0848  0.1964 -0.1136
23383W        W40907   2.349   9.468   2.292 -0.1580  0.0023 -0.2403
23384W        W40908   4.127   8.224  14.596 -0.0877  0.0432 -0.1590
23385W        W40909   9.140   8.604  17.461 -0.0956 -0.1162  0.1547
23386W        W40910   4.750   4.387  13.644  0.2304  0.1510  0.1975
23387W        W40911   5.819  16.980  13.734  0.0909  0.0453 -0.0201
23388W        W40912   1.547  16.950   2.412  0.2015 -0.1648 -0.2406
23389W        W40913  12.049  14.715  17.624 -0.2095  0.0918 -0.2013
23390W        W40914  13.284  11.647   1.324  0.3547 -0.1966 -0.1973
23391W        W40915   5.483   7.495  12.823 -0.0212  0.1871  0.1148
23392W        W40916  10.897   8.992   2.801  0.0904  0.0374  0.0638
23393W        W40917  14.543   3.334   4.556 -0.2377  0.0808  0.1090
23394W        W40918   0.008   3.657  12.949  0.0956  0.3606 -0.1070
23395W        W40919   4.477   0.487  16.510 -0.3094 -0.2267  0.1330
23396W        W40920   2.796   0.952  11.768 -0.1405  0.1045 -0.2420
23397W        W40921   0.676   2.244   0.971  0.1276  0.1015 -0.5532
23398W        W40922   2.980   0.535  15.190  0.0220  0.3327  0.1295
23399W        W40923  15.510  15.007   2.221 -0.1330  0.1079 -0.1623
23400W        W40924   4.309   6.031  15.961 -0.1420 -0.0190  0.1837
23401W        W40925  10.616  15.691  17.438  0.0212 -0.0394  0.1271
23402W        W40926  13.074   7.050  13.733  0.0561 -0.4412 -0.0254
23403W        W40927   8.503  16.937  16.024 -0.4953 -0.2960 -0.2481
23404W        W40928   2.068  12.145  15.945 -0.2569  0.0375  0.0858
23405W        W40929  12.489  11.013   4.519 -0.2170 -0.1151  0.0788
23406W        W40930   3.115   6.537   5.107 -0.2509  0.0503 -0.0256
23407W        W40931   1.040   6.885   2.640 -0.0669  0.2791  0.0269
23408W        W40932   1.968   0.517  17.476 -0.0044 -0.2215 -0.1985
23409W        W40933  12.097  17.164  14.629  0.1699  0.1548 -0.0399
23410W        W40934  12.432   5.849   2.938 -0.0370 -0.2305 -0.1954
23411W        W40935   8.500   5.606   4.502 -0.1295 -0.0626  0.1813
23412W        W40936   1.301  12.586  15.753  0.2364 -0.1751  0.0864
23413W        W40937   0.490  12.829   5.289 -0.2708 -0.2363 -0.1662
23414W        W40938  16.592  10.241   0.213  0.0239  0.4715  0.0402
23415W        W40939  16.711  12.793   2.752  0.0282 -0.1362  0.0321
23416W        W40940   6.367   0.416  15.312 -0.3599 -0.1486 -0.1578
23417W        W40941  15.935   6.730  16.967  0.1829  0.2008 -0.2018
23418W        W40942   8.205   7.441   2.946 -0.1023  0.0708 -0.1637
23419W        W40943   0.392   6.380  15.180 -0.1385 -0.0301  0.1335
23420W        W40944  16.781   2.594   3.532 -0.1201  0.0514  0.0841
23421W        W40945   6.614  13.121   1.073  0.0748  0.1602  0.2819
23422W        W40946   6.055  14.028   4.781  0.2826 -0.0123 -0.0855
23423W        W40947   3.288   6.905  13.962 -0.1269 -0.2718 -0.1405
23424W        W40948   3.722  14.271  15.443  0.2690  0.1321  0.3455
23425W        W40949   5.657   3.767  15.678 -0.1001  0.1805 -0.0447
23426W        W40950  16.057   8.751  14.271 -0.0762 -0.0257  0.1208
23427W        W40951   4.888   4.527   3.165  0.0417  0.0060 -0.0106
23428W        W40952  16.045   2.713  13.532  0.1689  0.0501 -0.2211
23429W        W40953  10.360   0.583   3.757  0.2057  0.2798  0.0215
23430W        W40954   2.280   4.199  13.061  0.2464 -0.5262 -0.0812
23431W        W40955   7.367  12.897   4.856  0.0619 -0.0698 -0.2254
23432W        W40956  13.858   0.831   4.490 -0.1216 -0.1506  0.0350
23433W        W40957   0.370   5.897   3.544 -0.4475 -0.0854 -0.0456
23434W        W40958   6.468  16.500   0.838 -0.0126  0.2579  0.2186
23435W        W40959   5.685  10.896   3.420 -0.1975 -0.1771  0.1206
23436W        W40960   1.812   1.932  11.661 -0.2142 -0.2414  0.0867
23437W        W40961  15.784   2.569  13.043  0.5103  0.3288 -0.0820
23438W        W40962  10.403  11.892  13.330 -0.0320 -0.2592 -0.2484
23439W        W40963  12.876   9.522  15.703 -0.3073 -0.1104  0.0199
23440W        W40964  11.995   3.647  14.404  0.0206  0.0815 -0.1137
23441W        W40965   7.665  15.512  12.552  0.0400  0.0300 -0.1310
23442W        W40966  10.132   6.925   6.694  0.0409 -0.0421 -0.1154
23443W        W40967  12.109  12.814   1.162  0.1257  0.1302  0.1757
23444W        W40968   1.217  13.167   3.406 -0.0493 -0.1541  0.1590
23445W        W40969   5.890   5.578   5.084 -0.1602  0.1451  0.3396
23446W        W40970  13.376   1.390  14.908  0.1354  0.0306  0.4146
23447W        W40971  14.730  16.615   2.521 -0.2968  0.1449 -0.2426
23448W        W40972  14.506   7.616   3.734  0.1987  0.2377  0.0484
23449W        W40973   8.271   7.166  13.060 -0.1938  0.2494  0.2806
23450W        W40974   8.826  12.114   4.395  0.2144  0.1140  0.2539
23451W        W40975   5.952   4.937  13.487  0.0207 -0.0218 -0.0075
23452W        W40976  10.323  14.229  17.520  0.0959  0.1393 -0.1235
23453W        W40977   6.432  16.531   0.338 -0.0215 -0.2609  0.0021
23454W        W40978   1.174  14.734   2.699 -0.0870 -0.1199 -0.0558
23455W        W40979   7.846  13.806  17.491  0.0065 -0.1568  0.2937
23456W        W40980   8.570   7.489  13.534  0.0239 -0.1944  0.2116
23457W        W40981   1.832  10.547   1.010  0.0559  0.0684 -0.1020
23458W        W40982  13.400   8.394   0.301  0.2015 -0.1887 -0.0754
23459W        W40983   8.048   1.337  14.442 -0.0750 -0.1529  0.1950
23460W        W40984   4.399   5.541  16.070  0.0030  0.2354  0.0807
23461W        W40985   5.471   1.979  16.199  0.0609 -0.1316 -0.1384
23462W        W40986   9.023  14.898  13.886  0.0939  0.3816 -0.1449
23463W        W40987  16.008  16.019   1.563  0.2247  0.0428 -0.0646
23464W        W40988   8.306   9.641  13.170 -0.3575 -0.2177  0.0231
23465W        W40989   2.741  11.064   4.665  0.0005  0.0543 -0.0889
23466W        W40990  13.204   0.643  16.645 -0.0871 -0.1590 -0.0515
23467W        W40991   3.525   2.042  13.466  0.1395  0.1044  0.0743
23468W        W40992   6.163   2.691   5.157 -0.1900  0.1446 -0.0138
23469W        W40993   1.501  13.422   3.854  0.0829  0.2625 -0.0484
23470W        W40994   0.061  12.694  16.650 -0.0215 -0.0684 -0.2784
23471W        W40995   5.093   4.617   0.451 -0.0049 -0.3020  0.0104
23472W        W40996   9.809   8.083   1.029  0.1852  0.1813  0.2406
23473W        W40997  10.193  17.093   1.899  0.1376  0.1038  0.0600
23474W        W40998   7.110   0.701   3.416 -0.0070  0.1599 -0.1519
23475W        W40999   5.709  11.700   0.273  0.0101 -0.2111 -0.0361
23476W        W41000   8.322   1.831  12.782 -0.5224 -0.1391 -0.1107
23477W        W41001   2.998   4.976   2.350  0.3688  0.0831 -0.1847
23478W        W41002  15.983   2.370   0.896  0.0397 -0.3995 -0.0286
23479W        W41003   8.314   1.449   0.133 -0.0814 -0.1096 -0.2015
23480W        W41004   5.490   9.174   3.289 -0.1723 -0.1784  0.0820
23481W        W41005  14.810   4.640  16.660 -0.1675  0.0266 -0.4574
23482W        W41006  13.174   8.337  14.152 -0.1103  0.2197 -0.1274
23483W        W41007  16.588   3.444  15.698 -0.0623 -0.1871 -0.2546
23484W        W41008   7.177   8.839   1.901 -0.2773 -0.0014  0.0726
23485W        W41009   4.158   3.764   0.847 -0.1445 -0.0493 -0.0146
23486W        W41010   8.841   5.618   2.886 -0.0813  0.2892  0.1150
23487W        W41011  15.034  15.458  11.378 -0.0475  0.5278 -0.1186
23488W        W41012   7.591  13.009   3.505  0.0993 -0.0973  0.1129
23489W        W41013   6.993   2.871   0.729 -0.3827 -0.0861  0.0741
23490W        W41014   9.366   4.715   3.199  0.0693  0.2301  0.2120
23491W        W41015   6.667   0.730   3.776 -0.1324 -0.1224 -0.3572
23492W        W41016   9.849   8.591   6.089  0.0485  0.1606  0.2007
23493W        W41017   4.680   3.188   1.972  0.1551  0.4330 -0.2146
23494W        W41018   4.860  10.557   1.780 -0.1230 -0.4709  0.0022
23495W        W41019   4.978  11.811  12.277  0.1123 -0.2694  0.1134
23496W        W41020   5.167   9.015  17.271 -0.0629 -0.0874  0.2509
23497W        W41021   8.382  11.578   0.245  0.3754  0.0209 -0.0963
23498W        W41022   0.091  14.874   5.117  0.1431  0.1330 -0.1725
23499W        W41023   5.880   4.742  15.380  0.0419 -0.1270 -0.1061
23500W        W41024   0.222  16.593  16.163 -0.1800 -0.2162 -0.0135
23501W        W41025   5.506   1.967  14.870 -0.0985 -0.1038  0.1352
23502W        W41026   6.281   3.901   1.339  0.2348  0.0425 -0.2714
23503W        W41027   5.836   1.845  15.541 -0.0328  0.2725 -0.0177
23504W        W41028   4.555   2.091  15.805  0.0624  0.0371  0.3016
23505W        W41029  12.482   3.891  13.713  0.1395  0.0807 -0.3023
23506W        W41030   7.569   8.625  12.576 -0.2067  0.2636  0.1789
23507W        W41031   2.585  15.066  17.270 -0.0835 -0.1822  0.3321
23508W        W41032   6.281   4.063   6.194  0.0975  0.0351 -0.2345
23509W        W41033   3.499  13.127  13.134  0.0902 -0.1037  0.1485
23510W        W41034  15.841  15.490  13.809  0.2122 -0.0741 -0.3277
23511W        W41035  10.055   1.365   2.419 -0.1262 -0.1208 -0.0691
23512W        W41036   0.543   8.269   3.592 -0.0811 -0.1324 -0.0419
23513W        W41037  13.016  11.046  14.038  0.0838 -0.0899 -0.1685
23514W        W41038   3.605   7.036   4.273 -0.0759  0.2763  0.2770
23515W        W41039   1.210   3.403  15.676  0.0941  0.0475 -0.0307
23516W        W41040  12.147   1.453  15.696 -0.0601 -0.0801  0.1520
23517W        W41041   1.698   0.574   1.275 -0.5634  0.1275 -0.3996
23518W        W41042  14.971   9.687  13.399  0.0827 -0.0380  0.0173
23519W        W41043  15.858   3.343   3.629 -0.1517  0.0081 -0.2076
23520W        W41044  15.946  14.050   4.086  0.0235 -0.2317 -0.0229
23521W        W41045  13.096   6.258   1.309 -0.0095  0.2110  0.0318
23522W        W41046   4.517   2.179   5.639  0.1197 -0.1143  0.3551
23523W        W41047  17.051  10.233  16.308 -0.0313  0.1583  0.1283
23524W        W41048  16.370   1.941  15.511  0.1132  0.3276  0.0922
23525W        W41049  10.699   0.812   3.036 -0.1590  0.0180  0.0001
23526W        W41050  12.283   0.348  13.852  0.0362 -0.0633  0.3189
23527W        W41051  11.441   0.828  13.505 -0.0469 -0.1413  0.1092
23528W        W41052  15.332   2.481  13.420 -0.0435  0.0625 -0.0437
23529W        W41053   9.792   7.589  12.387 -0.0129 -0.1515  0.0768
23530W        W41054  13.809  12.197   1.302  0.1033  0.1184 -0.1177
23531W        W41055   1.717   1.724   4.962 -0.2366  0.3415 -0.0460
23532W        W41056   1.945  11.482  13.160 -0.0042  0.1349 -0.3242
23533W        W41057   3.572   8.523   3.381  0.2148 -0.0230 -0.1110
23534W        W41058   7.668   5.315  15.101 -0.1601 -0.1788  0.0376
23535W        W41059   8.382   7.928   3.082  0.3678  0.0874 -0.0271
23536W        W41060   2.621   0.751   2.550  0.1406  0.0206 -0.0920
23537W        W41061   0.214   6.598   4.906  0.3595  0.3397  0.1092
23538W        W41062   5.378   1.133  12.632 -0.0182 -0.0813  0.0130
23539W        W41063  13.596  13.670  15.469 -0.0242 -0.0157  0.2547
23540W        W41064  17.093  15.989  12.471  0.0427 -0.0199  0.0674
23541W        W41065   7.062  11.383  15.022 -0.0908  0.1310  0.0850
23542W        W41066   6.721  12.853   3.652  0.1603 -0.1162  0.0883
23543W        W41067   7.555   2.154   1.587 -0.2247 -0.1823 -0.0154
23544W        W41068  13.626   0.209   0.767  0.0840  0.1246  0.2376
23545W        W41069  15.540   8.197   4.273 -0.0317 -0.2311 -0.1375
23546W        W41070  10.527  11.801  14.819 -0.4117 -0.2326 -0.0224
23547W        W41071   3.645   4.412   1.308  0.1745  0.1861 -0.0232
23548W        W41072  15.537  16.308   0.832  0.1842  0.4473 -0.0317
23549W        W41073   5.397   6.459   2.862  0.0131 -0.3122 -0.0862
23550W        W41074  11.362   8.962  16.276 -0.1945  0.2030 -0.0048
23551W        W41075   5.175  14.591   1.985  0.1379 -0.0857 -0.0963
23552W        W41076  11.636   2.125  13.747  0.0907 -0.1360 -0.1458
23553W        W41077   5.044   1.736  16.208 -0.3195  0.0321  0.0097
23554W        W41078  12.517  10.640  12.319 -0.3244 -0.0211  0.1453
23555W        W41079  13.655  15.997   1.411  0.1644 -0.0688 -0.0498
23556W        W41080  14.670   6.482   5.130  0.3088  0.2895  0.0203
23557W        W41081  16.993   3.331   3.284 -0.0986  0.0275  0.1543
23558W        W41082  13.855   6.407  12.243 -0.0254  0.0341  0.1814
23559W        W41083  11.538   7.264   2.790  0.5646 -0.3313  0.2830
23560W        W41084  12.927   4.394   2.769  0.0810  0.4018 -0.0699
23561W        W41085   7.876   7.268  12.447  0.2824  0.2875 -0.1972
23562W        W41086  11.210   2.586   4.441  0.4205 -0.3463 -0.0208
23563W        W41087   1.058  15.783   2.796 -0.3291 -0.2830 -0.2278
23564W        W41088   5.720   4.296   1.825 -0.4128 -0.3156 -0.1797
23565W        W41089  15.143   6.427  17.335  0.1398 -0.0369  0.0317
23566W        W41090   4.458   3.760  14.333  0.3039  0.1555  0.1984
23567W        W41091  14.708   2.180  17.535  0.0865 -0.0961  0.1588
23568W        W41092  12.970   8.276   2.488  0.2086 -0.3573  0.1226
23569W        W41093   9.114  13.223   2.769  0.0711 -0.0164  0.1876
23570W        W41094   8.029   9.911  14.035 -0.1025  0.1016  0.3097
23571W        W41095   9.885   3.965  13.651 -0.1448 -0.0347  0.0140
23572W        W41096   6.403  17.008   2.209 -0.1642 -0.1233  0.3015
23573W        W41097  13.919   3.465   1.188 -0.1181  0.1226 -0.0287
23574W        W41098   0.066   8.815  12.764  0.5040  0.0802 -0.0645
23575W        W41099  17.156  14.142  15.885  0.1518 -0.0313 -0.0872
23576W        W41100   9.261   6.431  13.422 -0.1368 -0.0306  0.1492
23577W        W41101  11.913   8.873  16.294 -0.0699  0.1093 -0.2654
23578W        W41102  10.665   3.682  15.058  0.0444  0.0345  0.1080
23579W        W41103   2.432   7.393  12.999 -0.0375  0.3079  0.2038
23580W        W41104   6.522  13.073  14.476  0.2400  0.0600  0.1526
23581W        W41105  17.188  16.263  16.590  0.1067 -0.1393  0.0768
23582W        W41106   3.566   6.631  17.503  0.0798  0.0080  0.0066
23583W        W41107   5.230  12.359   2.504 -0.0367  0.0179  0.1570
23584W        W41108  15.577   4.641  15.405 -0.0969  0.0382 -0.2200
23585W        W41109  16.276   2.656   1.289  0.2255  0.0339 -0.0900
23586W        W41110  13.932  14.839   0.924 -0.0142  0.0284  0.0912
23587W        W41111   3.004  14.920   2.353 -0.0572  0.2095  0.6158
23588W        W41112   7.744  17.221   3.857  0.1993  0.1123  0.3743
23589W        W41113   7.864  14.876  15.803  0.1882 -0.2686 -0.2701
23590W        W41114  17.070  13.863   5.285  0.2422  0.2219 -0.1204
23591W        W41115   3.973   0.130   1.719 -0.2003  0.0354  0.1998
23592W        W41116  11.364   1.636   4.221  0.1438  0.1270  0.0551
23593W        W41117   4.593   0.360  15.973  0.1095  0.1808  0.0048
23594W        W41118   6.461   9.411   2.977  0.0746  0.0443  0.0373
23595W        W41119   1.294   6.184  15.409  0.3884  0.0997  0.3391
23596W        W41120  16.507  13.072   3.100 -0.0883  0.0068  0.1411
23597W        W41121  15.842  13.411   1.719  0.1510  0.1110 -0.0580
23598W        W41122   3.284  10.507   0.609 -0.1031  0.0196  0.3174
23599W        W41123  10.344   0.218   0.813  0.0738  0.2602 -0.1845
23600W        W41124   3.904  10.150   1.103  0.2693 -0.2518 -0.2145
23601W        W41125  12.413  11.837  16.771 -0.0336 -0.0607 -0.0147
23602W        W41126  10.939   9.166   4.756 -0.2124 -0.2043  0.2853
23603W        W41127   6.484   8.292  16.136  0.0346 -0.1725  0.1524
23604W        W41128  15.241   7.654  11.490  0.4180  0.0478  0.1516
23605W        W41129  12.725  13.734   0.575  0.1346 -0.0204  0.1208
23606W        W41130   5.648  12.393  13.947 -0.2573 -0.0889  0.0016
23607W        W41131  10.820   7.938   0.162  0.1633 -0.1408 -0.2116
23608W        W41132  17.201   3.032   4.477 -0.2221  0.1621  0.0526
23609W        W41133  12.267   4.303   4.060 -0.0013  0.2542  0.0104
23610W        W41134  14.816   0.812  15.873  0.0055  0.3793  0.3167
23611W        W41135   5.431   6.462  14.372  0.0712 -0.0583  0.1447
23612W        W41136   0.037   5.412   2.762  0.2338  0.1191  0.1682
23613W        W41137   5.579   2.847   1.204  0.0337 -0.0207 -0.2083
23614W        W41138  15.669  11.016   5.098 -0.1529  0.2031  0.1369
23615W        W41139  12.420   9.822  14.840  0.1006  0.0499 -0.0576
23616W        W41140   0.278   1.603  14.859 -0.2707  0.1946 -0.1829
23617W        W41141  10.479   2.558   2.147 -0.4672 -0.0502  0.1083
23618W        W41142   8.105   4.465  15.347  0.1545  0.0558 -0.0395
23619W        W41143  11.149   2.199   0.679  0.1461 -0.1553 -0.1703
23620W        W41144  15.776  16.688  12.682 -0.1054 -0.2668  0.0626
23621W        W41145   7.008   0.805  13.312 -0.0671  0.3571 -0.1877
23622W        W41146   4.310   4.338   5.443 -0.2431 -0.2416 -0.0407
23623W        W41147  10.433  16.427  13.389 -0.3143  0.0047  0.0374
23624W        W41148  13.166  15.249  12.556 -0.1122 -0.1459  0.2476
23625W        W41149  10.930   3.270   2.825  0.0552  0.1120  0.0748
23626W        W41150   7.884   5.523   2.725 -0.0732  0.1697 -0.2319
23627W        W41151   2.932   8.087   1.268 -0.1012 -0.4819 -0.1950
23628W        W41152   8.251  11.372  14.202 -0.1205  0.0681 -0.1849
23629W        W41153   8.773   9.510   1.515  0.0940 -0.0812 -0.0291
23630W        W41154   8.788  11.125   1.502  0.1679  0.0568  0.2989
23631W        W41155   9.014   7.537  13.910 -0.0591 -0.0373  0.4450
23632W        W41156   6.233  16.603  15.978  0.4829 -0.0943  0.2321
23633W        W41157   6.232  11.784  14.290 -0.2117  0.1545  0.2050
23634W        W41158  16.373   3.349   3.487 -0.1149  0.0300  0.0713
23635W        W41159   9.182  16.486  14.993  0.2871  0.2459  0.1238
23636W        W41160  17.036   0.662   1.053  0.2561  0.1741  0.1752
23637W        W41161  11.696   1.298  14.682 -0.0085 -0.1233  0.0207
23638W        W41162   4.597   7.520   0.315 -0.4225 -0.2528  0.2723
23639W        W41163   3.901  11.763  14.110 -0.1753  0.2713  0.1224
23640W        W41164   1.481   1.504  11.662 -0.0292  0.0400  0.1239
23641W        W41165   1.682   5.162   1.010 -0.1246  0.0481 -0.1518
23642W        W41166   5.666   9.251  16.408  0.1168  0.5446 -0.1016
23643W        W41167   6.155  15.032  16.374  0.0891 -0.1213  0.0679
23644W        W41168  12.837   1.263   0.667  0.4735  0.0535 -0.0724
23645W        W41169   7.301   6.401  12.706 -0.1107  0.2578 -0.2172
23646W        W41170  10.030   0.330  14.021 -0.1004  0.1959 -0.1581
23647W        W41171  14.476   0.966  16.304 -0.2133 -0.0854 -0.1483
23648W        W41172  16.738   4.788  14.265  0.1504  0.1920 -0.0476
23649W        W41173   3.075   4.965   1.022  0.5522 -0.3171 -0.1806
23650W        W41174  13.419  11.455  15.289  0.0845 -0.0711  0.0249
23651W        W41175  16.637   6.292   3.294 -0.3283 -0.0686  0.3907
23652W        W41176   3.120   3.512  16.780  0.1705 -0.1874 -0.0053
23653W        W41177  12.192  11.455  13.973 -0.2349  0.1272 -0.0741
23654W        W41178   4.100   0.927   3.838  0.0903  0.1294 -0.1536
23655W        W41179   0.647  14.833  15.740 -0.1855  0.1186 -0.0358
23656W        W41180   6.770  12.393   0.693 -0.1467 -0.0846 -0.0874
23657W        W41181   5.731   6.152   2.017 -0.0203 -0.2156  0.4173
23658W        W41182   7.556   6.469  16.763  0.1646 -0.2393  0.1214
23659W        W41183  15.795  11.116   0.236  0.0401 -0.2059 -0.1265
23660W        W41184   9.256   4.778  11.465  0.3629 -0.0057  0.1185
23661W        W41185   2.734   0.544   5.044 -0.0739 -0.2394 -0.0051
23662W        W41186   3.047  13.408  14.436  0.0274  0.0398  0.3720
23663W        W41187   4.070  12.315   5.372 -0.1749  0.1585  0.1696
23664W        W41188   3.873   8.800   0.320  0.2725 -0.1440  0.1297
23665W        W41189   9.392  15.948   1.835 -0.0267  0.0773  0.1139
23666W        W41190  15.998   9.806  13.245 -0.1797 -0.1450 -0.1206
23667W        W41191  10.548  14.978   0.307  0.0780 -0.1233  0.1628
23668W        W41192   6.349   3.894   2.432  0.3624 -0.0553  0.0793
23669W        W41193   9.088   4.341   6.752  0.1139 -0.1011 -0.2646
23670W        W41194  14.919  11.949   4.315 -0.1597  0.0503 -0.1756
23671W        W41195  14.678   0.156  12.637  0.0373  0.2057  0.0543
23672W        W41196  16.613   0.919   0.982  0.1707 -0.0205 -0.2212
23673W        W41197   8.175   7.761  17.290  0.1261  0.0276  0.1418
23674W        W41198   1.799   6.776  17.080 -0.0667 -0.2849 -0.1363
23675W        W41199   4.443  13.908   3.230 -0.1264  0.2384  0.1245
23676W        W41200   4.948  10.392   4.448  0.0163  0.1836  0.1553
23677W        W41201  12.569   9.054  15.680  0.1372  0.2074  0.1245
23678W        W41202  14.484  11.184   4.426 -0.0177  0.0754 -0.2085
23679W        W41203  10.272   0.632  17.563  0.0086  0.0876 -0.0521
23680W        W41204  12.137   5.978   4.755  0.0144  0.2076  0.0245
23681W        W41205  12.662  12.563  13.149  0.0082  0.0161  0.1885
23682W        W41206  14.920   9.763   0.447  0.1217 -0.2045  0.2580
23683W        W41207  15.686   0.980   1.162 -0.1053  0.0532 -0.0549
23684W        W41208   1.077   7.446   0.337  0.3105 -0.0504  0.2220
23685W        W41209  15.789   1.235   0.598 -0.1857 -0.1896  0.0043
23686W        W41210  12.426  10.822  16.467  0.0236 -0.2087 -0.1073
23687W        W41211  16.420  14.844   2.834 -0.0688  0.2748  0.2685
23688W        W41212  13.136  13.455  13.322  0.3661  0.0032  0.1458
23689W        W41213   7.989  12.557   4.045  0.1193  0.3296 -0.1348
23690W        W41214   7.397   9.362   0.793 -0.1515 -0.0697 -0.2088
23691W        W41215   0.268  15.751  16.767 -0.1806 -0.1387 -0.0198
23692W        W41216   8.513   2.059   1.153  0.2563  0.1008  0.3045
23693W        W41217  13.265  15.079   2.529 -0.0410  0.1121 -0.1210
23694W        W41218  11.039   8.247  14.801 -0.4070 -0.0397  0.0775
23695W        W41219   9.837  13.441   1.407 -0.2364  0.2124 -0.0079
23696W        W41220  15.728  12.256   2.103 -0.3893  0.1519 -0.0432
23697W        W41221  17.017   9.732  13.135 -0.1667 -0.1190 -0.1724
23698W        W41222   4.346  15.763   3.389 -0.2899 -0.2367  0.0963
23699W        W41223  17.210   2.457  14.129 -0.2609 -0.3049 -0.0288
23700W        W41224   2.115   4.826  16.651 -0.2803 -0.3800  0.2800
23701W        W41225   2.254  17.234   2.712  0.0837  0.1763 -0.0798
23702W        W41226   4.315   9.368  16.964 -0.0091 -0.0554 -0.0225
23703W        W41227  14.512   1.593  11.898  0.0477  0.1490 -0.1754
23704W        W41228   6.522  10.281   1.268  0.0764 -0.0155 -0.0155
23705W        W41229   7.511   4.286   3.152 -0.1269  0.1532 -0.0636
23706W        W41230  15.690   2.812   2.870 -0.0840 -0.1060 -0.0682
23707W        W41231  11.196   1.471  16.154 -0.1503  0.2470 -0.2215
23708W        W41232  14.021   4.871   4.497  0.1893 -0.1620 -0.4409
23709W        W41233   5.241   9.755  13.533 -0.1539  0.1591  0.0331
23710W        W41234   5.975   2.046  16.015  0.0186  0.2791  0.0469
23711W        W41235   9.470   5.353  14.790 -0.0054 -0.0726 -0.1307
23712W        W41236  14.106   6.394  16.068 -0.1701 -0.0175 -0.0851
23713W        W41237  13.392  10.772  16.914  0.1301  0.1226  0.2077
23714W        W41238  16.601   9.482   3.699 -0.1136  0.0164 -0.1944
23715W        W41239  14.688  14.380  13.537  0.1105 -0.0166 -0.1021
23716W        W41240   2.678   6.301  16.909 -0.1521 -0.0906 -0.0648
23717W        W41241  14.850  12.467   1.298  0.2469 -0.0612  0.0061
23718W        W41242  13.412   6.083  15.695 -0.0245  0.0873 -0.2602
23719W        W41243   1.539  11.255   4.146  0.1764  0.2635 -0.0911
23720W        W41244   8.148   9.536   0.263 -0.0800  0.2064 -0.4273
23721W        W41245  16.536  13.350   1.126  0.4095 -0.0032  0.0578
23722W        W41246  12.514  12.978   5.216  0.0438  0.0821  0.1821
23723W        W41247   6.637   9.038  15.794  0.1450  0.0105 -0.0113
23724W        W41248  14.952   7.458  16.678 -0.1198  0.1055  0.1852
23725W        W41249   4.635   1.617   6.256 -0.0631 -0.0124 -0.1786
23726W        W41250   6.573   0.219  15.725 -0.1013  0.1632  0.0956
23727W        W41251   9.922  11.160   0.316  0.2709 -0.2490 -0.1786
23728W        W41252  13.871  11.524  15.501  0.0082  0.0569  0.2606
23729W        W41253   1.893   8.866  16.027  0.1571  0.2086 -0.0542
23730W        W41254  11.564   8.906   4.087 -0.0441  0.2002  0.3915
23731W        W41255   6.568   7.391   3.260 -0.1219  0.0128 -0.1257
23732W        W41256   8.021   5.911  13.453  0.0732  0.1310  0.0488
23733W        W41257   1.756  12.481   3.471  0.0483 -0.1014 -0.2430
23734W        W41258  10.908  12.441   0.942 -0.2489  0.0922  0.0976
23735W        W41259  14.306   4.150   2.629  0.2037  0.1848  0.2637
23736W        W41260   2.208  11.878   1.206  0.3893 -0.0040  0.3733
23737W        W41261  16.515   9.176  13.036 -0.2140  0.2875 -0.2659
23738W        W41262  11.986   2.981   2.188  0.0097  0.0222 -0.0494
23739W        W41263  14.513  12.827  14.756 -0.0672 -0.0473  0.1217
23740W        W41264   7.363  13.782  17.494 -0.2405  0.1288  0.0742
23741W        W41265   2.486   8.018   5.707  0.2121 -0.1309  0.1655
23742W        W41266   6.463  16.649   3.293 -0.4295  0.0844  0.2681
23743W        W41267   0.329  13.027  14.455  0.3465 -0.2608 -0.1983
23744W        W41268  15.491  11.948   3.910 -0.1966  0.0948  0.1416
23745W        W41269  12.520   8.963  14.523  0.0895  0.1599 -0.0819
23746W        W41270   3.209   0.905  15.719  0.0301 -0.2427 -0.2564
23747W        W41271  12.859  13.760   1.781  0.1280 -0.0062  0.0536
23748W        W41272   8.576  10.075   0.049 -0.1444 -0.1288  0.1855
23749W        W41273  11.973   3.598  15.667  0.0761 -0.0720  0.1808
23750W        W41274  11.939   5.171  16.419 -0.1366  0.3508  0.0311
23751W        W41275  16.244   6.268   2.854 -0.1129 -0.1582 -0.5323
23752W        W41276  11.781  15.084  16.910  0.1381  0.3102 -0.1506
23753W        W41277   9.661   9.802   5.792  0.3041  0.2168 -0.2239
23754W        W41278  14.441  13.710  16.735 -0.0657  0.0561  0.0520
23755W        W41279  13.624   1.284  17.197  0.0467  0.0588 -0.3056
23756W        W41280   8.367   9.697   5.065  0.0444 -0.0569  0.2007
23757W        W41281  14.346   9.120  11.804  0.0605  0.0186  0.0971
23758W        W41282  12.947   8.170   5.465  0.0445  0.0676  0.0956
23759W        W41283   5.756  13.746   3.406  0.0475 -0.2832  0.1646
23760W        W41284  13.737  15.594  14.304 -0.3352 -0.1010  0.1069
23761W        W41285  11.336   9.587   5.806 -0.0632 -0.0321 -0.1454
23762W        W41286  14.773  12.141  16.211 -0.0981  0.3606  0.2049
23763W        W41287  10.577   9.165   0.973  0.0474 -0.2793 -0.2637
23764W        W41288   4.073   3.162  16.471  0.1365 -0.2962 -0.1624
23765W        W41289   5.441  16.044  16.044 -0.0395  0.0120 -0.1465
23766W        W41290  16.329   4.972  15.744  0.0464  0.2122 -0.0831
23767W        W41291   9.924   9.907  12.645  0.0651  0.0187 -0.3244
23768W        W41292  10.345  15.383  17.183  0.0768  0.1047 -0.0238
23769W        W41293   2.709  13.017  15.688 -0.1186 -0.1267  0.0517
23770W        W41294   6.336  15.249   0.486 -0.1457  0.0386  0.1170
23771W        W41295   9.547   9.318  12.524 -0.2583  0.3617 -0.2445
23772W        W41296  12.281  11.045   0.904  0.2255 -0.2539  0.4439
23773W        W41297  10.415   9.249   2.844 -0.2598 -0.1851 -0.3155
23774W        W41298   5.234   0.250  13.048 -0.3223  0.2998  0.0416
23775W        W41299   4.629  13.387  15.038  0.2898  0.0453  0.1746
23776W        W41300   8.174  15.613   3.450 -0.0862 -0.1820 -0.0757
23777W        W41301  12.029  14.730  16.577  0.2246  0.0605  0.2673
23778W        W41302  16.633  10.790  12.291  0.1730 -0.1716 -0.0566
23779W        W41303  11.759  13.254   2.556 -0.1716  0.0797 -0.0952
23780W        W41304  15.182  13.543  14.771 -0.1885 -0.3544  0.1782
23781W        W41305  14.119   4.806   3.216  0.2698 -0.1881  0.2456
23782W        W41306  10.093  12.531  16.727  0.2213 -0.0342 -0.2196
23783W        W41307   5.492  17.042   0.204 -0.1307  0.0156 -0.2761
23784W        W41308   0.268   5.873   4.095 -0.1488  0.0311  0.3119
23785W        W41309  11.063   9.843  12.185 -0.2005 -0.0421  0.1515
23786W        W41310  11.102  14.608  16.746 -0.0910 -0.0249  0.0338
23787W        W41311   6.597   4.162  13.766  0.1204 -0.0567 -0.1055
23788W        W41312   2.950   9.613   1.044  0.1601  0.1096 -0.0604
23789W        W41313   6.637   2.247   5.828  0.2133 -0.1811  0.3042
23790W        W41314  11.761  13.702  13.607  0.1155 -0.0908  0.2135
23791W        W41315  11.033   2.217   4.280  0.1400  0.3657 -0.1199
23792W        W41316  13.709   6.712  15.665  0.2132  0.0808  0.2730
23793W        W41317  10.045   7.471  16.892 -0.1317  0.1255 -0.1652
23794W        W41318   6.747   2.878  16.205  0.1277  0.0342  0.1758
23795W        W41319  17.233   5.853   5.292  0.1043  0.0676 -0.1466
23796W        W41320  10.393   9.612   2.203  0.2374  0.4233  0.0744
23797W        W41321   8.286  16.543   3.112 -0.2432  0.0410 -0.0179
23798W        W41322  14.761   9.831   2.563 -0.0488 -0.0046  0.3474
23799W        W41323   2.717  14.941   0.939  0.1604 -0.1474 -0.0506
23800W        W41324   9.436  14.950  17.001 -0.0306 -0.1326 -0.0251
23801W        W41325   4.702   0.457   4.829 -0.0993  0.0502  0.0490
23802W        W41326  10.022  15.722   2.664  0.2707 -0.2810  0.0202
23803W        W41327  11.595   5.250  12.811  0.2855  0.1611 -0.1428
23804W        W41328  11.049  15.602  14.423 -0.1307 -0.2797 -0.0859
23805W        W41329   2.300   6.226  13.879  0.1608 -0.3620 -0.4584
23806W        W41330   3.185   4.468   2.190  0.0461 -0.0688 -0.1432
23807W        W41331   0.470   9.743  12.469 -0.1043 -0.1355  0.1082
23808W        W41332   5.182   2.649   0.803 -0.3788 -0.0681  0.1010
23809W        W41333   9.415   7.725  14.259 -0.0737  0.2071  0.3064
23810W        W41334  11.245  11.968   5.808 -0.1471 -0.1582 -0.1864
23811W        W41335   9.782   1.270   3.521 -0.0557  0.0699  0.2500
23812W        W41336   5.945  13.966   5.478  0.0204  0.1840 -0.0318
23813W        W41337   2.620  10.992   1.219  0.0492 -0.1483 -0.3814
23814W        W41338   8.713  10.923  15.407  0.0601 -0.1138  0.0874
23815W        W41339  14.389   6.050  15.771 -0.2108  0.2038  0.0544
23816W        W41340  13.306   0.227   3.862  0.0311  0.0634  0.2267
23817W        W41341  10.853  12.466   2.482 -0.1703  0.1104 -0.1267
23818W        W41342  13.691   4.414  14.111 -0.1158 -0.0503 -0.1256
23819W        W41343  16.159   1.260  16.995  0.0311 -0.0655  0.2079
23820W        W41344   7.609   4.682  15.983 -0.0810  0.0865  0.0758
23821W        W41345  12.017   5.820  15.104  0.1373 -0.0340 -0.1887
23822W        W41346   5.692  10.715  15.957  0.0585 -0.0534  0.0766
23823W        W41347  10.331  12.056   2.203  0.3231  0.0274 -0.0385
23824W        W41348   7.086   0.366  12.803 -0.0971  0.0834 -0.2694
23825W        W41349   3.403  16.165   4.762  0.2200 -0.3841 -0.2067
23826W        W41350  11.172  14.824   1.718  0.1110 -0.0420  0.1278
23827W        W41351  13.089   9.970   4.096 -0.2379  0.0049  0.3169
23828W        W41352  11.787  11.641  16.177 -0.0389  0.0204  0.2737
23829W        W41353  15.747   7.211  16.298 -0.2586 -0.0559 -0.0258
23830W        W41354   9.459   6.265  13.897  0.2994  0.0492  0.0602
23831W        W41355   4.170   9.803   5.681 -0.2740 -0.1326 -0.0290
23832W        W41356   0.345   7.973  14.410 -0.2492 -0.0927  0.2270
23833W        W41357  14.824  13.943  14.601  0.1535 -0.0587  0.4395
23834W        W41358  10.331  10.415   5.559  0.2294  0.1644 -0.1987
23835W        W41359  16.131   2.371   1.864  0.1149 -0.0859  0.0699
23836W        W41360  10.141  10.575  13.780  0.0983  0.0934  0.2630
23837W        W41361  12.250  11.485   3.228 -0.0724 -0.0308  0.1846
23838W        W41362  13.719  12.176  14.700  0.0438  0.1529  0.0335
23839W        W41363   7.267   0.924   2.220 -0.1149 -0.0000 -0.3168
23840W        W41364   1.752   4.916   0.209 -0.0724  0.0317 -0.1209
23841W        W41365  16.539  16.099   3.312 -0.2117 -0.0689 -0.0669
23842W        W41366  14.209   5.481  13.330 -0.0506 -0.1896 -0.1206
23843W        W41367  10.719  13.318  17.420 -0.1782 -0.2583 -0.3016
23844W        W41368   9.287  10.958  11.927 -0.4643 -0.3123 -0.0301
23845W        W41369  11.849  11.814   4.799  0.2064  0.0348  0.1973
23846W        W41370   5.692  13.432  16.843  0.0668 -0.2525  0.0016
23847W        W41371   6.829   3.943   2.331  0.2007  0.0223 -0.0300
23848W        W41372   9.423  10.859   4.034  0.0367  0.1798  0.0022
23849W        W41373   1.537   3.751  12.440 -0.1693  0.2038  0.1993
23850W        W41374   1.546   1.307  13.320  0.1774 -0.0604 -0.1020
23851W        W41375   7.393   0.343  16.180  0.3542 -0.1639  0.1139
23852W        W41376  16.427   5.988  13.058 -0.0311  0.0368 -0.4121
23853W        W41377   4.530  15.733  13.322 -0.1562 -0.0898  0.0684
23854W        W41378   9.978   9.460   4.376 -0.0640  0.0946  0.0031
23855W        W41379   7.193   7.846  12.475 -0.0643  0.1321 -0.1817
23856W        W41380   1.973   8.336  17.376 -0.1430  0.2770  0.1379
23857W        W41381   4.126   7.786  12.277 -0.0664 -0.0679  0.0774
23858W        W41382   6.302   5.348  13.323 -0.0544  0.1264 -0.2222
23859W        W41383  16.557   0.643   0.541 -0.0673 -0.0896  0.1169
23860W        W41384   2.162   2.327  15.140  0.1194  0.1780 -0.1285
23861W        W41385  17.102  14.749   1.211 -0.0938  0.0626 -0.1470
23862W        W41386  10.340   2.832  12.183 -0.3658  0.1498 -0.0763
23863W        W41387  14.273  12.280  14.247  0.0695 -0.6217  0.1784
23864W        W41388  15.016   1.525   0.620 -0.0642  0.0083 -0.2579
23865W        W41389   9.877  11.411   5.045 -0.0605  0.0056 -0.1791
23866W        W41390   8.845  13.027   2.410  0.2461 -0.0569  0.2150
23867W        W41391   5.007   2.954  14.697  0.2073 -0.2876 -0.1948
23868W        W41392   0.821   5.086  13.314  0.0955  0.1350  0.1474
23869W        W41393   0.235   0.179  16.237  0.3686 -0.2106  0.0676
23870W        W41394  14.157  11.264  13.286  0.1157  0.2095 -0.2276
23871W        W41395  12.142  16.422  14.697 -0.2930  0.1684  0.0439
23872W        W41396  12.522  11.023   1.423  0.0853  0.0223  0.1285
23873W        W41397  10.728   2.429   3.966  0.0217 -0.2675 -0.0781
23874W        W41398  12.863   0.780  13.318  0.1556 -0.0267  0.0111
23875W        W41399   1.524  15.339  16.929  0.0759  0.3490 -0.2487
23876W        W41400   4.794   4.065  17.567 -0.0330 -0.2504 -0.3300
23877W        W41401  10.146  11.077  16.568 -0.0119  0.2074 -0.1545
23878W        W41402   9.188   9.909   4.345  0.0683 -0.0513 -0.0421
23879W        W41403  15.383  13.588  13.875 -0.1571 -0.1387  0.1553
23880W        W41404  12.288   4.858  16.302 -0.0196  0.0623 -0.1376
23881W        W41405  16.652  12.921   5.494 -0.1620  0.0800  0.1974
23882W        W41406   6.500   9.038   1.273 -0.1794 -0.0778 -0.1136
23883W        W41407   5.310   0.317   4.158 -0.2386  0.1006  0.1350
23884W        W41408  11.616   9.470  17.544  0.0216  0.2382 -0.0335
23885W        W41409  13.648   3.744   3.687  0.3859 -0.3664  0.2213
23886W        W41410  14.499  15.887   1.991 -0.0209  0.0247  0.1794
23887W        W41411  12.505   1.452   1.598 -0.0870  0.1530 -0.1527
23888W        W41412   9.475   9.908  15.211 -0.0425 -0.0706 -0.0731
23889W        W41413   1.712  13.888  14.487 -0.0405  0.0932  0.0920
23890W        W41414  13.936  10.021   5.074  0.0007  0.0962 -0.2535
23891W        W41415   1.473   2.211   4.719  0.1152  0.1584 -0.0330
23892W        W41416   4.168  13.772  13.813 -0.1474  0.1631  0.2754
23893W        W41417  13.005  12.443   4.620 -0.0551  0.2795  0.0400
23894W        W41418   9.094  16.588   2.793  0.0723  0.2424 -0.0344
23895W        W41419   1.456   3.090   3.164  0.0891 -0.3604 -0.3020
23896W        W41420   3.885  13.694  14.781  0.2322  0.1464 -0.3183
23897W        W41421   1.718   8.057   0.477 -0.0026  0.1097  0.2062
23898W        W41422   9.653   6.206   5.834  0.0485 -0.2032  0.1503
23899W        W41423   7.533  10.376   3.747 -0.1807  0.0587  0.1999
23900W        W41424  16.450  12.438   3.517 -0.1334  0.1020  0.0360
23901W        W41425   2.611   1.562   5.053 -0.0577  0.4274  0.0652
23902W        W41426   2.424   5.723   0.930  0.1120 -0.0133  0.1420
23903W        W41427   1.003  11.453   4.933 -0.1369  0.0962  0.1101
23904W        W41428  13.906   6.409  12.809  0.1321 -0.1769 -0.0576
23905W        W41429  10.759  12.965  14.256  0.0996 -0.2152  0.0096
23906W        W41430   9.671   8.922   5.233  0.2196  0.3779  0.2507
23907W        W41431   4.118  14.639  16.179  0.0557  0.0417 -0.0955
23908W        W41432   9.704   7.348  16.022 -0.0291 -0.1116 -0.1350
23909W        W41433   3.411  13.312   5.580  0.0752  0.1477  0.0143
23910W        W41434   2.283   5.576   4.508  0.0253  0.1068 -0.2312
23911W        W41435   7.780   2.539  12.654 -0.3368  0.0794  0.0710
23912W        W41436   4.163  13.661  11.574 -0.2389  0.1429 -0.0207
23913W        W41437  10.375   1.699  15.551  0.2179  0.0702  0.1710
23914W        W41438  15.280  13.522   5.888 -0.0292 -0.0183  0.2636
23915W        W41439  11.793   4.684   3.438  0.0289  0.1438 -0.1019
23916W        W41440   8.203   0.529  15.681 -0.3597 -0.0558  0.1355
23917W        W41441  11.540   5.310  17.201  0.0597  0.1301  0.1197
23918W        W41442   5.832  16.535   1.879 -0.0347 -0.1607  0.3622
23919W        W41443  13.525   9.970   1.794 -0.1538 -0.0379 -0.0799
23920W        W41444  16.549  16.560   0.306  0.0715 -0.2357 -0.0911
23921W        W41445   3.840   0.638   2.308 -0.1978 -0.0371 -0.0559
23922W        W41446   2.345   4.535  14.017 -0.0723  0.0899 -0.1024
23923W        W41447   3.266  10.177   1.617  0.1654 -0.0254  0.1872
23924W        W41448  11.163   2.066   0.172  0.3644  0.3236 -0.0821
23925W        W41449   7.604   2.083  13.518  0.0846  0.1156  0.3680
23926W        W41450  10.615   6.255   4.935 -0.3573  0.2702  0.3292
23927W        W41451   3.800   6.942   0.674 -0.3161  0.2869 -0.2745
23928W        W41452  17.137   4.123  13.527  0.2671  0.1066  0.2673
23929W        W41453  11.133   3.579  15.974  0.1497  0.3383 -0.0838
23930W        W41454   6.630   2.856   5.201  0.3105  0.1161 -0.2002
23931W        W41455   9.530   5.485  15.321 -0.2687 -0.1574 -0.2622
23932W        W41456  16.263  16.059  16.447  0.0981  0.1067 -0.0411
23933W        W41457   8.214   1.349   0.741  0.2061 -0.2356  0.0790
23934W        W41458  11.854   5.957  13.236 -0.0542 -0.1337  0.0621
23935W        W41459   8.649  14.703  13.006 -0.2389 -0.1312  0.3579
23936W        W41460  15.745   4.810  15.849  0.3297 -0.1179  0.2222
23937W        W41461  13.576  15.466   0.415 -0.1544 -0.0467 -0.0488
23938W        W41462  12.251  12.382  12.366  0.0393  0.0420  0.0938
23939W        W41463   5.730   6.107   5.103 -0.0362 -0.1400  0.1507
23940W        W41464   4.287   7.297  17.146 -0.1991 -0.1883  0.1823
23941W        W41465   4.958   5.685  13.849 -0.0998  0.1197  0.1694
23942W        W41466  14.612   7.493  17.104  0.2360 -0.1006 -0.0640
23943W        W41467  11.189   4.031   2.422 -0.2049  0.0276  0.0586
23944W        W41468   5.520  12.793   5.660 -0.2257 -0.3014  0.3051
23945W        W41469   0.945   3.972   2.116 -0.0788 -0.1076 -0.0920
23946W        W41470  13.399   2.296  13.222 -0.4037 -0.5848  0.0971
23947W        W41471   5.372  15.868  16.995  0.0047 -0.2785 -0.0470
23948W        W41472  12.933   0.411   1.365 -0.0503  0.2757  0.0473
23949W        W41473  16.573   3.862   4.363 -0.0357 -0.0578  0.1912
23950W        W41474   1.678  15.941  14.563  0.0954 -0.2121 -0.2149
23951W        W41475   8.851   6.192  13.318  0.0347 -0.0300 -0.2145
23952W        W41476  10.760   1.113   1.022 -0.3865  0.0744 -0.0532
23953W        W41477   5.610  11.331  17.632 -0.1665 -0.1896 -0.1691
23954W        W41478  12.378   5.313  16.653 -0.1475 -0.0403  0.1221
23955W        W41479  15.222   2.436  12.371 -0.0153  0.4219 -0.0577
23956W        W41480   9.008  14.840  17.198 -0.1491 -0.0670 -0.0173
23957W        W41481   0.812   1.446   1.856 -0.0472  0.3977  0.0851
23958W        W41482   6.647   8.033   0.761  0.1625 -0.1797 -0.0072
23959W        W41483  15.757  14.933  17.625  0.0214 -0.1164 -0.2719
23960W        W41484  11.434   5.706   1.797  0.1762  0.1322 -0.0908
23961W        W41485  14.835   6.314  15.601  0.2997 -0.2592  0.2980
23962W        W41486  10.269  14.545   5.584  0.1020  0.0190  0.0071
23963W        W41487  13.337  15.296   5.098  0.1060 -0.0084  0.2051
23964W        W41488  15.119   6.213   5.121 -0.1820  0.2195 -0.1319
23965W        W41489  10.815   8.005  17.279 -0.0228 -0.2559 -0.1303
23966W        W41490   3.390  13.514   2.520  0.3736  0.1033  0.0791
23967W        W41491   4.686   6.110  13.848  0.2176  0.1766  0.0843
23968W        W41492   8.398  17.054   1.822  0.0311  0.0697 -0.1090
23969W        W41493   3.898  12.152   5.892  0.1189 -0.1444  0.2781
23970W        W41494   6.037  10.126  17.553 -0.0300  0.3893 -0.0692
23971W        W41495  12.749   3.549  13.929  0.0445  0.1049 -0.0342
23972W        W41496   4.629  14.187  17.272 -0.0083 -0.1184 -0.1521
23973W        W41497  12.383   5.579   4.578  0.0126  0.2091 -0.1036
23974W        W41498   7.805  16.949  11.909  0.0184 -0.0802  0.0736
23975W        W41499   4.804   5.237  15.216  0.3428 -0.0454  0.1617
23976W        W41500  11.076  14.927   1.137  0.0651  0.0392 -0.0791
23977W        W41501  10.384  13.480   3.157 -0.1398 -0.3141  0.1543
23978W        W41502  12.790  15.303   5.021 -0.0994  0.1608 -0.6089
23979W        W41503   3.177   1.857   5.125 -0.1860 -0.1961  0.1117
23980W        W41504   2.658   9.029  15.350 -0.1082 -0.2141  0.4318
23981W        W41505  16.548   5.004   2.185  0.1725  0.1124  0.0574
23982W        W41506   5.496   4.798  13.161 -0.0888  0.0157 -0.0464
23983W        W41507   2.628   3.055  13.941  0.2466 -0.1829  0.1068
23984W        W41508  14.915  15.570  12.275  0.1481  0.0500  0.2451
23985W        W41509   6.488  14.940   4.753 -0.1730  0.2124  0.2689
23986W        W41510   1.302  11.114   2.353 -0.3759  0.2632  0.2048
23987W        W41511  14.613  14.606   2.430 -0.2849  0.1519  0.0114
23988W        W41512   7.784  14.782   3.738  0.0708 -0.0696 -0.1872
23989W        W41513  15.803   3.028  12.810  0.1501  0.1934  0.0047
23990W        W41514   9.133   9.061   4.260 -0.0068  0.1273  0.2355
23991W        W41515  15.514   9.322  16.440  0.1353 -0.0815  0.0914
23992W        W41516  12.277   6.554  14.217  0.0490 -0.1252  0.2774
23993W        W41517  16.287   8.194   1.319  0.3498 -0.0096 -0.1142
23994W        W41518   6.401   4.831   0.865 -0.1966  0.1441 -0.1858
23995W        W41519  11.571  13.349  14.620 -0.2738 -0.2021  0.1206
23996W        W41520  11.980   9.960   1.223  0.0458  0.0752  0.1486
23997W        W41521   5.452  15.429  13.806  0.2452  0.1239  0.1250
23998W        W41522   5.424   0.166  15.434  0.2927 -0.1265  0.1426
23999W        W41523  15.261   5.476   1.087  0.1535  0.2072 -0.2591
24000W        W41524   4.993   6.687  14.223 -0.0479 -0.1164  0.1526
24001W        W41525   9.597  11.202   3.632  0.0910  0.1505  0.0324
24002W        W41526  11.907   1.034   4.566 -0.0105  0.2599 -0.0261
24003W        W41527   3.149  11.928   3.067 -0.1873  0.0761  0.1171
24004W        W41528   2.761  10.398   0.633 -0.0510  0.0483  0.1575
24005W        W41529   6.186  16.719  15.083  0.1332 -0.0643 -0.0404
24006W        W41530   4.550  13.268  14.504  0.0563 -0.1597  0.2622
24007W        W41531   0.713   4.281  14.206  0.1390  0.1180 -0.1433
24008W        W41532   8.773   0.224   1.759  0.0569 -0.3259 -0.1889
24009W        W41533  16.258   4.929   5.051  0.0470  0.0177 -0.3278
24010W        W41534   3.711   8.048  14.888  0.1238  0.2394 -0.3688
24011W        W41535   5.588   1.735   1.256  0.0386  0.2386  0.1488
24012W        W41536   6.697   5.808  17.657 -0.2249 -0.1633  0.0838
24013W        W41537  16.649  16.166  17.634  0.1687  0.2671 -0.0068
24014W        W41538  11.271  10.316   5.257 -0.0025  0.0809  0.0929
24015W        W41539  12.701   3.382   1.799  0.1211 -0.1168  0.0372
24016W        W41540   2.217  13.065   1.213 -0.0456  0.2842  0.1210
24017W        W41541  16.822   2.963  15.983  0.2491 -0.0958 -0.1414
24018W        W41542  12.147   1.316  12.865  0.2381  0.3120  0.0256
24019W        W41543   2.288   7.020  12.651 -0.2671  0.2110  0.0651
24020W        W41544   7.248  16.668  12.180 -0.1384 -0.1359  0.1968
24021W        W41545  11.106   4.960  15.792  0.3893 -0.0886  0.1157
24022W        W41546   0.525   8.115   1.316 -0.2153  0.2843 -0.1002
24023W        W41547   1.731   9.559   3.322 -0.1050  0.2301  0.0953
24024W        W41548  10.001   6.790  12.318 -0.0555  0.0492  0.0308
24025W        W41549   4.819  13.715  17.354  0.0902 -0.3443  0.2231
24026W        W41550   5.282  10.594   0.983  0.0140 -0.3353  0.0980
24027W        W41551   5.684  15.385  15.493  0.0342 -0.2178 -0.0170
24028W        W41552   7.348   2.648   1.038  0.3090  0.0379 -0.1828
24029W        W41553   2.904  16.193   4.230 -0.0236 -0.0600 -0.0674
24030W        W41554   8.340   5.082   2.511  0.0713 -0.0988  0.3454
24031W        W41555  13.936  10.002  12.960  0.0835  0.2765 -0.0546
24032W        W41556   2.647  13.612  14.222 -0.0287 -0.2764 -0.0363
24033W        W41557   9.526   4.190   0.103 -0.0641  0.1409  0.1928
24034W        W41558   3.166   6.079  15.312  0.0616  0.1173 -0.1769
24035W        W41559   0.895  16.712   0.481 -0.1628 -0.1163 -0.0771
24036W        W41560   3.034  17.018   2.739  0.4046  0.3425 -0.0344
24037W        W41561   3.607  12.280  17.179 -0.0528 -0.1087  0.1531
24038W        W41562   6.938  15.262  13.855 -0.2689 -0.0924  0.4346
24039W        W41563  10.788  15.751   1.360  0.0460 -0.1129 -0.0395
24040W        W41564   0.688   4.661  15.383  0.1010 -0.0262 -0.2151
24041W        W41565   6.384   7.658  15.540  0.3008  0.1849  0.1464
24042W        W41566  12.876   9.563   1.074 -0.1422 -0.1487  0.2332
24043W        W41567   7.912   6.781  12.249  0.1028 -0.0856  0.1158
24044W        W41568  13.905  15.869   5.296  0.0912 -0.2263  0.0361
24045W        W41569   4.175  16.742  12.479 -0.1230  0.0886 -0.0331
24046W        W41570   6.045   8.401  15.862  0.0633  0.1344 -0.3077
24047W        W41571   8.923   6.912  16.789 -0.0547  0.0192  0.3971
24048W        W41572  15.576  13.004  12.181  0.0704  0.1303 -0.3067
24049W        W41573  12.564  12.003   4.417  0.0270  0.0125 -0.0228
24050W        W41574  16.407  12.536  12.026  0.2171 -0.2096 -0.1705
24051W        W41575  13.879  16.700   5.201  0.0596 -0.0744 -0.0638
24052W        W41576   7.866   1.089   4.157  0.1540  0.0910 -0.1880
24053W        W41577   0.451  12.269  15.322  0.1844 -0.2846  0.3040
24054W        W41578   7.701  14.957   5.090  0.1214  0.0718 -0.3267
24055W        W41579   3.179  15.074  12.420  0.1384 -0.0057 -0.0225
24056W        W41580  12.591  16.377  17.440  0.3575  0.1342 -0.1105
24057W        W41581  13.353  11.294   5.073 -0.0451 -0.3040 -0.2761
24058W        W41582   1.239   8.039   1.853 -0.0236  0.0927 -0.1616
24059W        W41583   2.812  15.390  13.283  0.4251  0.0580  0.1856
24060W        W41584  16.853   8.359  15.887 -0.3310 -0.2133 -0.2563
24061W        W41585  12.824  14.546  15.372 -0.0790  0.2374  0.1053
24062W        W41586   3.447  13.921   0.955 -0.0178 -0.1117  0.1214
24063W        W41587   6.180  12.073  17.548 -0.1803 -0.1478  0.2178
24064W        W41588  16.890  10.668  14.964  0.3137  0.0192  0.2144
24065W        W41589  17.075   5.022   2.871  0.0975  0.0542 -0.1172
24066W        W41590   2.236  15.151   2.894  0.2773 -0.1488  0.1148
24067W        W41591   8.481   9.193  11.853  0.0838 -0.1569  0.1150
24068W        W41592  13.229   3.647   3.449 -0.0570  0.1461 -0.0374
24069W        W41593  16.629  15.429  16.675 -0.3128 -0.0756 -0.1501
24070W        W41594  14.067  11.473  14.085 -0.0760 -0.0390 -0.3705
24071W        W41595  11.353   6.229  15.657  0.0812 -0.3956  0.0631
24072W        W41596   2.827   3.829   1.545  0.2599 -0.1042  0.0728
24073W        W41597   2.055   0.443   3.945 -0.0296  0.3043 -0.0113
24074W        W41598   5.969  16.791   4.060 -0.0290 -0.1761 -0.2502
24075W        W41599  11.182   7.703   0.961 -0.0509  0.0246 -0.2078
24076W        W41600   9.059   6.911   2.357 -0.2566 -0.0236  0.3337
24077W        W41601   2.181   6.251  15.442  0.1490 -0.3150  0.0695
24078W        W41602  15.177   1.665  16.073 -0.1361 -0.2134 -0.0631
24079W        W41603  10.060   2.009   2.995 -0.1538 -0.1121 -0.1618
24080W        W41604  14.210   0.855   4.875 -0.3512  0.1817  0.0951
24081W        W41605   3.403  16.305  16.482 -0.0170 -0.0461 -0.0879
24082W        W41606   0.195  13.045   0.044  0.0319 -0.0695 -0.3172
24083W        W41607  11.713  17.049  16.711  0.1733  0.2580  0.0084
24084W        W41608  16.526   3.833   3.043  0.0863  0.2786 -0.0037
24085W        W41609  10.529   9.130   2.103  0.2837  0.1335  0.2570
24086W        W41610  16.192  15.278  12.914 -0.2007  0.0090  0.1926
24087W        W41611  10.010   9.712  15.066  0.3622 -0.0664 -0.0154
24088W        W41612   2.692   3.463   3.513  0.0270 -0.2535  0.0701
24089W        W41613  13.233   3.796   0.136  0.0798 -0.0602 -0.2912
24090W        W41614  11.505  12.875   2.714  0.1880  0.0226 -0.1491
24091W        W41615  14.324   7.300   2.246  0.2859 -0.0711  0.0273
24092W        W41616  12.932  14.789  17.098  0.3741  0.0034  0.1002
24093W        W41617   0.474   4.725  14.457  0.1840 -0.2783  0.1126
24094W        W41618  16.777  17.236   6.169  0.2002  0.1379 -0.0550
24095W        W41619  11.908   5.576  15.563  0.2152 -0.1381 -0.0532
24096W        W41620  13.007   4.696   3.734  0.0373 -0.1188 -0.0369
24097W        W41621  14.301  12.814  15.645 -0.2142 -0.0248  0.2664
24098W        W41622  17.195   2.507   2.057  0.1562 -0.3094  0.1008
24099W        W41623  11.288   4.717   1.630 -0.1255  0.0874  0.2131
24100W        W41624   2.116  10.483  15.187  0.1337 -0.0161  0.2402
24101W        W41625   3.179  13.782   2.881  0.3308 -0.0572  0.1296
24102W        W41626   4.000   8.927  17.399 -0.0933  0.1788  0.0877
24103W        W41627  15.556  12.028   5.208  0.1226  0.0343 -0.2971
24104W        W41628   0.641   6.409  14.680  0.1380 -0.0412  0.1567
24105W        W41629  16.605  13.864   6.387 -0.4127  0.1065  0.1448
24106W        W41630   0.966  10.390   5.007  0.2810 -0.1608 -0.0510
24107W        W41631  15.677  13.992   4.931 -0.0767  0.1230 -0.0545
24108W        W41632   7.250   1.422   0.322  0.1638  0.0150  0.0685
24109W        W41633  16.425   3.885   0.318 -0.3297 -0.0370 -0.1930
24110W        W41634  11.855  12.111  12.624  0.1328  0.0314  0.0771
24111W        W41635   8.325   4.618  14.904  0.2267 -0.0292  0.2614
24112W        W41636   1.629  14.812  13.024  0.1299  0.0637  0.2115
24113W        W41637  11.940  10.060  13.661  0.1981  0.2501  0.2059
24114W        W41638   6.478   7.307  16.076 -0.1879  0.3274  0.1426
24115W        W41639  16.550  14.251  16.779  0.2246 -0.2112  0.1843
24116W        W41640  14.155   1.667   4.789 -0.0195 -0.2981 -0.0158
24117W        W41641   4.609   9.060  15.014  0.3745 -0.3394  0.2220
24118W        W41642  17.046   1.018  16.033  0.0879 -0.0433  0.0429
24119W        W41643   7.987  13.267   5.646 -0.1725 -0.3842  0.0998
24120W        W41644   0.858  16.814  13.095 -0.0269  0.0582 -0.1076
24121W        W41645  11.382   8.135  12.412  0.0700 -0.0019  0.0683
24122W        W41646   2.598  16.188  16.190 -0.0186 -0.1915  0.1446
24123W        W41647  14.161   1.177  16.718 -0.2634 -0.1078  0.1944
24124W        W41648  11.334  12.042  12.514  0.0644 -0.1671  0.1998
24125W        W41649  12.518   7.613   0.921  0.0898  0.3231 -0.2870
24126W        W41650   5.231   0.761  13.150 -0.2570 -0.2510  0.0474
24127W        W41651   6.481  11.019   3.607  0.2746 -0.0390 -0.0411
24128W        W41652  15.053  11.358   4.576 -0.0687 -0.1783 -0.0907
24129W        W41653   1.359   2.851  12.951 -0.0482 -0.3748  0.2873
24130W        W41654   7.827   1.315   0.383  0.0029 -0.0529  0.0172
24131W        W41655   6.003   8.566   2.857 -0.0957  0.2416  0.1158
24132W        W41656   3.094   1.888  12.055  0.1064  0.1125 -0.0804
24133W        W41657  15.146  10.229   2.729  0.1321 -0.2295 -0.1154
24134W        W41658   9.498  13.019   3.586  0.0986  0.1481 -0.1460
24135W        W41659   8.625   1.696  17.104 -0.0163  0.0292 -0.0118
24136W        W41660  17.181   2.525  16.045 -0.0989 -0.2509  0.0253
24137W        W41661   8.499  15.742  13.075  0.1184 -0.2607  0.2110
24138W        W41662   8.797   5.194  12.489  0.1358  0.2804 -0.1470
24139W        W41663   4.882   8.843   5.042 -0.3113  0.0442 -0.1442
24140W        W41664   1.798   2.575  14.228  0.0398  0.1932 -0.0660
24141W        W41665  15.883   7.644  11.362 -0.1921 -0.1182  0.1087
24142W        W41666   7.255   9.282   2.206  0.2043  0.0056 -0.0891
24143W        W41667   8.840   7.844   5.433  0.1837 -0.1860  0.2889
24144W        W41668  16.837   9.452  13.785  0.1538 -0.2204  0.2652
24145W        W41669  15.190  12.092  12.771 -0.0877 -0.0167 -0.3638
24146W        W41670   9.465  11.300  15.387 -0.1053  0.0854  0.2024
24147W        W41671  13.414  12.116  14.254  0.1129 -0.2519 -0.1909
24148W        W41672  10.539   2.017   2.111 -0.2970 -0.0695  0.2367
24149W        W41673   4.532  11.846  16.304  0.0708  0.0210 -0.2558
24150W        W41674  15.731   7.483  14.682 -0.2964 -0.0213 -0.0651
24151W        W41675   0.063   1.285   0.116 -0.1765 -0.0623 -0.1494
24152W        W41676   5.449  11.541   1.919  0.0697  0.0718  0.0190
24153W        W41677   0.144   7.021   1.575 -0.0607  0.0084  0.0108
24154W        W41678   6.559   5.051   3.596 -0.1557 -0.2796  0.0269
24155W        W41679  11.429   1.345   3.866  0.2554 -0.0002  0.1506
24156W        W41680   7.946   3.695  13.340 -0.2910  0.0908  0.5134
24157W        W41681   5.020   2.096   1.564  0.1327  0.1391  0.0669
24158W        W41682   0.355  15.419  12.972 -0.0621 -0.0026 -0.1223
24159W        W41683  15.517   3.910  17.150  0.0281  0.0674  0.1079
24160W        W41684   0.556  13.961   1.555  0.1349  0.2866 -0.0891
24161W        W41685   8.066   3.173  17.006 -0.3035 -0.1729  0.1142
24162W        W41686   7.183   4.427   2.280  0.1357  0.1342 -0.0238
24163W        W41687   9.748  14.328   6.733  0.1163  0.0460  0.1769
24164W        W41688   6.716  16.819   2.695 -0.1489 -0.2046 -0.2404
24165W        W41689   3.333   3.626   1.472 -0.3015  0.1326 -0.0611
24166W        W41690   8.069   9.910   1.872  0.4631 -0.1342  0.0754
24167W        W41691  16.864  14.618  16.178  0.2987 -0.1789  0.0229
24168W        W41692  15.377   2.106   2.721 -0.0022  0.0813 -0.0042
24169W        W41693  12.785  17.181   1.180  0.1589 -0.1767 -0.1234
24170W        W41694   9.840   5.787   1.387  0.4274  0.2244  0.0862
24171W        W41695   2.158  15.149   2.048  0.1104  0.1897  0.1358
24172W        W41696  11.095  14.645   3.439  0.2704 -0.1188  0.0377
24173W        W41697   8.374   7.441  14.937  0.0150  0.1794  0.3287
24174W        W41698   0.677   1.764  12.219  0.2160 -0.1008 -0.0732
24175W        W41699   8.617   2.992  16.814  0.3718 -0.0048 -0.2753
24176W        W41700  10.427  10.767   3.843 -0.0016 -0.0917  0.1158
24177W        W41701  15.759   1.200   0.091  0.4053  0.1481  0.0378
24178W        W41702  12.211   3.233   5.916  0.0035 -0.2046 -0.2955
24179W        W41703  14.273   3.280   0.417 -0.0766  0.0059  0.1996
24180W        W41704  17.026  11.073   2.084  0.2646 -0.0106  0.2524
24181W        W41705   3.484  17.145   3.918 -0.2011  0.1486 -0.0777
24182W        W41706  12.680  16.277   5.082  0.0958  0.1004 -0.2935
24183W        W41707   6.959   2.840  15.725  0.1861  0.1174 -0.1590
24184W        W41708   5.460  11.203   2.745 -0.1156  0.2548 -0.0536
24185W        W41709  13.640  16.850  15.519  0.3429  0.2367  0.3554
24186W        W41710   2.841  15.182  14.266 -0.1869  0.0605  0.0925
24187W        W41711  15.942  13.235   5.415  0.1532 -0.2115  0.0345
24188W        W41712  13.153   8.407   1.967 -0.0978  0.1859  0.0861
24189W        W41713  12.513   2.274  12.660 -0.1225  0.2685  0.4442
24190W        W41714   9.195  12.483   0.546 -0.1434 -0.1733 -0.0114
24191W        W41715   2.603   6.948   1.965 -0.1584 -0.0056 -0.1749
24192W        W41716   3.177  15.589  13.527 -0.4446 -0.1874  0.3453
24193W        W41717   6.020  15.099   2.135 -0.3138 -0.1368  0.1573
24194W        W41718   7.021  16.299   1.493 -0.0713  0.0947 -0.0881
24195W        W41719   9.988   3.719   0.450 -0.0783  0.4042  0.0926
24196W        W41720  13.229   9.792  14.126  0.0240 -0.0303 -0.1671
24197W        W41721  15.387  12.505  14.989 -0.2514 -0.0447 -0.0850
24198W        W41722   4.138   7.039  16.656 -0.2456  0.0864  0.1591
24199W        W41723   7.543  11.665  17.334  0.1008 -0.1020  0.0857
24200W        W41724  16.393   6.066  12.497  0.2226  0.1038 -0.2860
24201W        W41725   1.913   0.617   6.363  0.0119 -0.2003  0.2229
24202W        W41726  14.558   1.245   0.527 -0.0967  0.0317  0.0868
24203W        W41727  10.290  10.990  17.067  0.0896 -0.0560 -0.2188
24204W        W41728   2.043   8.773   1.105  0.1520 -0.3207  0.1343
24205W        W41729   4.285  13.009   3.858  0.1701 -0.0499 -0.0793
24206W        W41730   2.528  15.687  15.886  0.1953 -0.2017  0.3695
24207W        W41731   2.547   1.472   0.809  0.0265  0.1968  0.0643
24208W        W41732  12.844  16.196   1.941 -0.0232 -0.2783  0.1346
24209W        W41733   6.326   4.827  17.426  0.0609  0.0906 -0.1984
24210W        W41734   1.991  13.208   3.688  0.0638  0.1859 -0.0205
24211W        W41735  13.676  11.265  13.201 -0.2614 -0.1299  0.0151
24212W        W41736   3.625   4.464   2.494 -0.3724 -0.1680  0.0849
24213W        W41737  16.072   9.853   1.424  0.4180 -0.2998  0.0373
24214W        W41738  16.835  13.804   1.492  0.2645  0.0566 -0.4095
24215W        W41739  14.301  14.488  14.279 -0.0861  0.0495  0.0670
24216W        W41740  10.507  10.352  16.895  0.1308  0.1513  0.0516
24217W        W41741   3.577  11.569  17.092 -0.1096 -0.0654  0.2962
24218W        W41742  13.207   6.631  15.608  0.0364  0.0981 -0.2419
24219W        W41743   5.252   0.293   2.111 -0.0281  0.0991 -0.1357
24220W        W41744   3.063   5.813  12.750 -0.1203 -0.0327 -0.2601
24221W        W41745   7.415  12.255   1.487  0.2338  0.1057  0.0728
24222W        W41746  13.440   8.870  12.353  0.2465  0.3890 -0.2618
24223W        W41747   5.093   8.583   3.741  0.0421 -0.0243 -0.2454
24224W        W41748  16.900   5.846  13.220 -0.1123 -0.3045  0.0794
24225W        W41749  16.323   3.168   3.937 -0.1326 -0.2528  0.1052
24226W        W41750  16.134   2.661  12.598 -0.1244 -0.3592 -0.0358
24227W        W41751  11.812   6.663  16.658  0.0431 -0.0185 -0.0895
24228W        W41752   9.548   6.260   1.990 -0.0404 -0.0713 -0.0070
24229W        W41753  17.200  16.460  17.085 -0.1851  0.3436 -0.2438
24230W        W41754   2.882   6.697  13.691  0.2634  0.0327  0.1521
24231W        W41755   9.702  16.254  12.712 -0.1232  0.0691 -0.1219
24232W        W41756  16.243   0.417  14.632 -0.1272  0.1447 -0.0158
24233W        W41757   2.135   9.648  15.518 -0.1403 -0.0133 -0.0813
24234W        W41758  11.237   1.541   2.741 -0.2520  0.0225  0.1440
24235W        W41759   1.880   0.400  14.558 -0.0338  0.0108 -0.0450
24236W        W41760   6.804  10.659   2.912 -0.1804  0.0936 -0.2786
24237W        W41761  12.071   1.515   1.275  0.1155  0.0077  0.0478
24238W        W41762   0.798   8.373  13.513  0.1666  0.1630  0.2313
24239W        W41763  11.563  16.635  12.393  0.0048 -0.2728 -0.0242
24240W        W41764  17.211  16.116  12.961 -0.0463 -0.5176 -0.1143
24241W        W41765   1.912   9.981  13.350 -0.1199 -0.0651 -0.0650
24242W        W41766   9.496  16.028  17.120 -0.3722  0.1423 -0.3067
24243W        W41767  16.763  16.921   1.473 -0.0146  0.3381  0.2067
24244W        W41768   7.140   9.329   5.021 -0.3169  0.2869  0.2058
24245W        W41769   3.572   9.269  13.535 -0.3050 -0.3311  0.1453
24246W        W41770  13.455   8.475  15.936 -0.2955 -0.0808  0.1692
24247W        W41771   2.926   3.031   3.290  0.0416  0.0925  0.0123
24248W        W41772  14.454   1.272   1.066  0.0438  0.0256  0.1050
24249W        W41773  17.024   4.024   5.532 -0.1714 -0.0898  0.0973
24250W        W41774  10.854   0.248   1.081  0.2452 -0.1264 -0.1708
24251W        W41775  15.320  13.138  12.655 -0.2402  0.1191 -0.0384
24252W        W41776  15.475   9.746  16.704  0.0299  0.0361 -0.1159
24253W        W41777   5.818  16.356   1.399  0.1610 -0.1210 -0.0998
24254W        W41778   8.958  11.239  15.143 -0.0441 -0.3315 -0.3658
24255W        W41779   3.029  14.677   0.639 -0.1631  0.2658 -0.0648
24256W        W41780   2.615   2.243   2.198 -0.0232 -0.3527  0.1789
24257W        W41781   7.809   0.306  15.769 -0.0573  0.1446 -0.1559
24258W        W41782  12.948  11.664   5.004 -0.2846 -0.0574 -0.2882
24259W        W41783   7.385   6.577   1.182  0.1612  0.1099 -0.0303
24260W        W41784   6.614   0.647   4.286 -0.0297 -0.2500 -0.1225
24261W        W41785  15.289   0.328   4.605 -0.0612 -0.1147  0.0807
24262W        W41786   2.564   9.346   5.479  0.1801  0.0680  0.0238
24263W        W41787   6.717  10.215   0.733  0.1718 -0.0601 -0.1067
24264W        W41788   0.578   9.268  14.013 -0.1883 -0.3070 -0.1191
24265W        W41789  11.332   4.283   0.556 -0.0786  0.2757 -0.0556
24266W        W41790   4.049   9.198  15.701 -0.2153  0.0160 -0.2154
24267W        W41791   7.811   7.173   2.999  0.1489  0.1184  0.1047
24268W        W41792   7.619   0.595   3.342  0.0779  0.2800 -0.0215
24269W        W41793  12.086   9.106  15.376 -0.1144  0.0886  0.4110
24270W        W41794   8.655  12.089   2.035  0.2714  0.0077  0.2159
24271W        W41795   2.249   3.466   1.060 -0.1530 -0.0344  0.3938
24272W        W41796   3.555  16.012   2.357 -0.1273 -0.1696  0.0291
24273W        W41797   9.331   3.585   5.647  0.0729 -0.0333 -0.0965
24274W        W41798  13.974   6.283  15.509  0.0551  0.2219 -0.0870
24275W        W41799  13.361   4.200   5.421 -0.0231  0.0759  0.1525
24276W        W41800  12.698  10.183  11.358 -0.2259  0.1627 -0.0650
24277W        W41801   4.888   4.599  17.619 -0.1174 -0.0745 -0.3400
24278W        W41802   7.916   3.179   3.999  0.0507 -0.2747  0.2959
24279W        W41803   3.434  12.988  16.474 -0.1919  0.2776 -0.3845
24280W        W41804   8.047  13.796   2.474 -0.1325 -0.3962  0.1477
24281W        W41805   5.768  15.390   2.879  0.2837  0.2079  0.0813
24282W        W41806   2.849   4.914  17.228  0.1528  0.1026  0.0423
24283W        W41807   7.308  14.303   2.367 -0.1848 -0.4503 -0.0055
24284W        W41808   9.631  13.422  12.502 -0.0390 -0.0020  0.3280
24285W        W41809   4.651   6.164  15.568 -0.0142  0.0313  0.2638
24286W        W41810   8.398   3.053  14.371 -0.0138 -0.1488 -0.0655
24287W        W41811   7.395  15.091   0.576  0.1244 -0.0341 -0.1232
24288W        W41812   3.209  16.435  12.509 -0.1088 -0.0393 -0.2391
24289W        W41813   0.933   3.838   2.629 -0.0425 -0.0934 -0.1373
24290W        W41814   7.372   2.520  15.867 -0.1004  0.1710 -0.1738
24291W        W41815   1.674  12.353   2.252  0.2405 -0.0714 -0.2248
24292W        W41816   9.623   4.075   2.680  0.1950 -0.2093  0.0097
24293W        W41817  15.397  14.079  13.629 -0.0035  0.2942 -0.2144
24294W        W41818  12.609  11.255  13.743 -0.0050 -0.0196 -0.0429
24295W        W41819   6.135  11.365  13.936 -0.2912  0.2839  0.2513
24296W        W41820   2.576   2.673   5.108  0.1184 -0.0233  0.0204
24297W        W41821   1.128   0.908  15.404 -0.1953 -0.0205 -0.2119
24298W        W41822  15.328  11.378   0.484  0.2021  0.2106 -0.2445
24299W        W41823  16.340   5.558  17.021 -0.1832 -0.0536 -0.1431
24300W        W41824   8.809   0.549   3.215 -0.3071 -0.0512 -0.3358
24301W        W41825   5.291  17.051   3.963 -0.0104 -0.2845  0.2406
24302W        W41826   7.148  10.179  14.303  0.3670 -0.2287  0.2402
24303W        W41827   9.925   7.108  14.183 -0.0627  0.0104 -0.1220
24304W        W41828  15.748  12.994   5.035  0.0393 -0.2605  0.1567
24305W        W41829   1.421  13.046   4.653  0.3224  0.4518  0.0676
24306W        W41830   7.522  13.959   1.979 -0.1477 -0.2170 -0.0409
24307W        W41831   7.198  11.118   1.041 -0.1093  0.0145  0.0393
24308W        W41832   0.958  11.109   5.363 -0.3500  0.0013 -0.1980
24309W        W41833  15.733   8.872  13.704 -0.0326  0.1408  0.0573
24310W        W41834  16.318  13.026  14.180 -0.0622 -0.1216  0.0056
24311W        W41835   4.640   8.297  14.526  0.2339  0.0064  0.0945
24312W        W41836  17.040  11.124  14.662  0.0115  0.0306 -0.0481
24313W        W41837  13.555   2.975   0.286  0.0903  0.0286 -0.0521
24314W        W41838  12.228   0.578   0.308 -0.1461 -0.1158  0.0692
24315W        W41839  16.652  15.566   1.580 -0.0317 -0.0840 -0.0143
24316W        W41840   8.116   0.128  12.778  0.0501 -0.0621  0.0510
24317W        W41841  11.940  14.298   3.789 -0.0325  0.4657 -0.1203
24318W        W41842  13.821  16.213   3.402  0.0119 -0.1286  0.3601
24319W        W41843  14.109  15.501  15.172 -0.2177 -0.1091  0.2169
24320W        W41844  10.281  16.741   5.414  0.0988 -0.4804  0.0120
24321W        W41845   5.597  15.089  13.343  0.1441 -0.4727 -0.1113
24322W        W41846   1.096  10.455   3.846 -0.0974 -0.0023 -0.2240
24323W        W41847   8.833   7.184   0.083  0.1666 -0.0651  0.0225
24324W        W41848  16.906   2.610  14.886  0.0310  0.1183 -0.0410
24325W        W41849  14.719  17.147  14.842 -0.1485  0.1157 -0.1372
24326W        W41850   8.305  15.654  16.180 -0.0749 -0.0611  0.2744
24327W        W41851   1.345   7.867  12.697 -0.2447  0.1689 -0.4253
24328W        W41852  12.588   4.626  16.686  0.1581  0.1477  0.0297
24329W        W41853  16.370   5.570  17.476 -0.2621 -0.4627  0.1067
24330W        W41854   2.803  10.306   3.833 -0.2250  0.0353  0.0560
24331W        W41855   5.389   3.480   2.403 -0.1032 -0.1070 -0.0450
24332W        W41856   4.641   9.115   0.995 -0.2801  0.0105 -0.0365
24333W        W41857  13.576  13.212  15.742  0.2138 -0.1884  0.2567
24334W        W41858   0.254  15.555  15.266 -0.1287 -0.1157  0.0205
24335W        W41859   4.751   6.322  16.136 -0.1343 -0.4799  0.0819
24336W        W41860   3.437  16.811  12.780  0.1014 -0.1513 -0.0054
24337W        W41861   4.288   2.278   3.871 -0.0967 -0.1297  0.2400
24338W        W41862   1.016   0.338  16.085  0.0552  0.2308  0.3505
24339W        W41863  10.730   9.454   3.719  0.4511  0.1590 -0.2975
24340W        W41864   5.009  13.791  12.438 -0.0883  0.2794 -0.1411
24341W        W41865   5.005   1.083   0.760 -0.2544 -0.0456 -0.1173
24342W        W41866   1.912  11.510   3.936  0.0024  0.0969  0.0384
24343W        W41867   2.029   6.640  14.796 -0.2107 -0.0553 -0.2831
24344W        W41868   0.181   9.915  14.143 -0.0065  0.0299  0.3107
24345W        W41869   8.104   7.912  12.739  0.1581 -0.1076 -0.1447
24346W        W41870   0.791   5.963   3.304  0.0278 -0.2229  0.0254
24347W        W41871  13.246   9.845  16.018 -0.1689  0.1595  0.0577
24348W        W41872   1.640  15.301  14.518 -0.2077 -0.1061  0.0816
24349W        W41873  15.312  15.275  12.265 -0.2395 -0.2413  0.1002
24350W        W41874  10.985   8.035  14.066  0.0842  0.0410  0.3120
24351W        W41875   1.300  15.436   3.087 -0.1286  0.1059 -0.0805
24352W        W41876   2.421   4.233   4.200  0.0070  0.2073 -0.0758
24353W        W41877   9.873   2.255   0.691  0.2483  0.2599  0.0958
24354W        W41878  16.085   6.327   2.338  0.2262  0.3304  0.0623
24355W        W41879   8.366   7.408  11.553 -0.3437  0.0459 -0.3276
24356W        W41880   3.307  16.138   2.816  0.3911 -0.2056  0.0278
24357W        W41881   1.655   2.693   1.356  0.2455 -0.0983  0.0766
24358W        W41882   2.870  14.028   2.313 -0.0812 -0.0689  0.1120
24359W        W41883   5.165  11.597   4.599 -0.2069  0.1251 -0.2573
24360W        W41884   7.225  16.325  15.956 -0.0511 -0.2059  0.1098
24361W        W41885   9.638   2.280   1.256 -0.2553 -0.1090  0.0555
24362W        W41886  10.827   7.039   4.428 -0.0237 -0.0270 -0.0318
24363W        W41887   6.638   5.004   1.592  0.1047 -0.0670 -0.0854
24364W        W41888   4.731   1.354   3.381  0.1523  0.2155  0.0039
24365W        W41889   8.487   4.776  17.234  0.0227  0.0863  0.1084
24366W        W41890  12.365  16.207   4.046  0.0563 -0.1666 -0.0194
24367W        W41891  12.618  13.388  15.797 -0.3254 -0.0566  0.0247
24368W        W41892  14.574  16.791   5.430 -0.2671 -0.0847 -0.1214
24369W        W41893  10.848  10.270  17.216 -0.0826 -0.0551  0.0957
24370W        W41894   5.691  15.898   4.653 -0.0223  0.1081 -0.1091
24371W        W41895  14.887  14.032   4.938  0.0277  0.0867  0.0089
24372W        W41896  10.292  14.723  15.728 -0.4364 -0.2854 -0.3299
24373W        W41897  15.189   5.082   3.461  0.2800 -0.1098  0.1631
24374W        W41898   6.319   3.224   4.069  0.1918  0.1263  0.1725
24375W        W41899  13.352  15.112  16.431  0.0615  0.2091  0.1392
24376W        W41900   2.571   6.437   3.901  0.0338 -0.0246  0.1164
24377W        W41901  15.508   1.160  14.428  0.3137 -0.2673 -0.2095
24378W        W41902  14.746   2.412   2.575  0.1278 -0.2016 -0.1052
24379W        W41903   9.538  14.219   2.405  0.2238  0.3562 -0.1051
24380W        W41904  10.536  12.013   4.111  0.0619 -0.4212  0.0228
24381W        W41905  15.662  12.005   2.947  0.0698 -0.2085  0.1221
24382W        W41906   5.420   6.327  16.796 -0.0804 -0.0181  0.0608
24383W        W41907   2.018   1.781  13.952 -0.0237  0.0630  0.0468
24384W        W41908   2.562   9.877  15.354  0.1044 -0.0863 -0.3684
24385W        W41909  14.445   9.096  12.317 -0.0268  0.1074  0.1521
24386W        W41910  15.352  14.811   0.209  0.2836  0.0193 -0.3720
24387W        W41911  10.657  13.951  12.703  0.3576 -0.0750 -0.2437
24388W        W41912   2.873   6.738  16.773  0.0565 -0.0418 -0.0323
24389W        W41913   5.988  11.928  15.692  0.0128  0.0245  0.0459
24390W        W41914   6.345  10.882   1.959 -0.1454  0.0117  0.2517
24391W        W41915   6.189  16.971   5.300  0.0432  0.0442  0.1073
24392W        W41916   8.802   0.530   5.339 -0.0081 -0.0636  0.2415
24393W        W41917   6.710  12.705  17.009 -0.2971  0.0426  0.1042
24394W        W41918  14.327  10.728   2.342 -0.1746  0.0233  0.1457
24395W        W41919   0.345  17.030  14.491 -0.0638 -0.1182  0.4048
24396W        W41920   4.630  13.267   1.263 -0.0940  0.1086 -0.2566
24397W        W41921  14.853  15.000   0.130  0.0535 -0.1401 -0.2128
24398W        W41922  13.091   5.519   3.172 -0.3135 -0.1226  0.0072
24399W        W41923  14.732   1.850  15.554  0.0452  0.2290  0.0763
24400W        W41924  14.038   6.031   1.342  0.2191  0.0382 -0.1539
24401W        W41925  13.028  16.423   3.102 -0.0459 -0.0463  0.1961
24402W        W41926  11.538  12.174  12.966  0.1065  0.1691 -0.0267
24403W        W41927  12.375  10.253  16.471  0.1219 -0.0809 -0.2059
24404W        W41928  10.836  16.117  16.138  0.2638 -0.2473 -0.0976
24405W        W41929   5.705  13.039   4.735  0.1430 -0.0366  0.0259
24406W        W41930   2.378   7.041  14.395  0.1593  0.0422 -0.0851
24407W        W41931   0.168   0.591   2.823 -0.2204  0.0416  0.1139
24408W        W41932   3.547   9.865   2.495  0.1912  0.2964 -0.2998
24409W        W41933  15.903   5.384  15.750 -0.0744 -0.2102 -0.2340
24410W        W41934  15.611   3.666   0.484  0.0239 -0.0256  0.0984
24411W        W41935  10.785  14.992   2.138  0.0802  0.0213 -0.2527
24412W        W41936   9.517  12.342  16.652  0.1483 -0.1596 -0.1626
24413W        W41937   6.484   6.603   4.377  0.0129  0.0438 -0.0865
24414W        W41938   1.497   1.047   1.397  0.2473  0.0586  0.0229
24415W        W41939   1.222   2.875   4.854  0.1311 -0.0960  0.1213
24416W        W41940   3.452  15.033  16.908  0.1976  0.1836  0.0677
24417W        W41941  13.907  13.814  12.938  0.2804 -0.1535 -0.1648
24418W        W41942   4.340  16.030  16.920 -0.2866 -0.2182 -0.0112
24419W        W41943  10.804   3.925   4.271 -0.0600  0.2607  0.2706
24420W        W41944  11.930  16.324   5.519  0.2961  0.0339  0.3630
24421W        W41945  12.632   7.767  15.221 -0.2581  0.0389  0.0910
24422W        W41946   3.449  15.837  14.352 -0.0417  0.0495  0.1266
24423W        W41947   3.519  17.146  12.465  0.3427 -0.0881 -0.1903
24424W        W41948  11.213   0.809   4.604 -0.0794  0.3944  0.1479
24425W        W41949  15.296  13.162  13.267 -0.1442  0.0671 -0.0382
24426W        W41950  16.082   3.553  12.247  0.0139 -0.0858  0.0291
24427W        W41951   6.826   4.527  12.962 -0.1214  0.2910  0.4042
24428W        W41952   6.096  10.870   4.998  0.0668 -0.4922  0.3141
24429W        W41953  13.135   3.932   2.592  0.0732  0.1046 -0.0971
24430W        W41954   9.352  11.225   5.811  0.0137 -0.1035 -0.1156
24431W        W41955   6.750   0.198  16.749 -0.1570  0.2166 -0.1563
24432W        W41956   4.471  14.400   5.636  0.0592  0.4150 -0.1046
24433W        W41957   9.832   8.958   3.353  0.1645  0.1898  0.2754
24434W        W41958   5.143  11.169  15.591  0.0470 -0.0613  0.0843
24435W        W41959  14.219  14.284  13.789  0.1174  0.0560  0.1250
24436W        W41960  14.416  14.209   3.621 -0.0410 -0.1336 -0.0313
24437W        W41961   4.649   2.837   4.531 -0.0493  0.2131 -0.0479
24438W        W41962   9.397  13.245  16.974  0.2704 -0.0137 -0.1122
24439W        W41963   6.459  15.246  16.026 -0.1961 -0.2054 -0.0926
24440W        W41964   3.826   6.432   5.832 -0.3866  0.0288  0.2537
24441W        W41965  15.416   8.835   5.187  0.0914 -0.2432 -0.1845
24442W        W41966   5.837   0.913  14.464 -0.1270 -0.1614 -0.1013
24443W        W41967  10.476   4.063  15.534 -0.4166  0.0277 -0.2251
24444W        W41968  10.426   3.801   1.285 -0.2771 -0.1184  0.1973
24445W        W41969  10.290   3.766   3.379 -0.3453 -0.1129  0.1355
24446W        W41970   2.762   6.626  11.288 -0.0898  0.2640  0.1393
24447W        W41971   7.514  11.701  14.357  0.0041  0.2750  0.0455
24448W        W41972  16.603   3.903   5.815  0.0098  0.0393 -0.0979
24449W        W41973   1.068  10.187  13.341  0.1246  0.2573 -0.0386
24450W        W41974   3.439   8.162  16.781  0.2605 -0.2667 -0.3880
24451W        W41975  16.085   8.090  13.032 -0.5666  0.2404 -0.1388
24452W        W41976  14.349   2.541  17.195 -0.0733  0.1882  0.0216
24453W        W41977  14.754   3.437   0.672 -0.1147 -0.0362  0.0249
24454W        W41978   1.855  16.123   1.912 -0.0479 -0.1442  0.4533
24455W        W41979  12.586  15.743   5.314  0.1883 -0.0356  0.0080
24456W        W41980   2.180  15.063  14.851 -0.0554  0.0106  0.1525
24457W        W41981   8.280  15.863   3.871 -0.0353 -0.1592  0.2624
24458W        W41982  12.248  17.103  15.552 -0.1914 -0.1501  0.0254
24459W        W41983  12.545  15.104   2.833  0.1663 -0.1868  0.2039
24460W        W41984  11.743  13.484  15.351  0.1156 -0.2723  0.0981
24461W        W41985   2.400  13.902  17.494 -0.2262 -0.3050 -0.3220
24462W        W41986   3.424  12.740  12.010 -0.0239 -0.4949  0.1979
24463W        W41987  15.928   3.676  16.167  0.0701 -0.2488  0.0259
24464W        W41988  11.793   6.731   3.921  0.0076 -0.0991 -0.1381
24465W        W41989   9.771   8.444   4.780 -0.0962 -0.1731  0.0415
24466W        W41990  11.238   3.942   0.076  0.1484  0.3855 -0.0817
24467W        W41991  16.756  10.432  11.830  0.0042  0.0341  0.0128
24468W        W41992  10.488  13.635   5.352 -0.4434  0.2268 -0.1937
24469W        W41993  14.304  11.074  15.104 -0.0860  0.4388  0.1620
24470W        W41994   6.973   3.369  16.850 -0.1515  0.2249 -0.0962
24471W        W41995   7.516   0.548   2.500 -0.2769 -0.1342 -0.0974
24472W        W41996  14.120  16.184  17.373  0.0446 -0.1341 -0.1596
24473W        W41997   9.015  15.375   2.174  0.0044  0.0250  0.4316
24474W        W41998  17.031  16.706   1.075  0.2722 -0.0289  0.1712
24475W        W41999   2.569   5.226   2.249 -0.0408 -0.0570  0.1406
24476W        W42000  15.478  12.285  13.203  0.0130  0.1877 -0.0441
24477W        W42001  13.504   2.036   5.280 -0.1010 -0.1627 -0.0999
24478W        W42002  12.148  16.510   0.642  0.2524  0.0627  0.0190
24479W        W42003  15.519   1.732   2.415  0.2267 -0.0194  0.1455
24480W        W42004   5.103   2.116   2.818  0.0054 -0.0420 -0.1254
24481W        W42005  16.780   6.779   3.821  0.1419 -0.3316  0.1117
24482W        W42006   3.539  10.140  13.263 -0.3794  0.0209 -0.0072
24483W        W42007  15.581  13.488  12.355  0.1474  0.1987 -0.0847
24484W        W42008  13.009   7.286  13.178 -0.0324  0.2723  0.0778
24485W        W42009  15.278  10.152  12.123  0.2000 -0.0655  0.0806
24486W        W42010   0.162  14.684   2.574 -0.3102 -0.0623  0.2987
24487W        W42011  12.515   5.954  15.068 -0.3736 -0.1820  0.0436
24488W        W42012  16.840  16.980  13.684 -0.1716  0.1248 -0.3144
24489W        W42013  13.714  15.509  12.363 -0.2023 -0.2946 -0.1881
24490W        W42014  11.271   0.749   5.185  0.1671  0.0594 -0.0973
24491W        W42015  13.045  11.322  15.637 -0.0524  0.1918  0.1339
24492W        W42016   2.421  16.981  14.052  0.0452 -0.1580  0.0465
24493W        W42017  14.792   2.883   2.749  0.2865  0.0504 -0.1323
24494W        W42018   1.845  11.870  15.571  0.2269  0.0247 -0.1866
24495W        W42019  10.225   2.662   0.701 -0.1632  0.0914  0.0965
24496W        W42020   8.958   4.353  13.089 -0.0890 -0.0928  0.1335
24497W        W42021  12.642  13.359   2.962  0.0397  0.0696  0.1197
24498W        W42022  11.912   8.720   3.631 -0.0736 -0.1668 -0.1653
24499W        W42023  13.785   3.377   0.584 -0.2052  0.5393  0.3362
24500W        W42024  12.158   8.587  17.092 -0.0395  0.0575 -0.1523
24501W        W42025   9.630  17.245  15.210 -0.1998  0.0306  0.3715
24502W        W42026  16.013  16.406   2.425  0.2995 -0.0211 -0.0839
24503W        W42027  16.538  11.260  17.640  0.3127  0.1596  0.0444
24504W        W42028   1.613  11.800  12.961  0.1937  0.0082 -0.0259
24505W        W42029   8.528   2.302  13.862  0.1429  0.0703 -0.1070
24506W        W42030  10.737  11.064  17.530  0.2790 -0.0586  0.3634
24507W        W42031   4.015   8.657   5.796 -0.1161  0.0595 -0.0163
24508W        W42032  14.968  14.727  13.380 -0.1265  0.0479  0.0867
24509W        W42033  10.240  13.115  14.121  0.0262  0.0264  0.0906
24510W        W42034  15.749   2.089   2.129 -0.1646 -0.1766  0.0827
24511W        W42035   4.063   1.983  15.862  0.0063  0.0185 -0.1994
24512W        W42036   6.511  15.742   0.994 -0.2709  0.0462  0.3702
24513W        W42037   3.443   5.092   4.105 -0.0497  0.0875  0.2976
24514W        W42038   2.754   7.716   2.541  0.0007 -0.0161 -0.1942
24515W        W42039  12.261   5.781  15.938 -0.2029  0.2979  0.1986
24516W        W42040   7.917  12.227   2.699 -0.2994  0.1009  0.3203
24517W        W42041   5.134   4.167  13.873  0.0892  0.1141  0.1972
24518W        W42042   7.366   5.135   0.143 -0.0500 -0.1655 -0.2870
24519W        W42043   2.793  10.500   2.590  0.1614 -0.2165 -0.1082
24520W        W42044   3.561   3.606   4.666 -0.0197  0.0061 -0.0911
24521W        W42045  16.457  16.479  16.082 -0.2474  0.0922  0.0437
24522W        W42046   8.062  16.112  15.973  0.1942  0.2066  0.0353
24523W        W42047  10.907  12.765   0.469  0.2133 -0.0391 -0.4539
24524W        W42048  11.039  14.547   2.111  0.1936 -0.0903  0.1151
24525W        W42049   1.326   9.949   0.045 -0.1629 -0.1341  0.0143
24526W        W42050   6.601  16.619  13.993 -0.1774 -0.0045  0.1274
24527W        W42051   8.645   4.864  13.816 -0.0028 -0.3546  0.0964
24528W        W42052  15.946  15.923  13.614 -0.1324  0.0376 -0.0849
24529W        W42053  15.640   5.305  13.178 -0.0201 -0.1701 -0.1036
24530W        W42054  13.234  12.625  12.955  0.4022 -0.3501  0.1719
24531W        W42055  15.429  13.979  14.624 -0.0491  0.4028  0.0408
24532W        W42056  11.748  16.744   3.366 -0.2244  0.1242 -0.0399
24533W        W42057  15.064   3.858   4.159  0.0889  0.1351 -0.0242
24534W        W42058   2.235  14.184  15.764 -0.1868 -0.0389  0.3439
24535W        W42059  10.310  10.201  13.022 -0.0391  0.1182  0.3794
24536W        W42060  13.370  16.170  14.322  0.0997  0.1180 -0.1906
24537W        W42061   6.467   5.463   4.490 -0.2739 -0.0781 -0.2231
24538W        W42062  16.105   6.059   1.207  0.2690 -0.2759 -0.1693
24539W        W42063  15.195   2.657   4.770  0.1010 -0.0301 -0.0209
24540W        W42064   6.969   3.371   2.374 -0.1705 -0.1280  0.0998
24541W        W42065  15.153   4.765  15.652  0.2985  0.0292 -0.2689
24542W        W42066   3.118  14.959  13.385  0.2167 -0.2941 -0.0856
24543W        W42067   6.334   6.467   0.114 -0.0606  0.3560 -0.2586
24544W        W42068  15.518  11.592  16.991 -0.0397 -0.1445  0.4089
24545W        W42069   3.714  13.709  16.158 -0.4474 -0.1971 -0.1247
24546W        W42070   9.253  10.152   0.098 -0.1195 -0.0712  0.1883
24547W        W42071  15.644  13.530  16.005 -0.1014 -0.2950  0.0044
24548W        W42072   3.714  14.317  12.828 -0.0327  0.1413  0.2440
24549W        W42073  14.318  10.463  12.975 -0.1389  0.1825  0.0284
24550W        W42074   9.419   6.030   2.905  0.2391 -0.1097  0.2957
24551W        W42075  13.549   4.285  13.345 -0.2243 -0.3412  0.0502
24552W        W42076   1.480   7.115   2.806 -0.1796  0.1306 -0.1697
24553W        W42077  11.862   8.103  15.019 -0.1555 -0.2890 -0.0181
24554W        W42078  12.397   6.743   0.310  0.1701  0.0651 -0.2375
24555W        W42079  15.148  11.189  11.779 -0.0952  0.0133 -0.1216
24556W        W42080   6.577   0.728  15.944  0.1345 -0.1559 -0.2820
24557W        W42081  16.899  13.294   5.209 -0.0410  0.1325 -0.1488
24558W        W42082  16.884   5.853  17.188 -0.0512 -0.2791  0.2597
24559W        W42083   8.675   0.803  15.822 -0.2135 -0.3018 -0.0147
24560W        W42084   9.786   3.721  17.610  0.0095 -0.2908 -0.0321
24561W        W42085   7.908  15.907   2.371  0.1379 -0.1850 -0.0758
24562W        W42086   4.254   7.921  16.393  0.2365  0.1971  0.0901
24563W        W42087   7.892  15.229   0.534 -0.2159 -0.5289  0.1073
24564W        W42088  16.175   8.448  17.359  0.0949  0.1855 -0.1401
24565W        W42089   8.290   8.265  13.864  0.0476  0.1508  0.4090
24566W        W42090   0.579  10.978   3.090 -0.1089  0.2810 -0.3194
24567W        W42091   7.073  12.173  13.761 -0.0686  0.0652  0.2282
24568W        W42092   4.021  13.492   4.765 -0.2913  0.3728 -0.5123
24569W        W42093  16.485   8.843  12.636  0.0090 -0.3719  0.0277
24570W        W42094   5.944   7.550   3.956 -0.2274  0.0886  0.0539
24571W        W42095   5.967   1.814   1.724 -0.3215  0.0481  0.1114
24572W        W42096  15.608   2.331   0.166 -0.1487  0.6404  0.0980
24573W        W42097  12.228  11.323   5.290 -0.0618  0.0757  0.0016
24574W        W42098  15.474  14.761   5.145 -0.1731 -0.1525 -0.5189
24575W        W42099  12.988   8.855  13.000  0.0355  0.4444 -0.0955
24576W        W42100   9.406  12.227   2.329  0.1286 -0.5006  0.2928
24577W        W42101   2.528  11.698   4.076 -0.0636  0.0240 -0.0918
24578W        W42102   8.294   4.985  12.648  0.1190 -0.0066 -0.0779
24579W        W42103   3.865   4.938   4.319  0.0471 -0.4026 -0.2201
24580W        W42104   4.003   8.013   2.149  0.1396  0.2227  0.0545
24581W        W42105   9.900   0.765  12.771  0.0174  0.0353  0.0683
24582W        W42106  14.890   0.931  12.415 -0.1594 -0.1912  0.2985
24583W        W42107   5.256   2.091   5.028  0.0782 -0.1489  0.1300
24584W        W42108   3.717   3.204  17.457  0.0843 -0.2845  0.4044
24585W        W42109   8.345  10.698  15.723 -0.2161  0.0771 -0.1544
24586W        W42110   2.887  11.697  16.300 -0.1545  0.0551 -0.1011
24587W        W42111  16.359   4.350   0.562 -0.0209  0.1251 -0.0554
24588W        W42112  11.817  16.805  14.811  0.0294  0.1604 -0.0205
24589W        W42113  17.137   2.925  13.963  0.0711  0.0046 -0.1300
24590W        W42114  15.083   0.982  14.231  0.0212  0.0356 -0.0858
24591W        W42115   2.454  15.457  14.061  0.2931 -0.3524 -0.2502
24592W        W42116   6.413   8.981   1.786 -0.2938  0.3452 -0.0792
24593W        W42117  14.118   8.708   1.606 -0.1577  0.1374  0.1722
24594W        W42118  12.155   3.190  14.730  0.0016  0.2219 -0.1174
24595W        W42119  17.113   0.003  17.647  0.0994 -0.3065  0.0701
24596W        W42120   7.330   7.496   4.282 -0.2551  0.0611 -0.1970
24597W        W42121   6.451   0.271   2.115 -0.3612  0.3157  0.0586
24598W        W42122  13.585  16.585  13.631 -0.0569 -0.0571  0.3465
24599W        W42123   0.518   9.578  16.659  0.1352 -0.1254  0.1010
24600W        W42124   9.685  13.462  15.858 -0.0618 -0.1413 -0.4793
24601W        W42125  11.066  17.022   3.834  0.2582  0.0813  0.1169
24602W        W42126  13.922  10.098   4.122 -0.0353 -0.1040 -0.1985
24603W        W42127   6.568  12.135   1.143 -0.0427 -0.0812  0.3298
24604W        W42128  16.444   4.712  15.255 -0.0004 -0.1490  0.1437
24605W        W42129  13.291  13.876   3.882 -0.1458 -0.1302 -0.1412
24606W        W42130  16.871   4.509  13.246 -0.1610  0.2637  0.0681
24607W        W42131   8.817  10.015   1.546 -0.0878  0.0068 -0.2329
24608W        W42132   2.729   1.124  12.761 -0.1527  0.2258 -0.1376
24609W        W42133   0.558   1.852  17.542 -0.0979 -0.1205  0.2402
24610W        W42134  10.980   9.372   0.667  0.0957  0.2435 -0.0006
24611W        W42135  13.229  12.212  14.803 -0.2734 -0.1070 -0.1012
24612W        W42136   2.673   4.918  13.492 -0.2999 -0.0078  0.1149
24613W        W42137  10.686   3.575  16.146 -0.2562  0.0792  0.0272
24614W        W42138   1.284   1.581   1.554  0.0268  0.0688  0.0527
24615W        W42139  12.767   9.660   0.095  0.0231  0.1181 -0.0037
24616W        W42140  12.010  10.714  14.441  0.0745 -0.1996 -0.0284
24617W        W42141   4.313   1.350  16.587 -0.0168  0.0876 -0.1861
24618W        W42142   1.424   0.569   3.033  0.1105 -0.3569  0.0018
24619W        W42143  11.926  10.798   6.199  0.0727  0.0485 -0.1477
24620W        W42144   9.239  12.929  15.140 -0.2120 -0.1459 -0.0548
24621W        W42145  14.753  14.647  15.615  0.0542  0.1069 -0.0922
24622W        W42146   0.551   7.123   1.103 -0.0225  0.0919  0.2590
24623W        W42147   5.378  15.669   1.548  0.0002 -0.1659  0.1190
24624W        W42148  15.869   0.733  14.558  0.3597 -0.1594  0.1283
24625W        W42149   7.403   0.198   4.222 -0.0565 -0.0810  0.0408
24626W        W42150   8.993   6.688   0.616  0.0902  0.2613  0.2310
24627W        W42151   3.355   9.026  13.971 -0.2170  0.0257 -0.1872
24628W        W42152   1.158  13.985  14.717  0.0346  0.2923  0.1018
24629W        W42153   6.969  10.318   4.027 -0.0136 -0.0193 -0.0140
24630W        W42154   3.211  16.712   5.398  0.0278  0.2411 -0.3239
24631W        W42155  11.011  10.888  16.047 -0.2315  0.1609 -0.0471
24632W        W42156   8.089   4.784  11.659  0.2048 -0.3503 -0.0186
24633W        W42157  14.717  15.437  16.318  0.0489 -0.0850 -0.0439
24634W        W42158  16.303   2.602  13.922 -0.0969 -0.0156 -0.2687
24635W        W42159   5.476  15.954   0.616 -0.1216  0.2000  0.3321
24636W        W42160   3.433  15.742  14.963 -0.3226  0.0778 -0.1488
24637W        W42161  16.413   8.172   3.158  0.0322 -0.2648  0.1920
24638W        W42162   6.530  13.618  14.510  0.3191 -0.3132 -0.3500
24639W        W42163   6.288   7.223   3.712 -0.0516 -0.1818  0.0376
24640W        W42164   0.557  16.865  16.501 -0.5188 -0.0936  0.0559
24641W        W42165  14.661   1.580   4.300  0.0694 -0.1903  0.0436
24642W        W42166   4.860  14.021   2.354  0.1468 -0.0691 -0.1052
24643W        W42167  11.197   5.996   3.811 -0.2428 -0.0099  0.1822
24644W        W42168   8.184   1.857  16.956 -0.2489  0.0443 -0.1151
24645W        W42169  12.187   8.393  12.874  0.2151 -0.1269 -0.1748
24646W        W42170   6.689  14.110   1.520  0.0873  0.0532 -0.1198
24647W        W42171   2.434   0.377  15.182 -0.0528 -0.0375 -0.1257
24648W        W42172   2.296   2.154  16.545 -0.4068 -0.2191 -0.0248
24649W        W42173  15.069   1.828   3.113  0.0517 -0.0669 -0.0286
24650W        W42174   1.995  10.556   0.522 -0.0259  0.0928  0.0986
24651W        W42175   3.939   0.135   2.287 -0.4533 -0.0531 -0.2928
24652W        W42176   3.366   4.106  15.588  0.0490  0.1492 -0.1987
24653W        W42177   5.384   8.193  15.027  0.0080  0.1919  0.4385
24654W        W42178  14.161   0.979   0.281 -0.2129  0.2569  0.3816
24655W        W42179  11.257  13.871   2.884  0.1022 -0.3040  0.1177
24656W        W42180   1.038  10.834   4.168 -0.0780  0.0137 -0.0094
24657W        W42181   3.903   3.527  16.124  0.1173  0.0875  0.1225
24658W        W42182   2.772   5.478  13.660 -0.0264  0.0395  0.1137
24659W        W42183   2.052  16.461   1.529  0.0986  0.1166  0.3530
24660W        W42184  13.144  15.704   4.661  0.0789  0.1825 -0.3155
24661W        W42185  11.351   3.822   4.887 -0.0887 -0.3829  0.2506
24662W        W42186   0.306  11.459  12.685  0.0414 -0.2502  0.0370
24663W        W42187   2.175   3.920  15.435 -0.1868 -0.0014 -0.1452
24664W        W42188  10.335   6.593  13.925 -0.1314 -0.0067  0.0932
24665W        W42189   5.806  13.154   2.270 -0.0683 -0.2850 -0.1209
24666W        W42190   0.656  14.467   3.824  0.2141 -0.2209  0.1051
24667W        W42191   0.121  15.971   4.150 -0.0453 -0.0375  0.3143
24668W        W42192   3.261  14.141  12.993 -0.1989  0.0750  0.2997
24669W        W42193   8.427   0.337   0.939 -0.0603 -0.0231 -0.1725
24670W        W42194   5.502  10.952  14.061 -0.1823 -0.0854  0.0349
24671W        W42195   2.427   2.460  17.460  0.0550 -0.1395  0.0478
24672W        W42196   0.293   9.196   4.679 -0.1642  0.2322  0.0506
24673W        W42197   0.407  16.700  13.444 -0.0474 -0.0970  0.3962
24674W        W42198  13.437   5.338  12.805 -0.0500 -0.3146  0.1674
24675W        W42199   3.335   2.093  16.424 -0.2354  0.0625  0.2924
24676W        W42200  15.321   6.364  16.504  0.0748  0.1969 -0.1251
24677W        W42201  11.241   6.891   4.696 -0.1827  0.0609 -0.1419
24678W        W42202   1.419   4.489   1.564  0.0957  0.0977  0.0780
24679W        W42203   9.414  15.960   4.154  0.3332 -0.0213  0.1612
24680W        W42204   3.989   9.400  14.499  0.0436 -0.0103  0.3340
24681W        W42205  15.381   3.972  16.240 -0.1801 -0.2084 -0.1717
24682W        W42206   6.889   0.473   2.350  0.2188  0.0486  0.1650
24683W        W42207  14.516  16.800   0.048  0.1154  0.1669  0.5550
24684W        W42208   9.937   6.770  16.904  0.3632  0.0494 -0.4482
24685W        W42209   0.947  13.734  13.466 -0.0973  0.1571 -0.1841
24686W        W42210   4.178   3.988   1.662  0.0593  0.1415 -0.1771
24687W        W42211   9.464  10.672  12.360  0.0701  0.1608  0.1022
24688W        W42212   9.386  14.169  15.234 -0.2292 -0.0758  0.1674
24689W        W42213  13.492   7.442  13.783  0.1907 -0.1189  0.1427
24690W        W42214   1.055  14.518  16.057 -0.0233  0.1219  0.2496
24691W        W42215   8.381   5.848  13.083  0.1208  0.1671 -0.0538
24692W        W42216   0.330   7.510   0.168  0.2657  0.1691  0.1505
24693W        W42217  15.763   4.132  17.519  0.2417 -0.0619  0.0089
24694W        W42218   8.775   2.326   4.019 -0.0071 -0.0314  0.1879
24695W        W42219   3.823  16.153  16.685  0.1055 -0.3132 -0.1924
24696W        W42220   9.837  11.837   2.003  0.1818  0.1169 -0.2088
24697W        W42221  14.883   1.052   0.869 -0.1749 -0.1198  0.0153
24698W        W42222   6.919  13.254  14.647  0.4350 -0.0275 -0.0258
24699W        W42223   2.200   0.446  14.157  0.0482 -0.0173  0.0157
24700W        W42224  14.052   7.783   2.790  0.2036  0.1442  0.2873
24701W        W42225  11.299   8.009   3.812 -0.0482  0.0357 -0.0078
24702W        W42226  14.078   4.460  16.980 -0.0653  0.1180  0.2201
24703W        W42227  13.154  16.061   1.556  0.1383 -0.1220  0.1827
24704W        W42228   2.371  15.970   2.662 -0.0847 -0.2532 -0.1931
24705W        W42229  16.798   5.254  12.157  0.0139 -0.3234 -0.1886
24706W        W42230  13.629  15.439  17.528  0.1318 -0.1926 -0.1435
24707W        W42231   5.708  13.068   4.204  0.3968 -0.0826 -0.0335
24708W        W42232  13.474   9.991  13.213  0.0186 -0.0678 -0.0357
24709W        W42233   9.714   8.675   0.064 -0.0838 -0.2075  0.4084
24710W        W42234   7.760  13.881  16.023 -0.2355 -0.1797 -0.2810
24711W        W42235   8.055   8.889  16.283  0.1819  0.0654  0.1516
24712W        W42236   6.272   8.183  15.420  0.3259  0.0361 -0.0765
24713W        W42237   3.155  15.171   3.571 -0.0553  0.0968  0.0743
24714W        W42238   8.376  13.939   2.069 -0.2955  0.0192  0.3564
24715W        W42239   6.094   0.069   1.341 -0.3058 -0.0685  0.0781
24716W        W42240   3.510   0.494  13.953  0.2789 -0.2079 -0.0714
24717W        W42241   6.485   8.466   2.630 -0.1033  0.0248 -0.0491
24718W        W42242  15.806   0.293   3.460 -0.0434  0.0585  0.0028
24719W        W42243   5.240  15.582  16.412 -0.0450 -0.3486 -0.4690
24720W        W42244  16.814  10.023   1.239  0.2040  0.0739  0.1499
24721W        W42245   1.266  16.335  17.104 -0.0734  0.0877  0.0852
24722W        W42246   2.852   4.548  13.909  0.1815 -0.0044  0.1991
24723W        W42247  11.564   8.429   1.404 -0.1262 -0.0194 -0.1109
24724W        W42248  11.189   9.951   4.870 -0.2026  0.1652  0.0244
24725W        W42249   9.423   6.747  16.784  0.0785 -0.1016  0.1630
24726W        W42250  12.204  15.084  13.716 -0.0970 -0.0765 -0.0216
24727W        W42251  16.425  15.418  14.113  0.4657  0.0181 -0.0285
24728W        W42252   7.605  17.231  17.458  0.0800 -0.6208  0.0957
24729W        W42253  13.943   7.535  14.643  0.1591  0.0737  0.0725
24730W        W42254  10.282   1.754  13.652 -0.4029 -0.0806  0.1894
24731W        W42255   3.651   5.522  14.422  0.0944 -0.0547  0.3886
24732W        W42256  10.428  13.782  16.605 -0.1951  0.0083 -0.2051
24733W        W42257   2.995   8.220  14.048 -0.0031 -0.0791 -0.0065
24734W        W42258  16.945  12.869  14.405  0.2512 -0.1311 -0.2890
24735W        W42259   7.095   8.747  15.459  0.2867 -0.4523 -0.0770
24736W        W42260   0.152   1.510   1.470  0.1977 -0.0340 -0.0955
24737W        W42261   3.817   8.515   2.102  0.1632  0.2605  0.0560
24738W        W42262  13.844   3.416  15.133 -0.3527  0.1087  0.2998
24739W        W42263   9.952   8.553   0.978 -0.4096  0.1163  0.0009
24740W        W42264   1.906   7.493   0.149 -0.1189 -0.0118  0.4015
24741W        W42265   2.710   0.802  12.246  0.0905  0.0137 -0.0035
24742W        W42266   1.756  11.716   4.438 -0.4550 -0.1391  0.0800
24743W        W42267  14.910   8.217  12.656 -0.2447 -0.1074  0.0385
24744W        W42268   0.161   7.727  15.116 -0.1642  0.0484 -0.3133
24745W        W42269  12.952  16.741  12.472  0.2156 -0.2897 -0.0535
24746W        W42270   4.905   4.643   1.476 -0.0039  0.0863  0.1899
24747W        W42271   1.357   3.914  15.360  0.2016  0.1645 -0.2685
24748W        W42272   1.691   1.923   5.487 -0.1719 -0.1882 -0.0048
24749W        W42273  15.445   8.630  16.338  0.3013 -0.0288  0.0216
24750W        W42274  12.618  14.440   0.123  0.2298 -0.4159  0.2376
24751W        W42275   2.839   7.640   4.292  0.0770  0.0340  0.1404
24752W        W42276   2.537   7.198   2.849 -0.2214 -0.1160 -0.0498
24753W        W42277   7.449  10.501   4.261  0.0848  0.1329 -0.1297
24754W        W42278   7.913  11.590   0.569  0.0466  0.1422  0.0166
24755W        W42279  10.751   5.559   1.010  0.0834 -0.0550 -0.0336
24756W        W42280   8.834   2.258  16.381  0.0406  0.1209  0.0313
24757W        W42281   5.349  15.978  13.719  0.0157 -0.1876 -0.0805
24758W        W42282   1.990   1.615  15.039  0.0523 -0.1846  0.1965
24759W        W42283   5.378  14.663   1.436  0.1619 -0.3104  0.0450
24760W        W42284  12.735   4.662   2.278 -0.0090  0.0156 -0.0278
24761W        W42285  10.427  11.009   1.350  0.0984  0.1785 -0.2248
24762W        W42286   9.832   9.649  14.214 -0.1693 -0.0269 -0.4754
24763W        W42287  12.888   0.163   4.292 -0.0531 -0.4085  0.2063
24764W        W42288   4.325  11.722  17.210 -0.0986  0.1848  0.0490
24765W        W42289  12.714   8.739   3.915  0.0124  0.1745 -0.4302
24766W        W42290  10.434   4.336   3.508 -0.0587  0.0319  0.1452
24767W        W42291  12.547   0.568   5.348 -0.0461  0.0862  0.0797
24768W        W42292   4.103   7.161  14.304 -0.0575 -0.1669 -0.0230
24769W        W42293   6.917  13.290  13.621  0.2133  0.2439  0.0859
24770W        W42294  11.588   8.562   4.505 -0.1478  0.1396  0.0991
24771W        W42295  12.138   7.506   3.506 -0.0846  0.2701 -0.1091
24772W        W42296   9.502  12.753   0.875 -0.0727 -0.0796 -0.0240
24773W        W42297  10.834  11.327  14.910 -0.0522 -0.2669 -0.3306
24774W        W42298   4.052   6.410   3.035 -0.1564 -0.1484 -0.0652
24775W        W42299   3.131   4.579  13.483 -0.1403  0.2763 -0.2633
24776W        W42300  12.068   8.973  13.387 -0.0345 -0.0069 -0.0296
24777W        W42301  17.228  15.029   2.280 -0.0836 -0.0717 -0.1353
24778W        W42302  11.940  16.965   2.389 -0.0905 -0.0309  0.0744
24779W        W42303   6.133  14.576  16.145  0.0668  0.2320 -0.0963
24780W        W42304  11.577   0.174  13.023 -0.2123 -0.1209  0.1230
24781W        W42305   4.449   4.469  14.916  0.0578  0.1026 -0.1247
24782W        W42306   2.205   9.656  14.724 -0.3378  0.1646 -0.1395
24783W        W42307  14.968   6.800  15.790 -0.2021  0.1626  0.0600
24784W        W42308   1.466  12.651  15.304  0.1659 -0.1175 -0.0407
24785W        W42309  10.290   6.255   4.476 -0.0054 -0.1251 -0.0369
24786W        W42310  11.592   1.820  14.885  0.0823  0.2530  0.1792
24787W        W42311   0.468   5.027   3.736 -0.2126  0.0292 -0.0198
24788W        W42312  10.739  15.400   5.341  0.2200 -0.0765 -0.1671
24789W        W42313   6.938  13.342  16.174  0.0769  0.0976  0.0877
24790W        W42314   4.544   6.109  16.948 -0.0538 -0.1662 -0.0943
24791W        W42315  10.139   0.282  16.520 -0.1850  0.0948  0.1413
24792W        W42316   1.582  11.005  14.743  0.1057 -0.1847  0.3278
24793W        W42317  16.257  11.531   4.677  0.2631 -0.2748  0.2076
24794W        W42318   7.752   9.234   3.491  0.2635 -0.3288  0.1833
24795W        W42319   5.554   7.453   5.023 -0.0873 -0.0465  0.0642
24796W        W42320   8.380  15.150  17.348 -0.0169  0.1324  0.0196
24797W        W42321  13.246   3.656  12.172  0.2565  0.1528  0.0481
24798W        W42322   4.650   2.652   5.581 -0.1448 -0.0268 -0.1388
24799W        W42323  15.760   7.302   2.914 -0.1057  0.1706  0.0239
24800W        W42324  13.083   8.440   2.968 -0.1878  0.0163  0.0619
24801W        W42325   4.382   6.209  12.481 -0.0669  0.2010 -0.0891
24802W        W42326   0.758   2.636   4.064  0.2618 -0.0308 -0.0940
24803W        W42327   2.857  11.933  15.129 -0.0904 -0.2047  0.0778
24804W        W42328   6.423   1.571   0.887  0.0770 -0.1846  0.2532
24805W        W42329  10.094   9.097   5.489 -0.0541 -0.2074 -0.0056
24806W        W42330   9.239   9.587  16.511  0.3404  0.1107  0.1218
24807W        W42331  12.788  12.916  12.230 -0.0580  0.2172 -0.1276
24808W        W42332   4.491   4.140   4.378 -0.0255 -0.1212 -0.0654
24809W        W42333   9.348   3.863  17.342 -0.0584  0.1133 -0.3972
24810W        W42334   6.005  12.303  16.036 -0.2624  0.2144 -0.1667
24811W        W42335  10.460   6.069  14.891 -0.2902  0.2528 -0.2008
24812W        W42336   8.447   4.404   5.075 -0.0955 -0.0359 -0.1656
24813W        W42337   0.792   1.373  16.039 -0.0101 -0.1216  0.0866
24814W        W42338  13.273  13.028   0.282  0.1332  0.2333 -0.4587
24815W        W42339  14.641   3.215  13.990  0.0391 -0.1418  0.7231
24816W        W42340   2.883  16.760   5.766  0.1876 -0.1071 -0.0433
24817W        W42341  10.010   1.815   5.509 -0.3164 -0.2449 -0.2602
24818W        W42342   8.666   6.347   1.773 -0.0345  0.0740  0.3793
24819W        W42343   0.356  12.581  17.450 -0.1588  0.0344  0.0648
24820W        W42344   5.089   9.446   0.440  0.2072  0.0210  0.0072
24821W        W42345   0.538   5.698  14.602  0.1441  0.6630 -0.4992
24822W        W42346  15.196   0.038  14.207  0.0471  0.0963 -0.0341
24823W        W42347  17.111   0.870   2.407  0.0975  0.0272 -0.1303
24824W        W42348   9.571   5.604  11.635 -0.2034  0.0354 -0.1511
24825W        W42349   0.639   5.237   4.742 -0.1020  0.4965  0.0300
24826W        W42350   4.354   2.538  15.963  0.0555  0.2075 -0.2405
24827W        W42351   0.662   5.212  14.454 -0.0418 -0.1369 -0.0277
24828W        W42352   0.625   3.603   3.206  0.1471 -0.0943 -0.3236
24829W        W42353   9.699   2.380  17.037  0.5701 -0.1323 -0.0787
24830W        W42354   1.515  10.685   2.520  0.0238 -0.2718  0.2112
24831W        W42355  12.925   7.472  17.013 -0.0880 -0.1534 -0.1336
24832W        W42356   9.664  12.825  16.839  0.0581 -0.1207  0.0495
24833W        W42357   7.759   3.287   1.720  0.3044  0.3820  0.1937
24834W        W42358   9.350   3.751   2.856 -0.1479  0.0831 -0.0619
24835W        W42359  11.215   4.725   0.829  0.3419 -0.1104  0.0916
24836W        W42360  14.375   6.645   5.618 -0.0962  0.4462 -0.1902
24837W        W42361   1.150   5.120  15.182  0.1717  0.1380  0.0429
24838W        W42362   8.221   4.607   2.271 -0.0111  0.4979  0.1214
24839W        W42363   5.454  15.638   1.016 -0.2670  0.0142 -0.1894
24840W        W42364   9.082  12.169   4.904  0.0331 -0.1965  0.1079
24841W        W42365   5.728   2.100  13.784 -0.1084 -0.1314 -0.4441
24842W        W42366   4.506   2.047  14.872 -0.3683 -0.1683  0.0671
24843W        W42367   5.328   4.915   0.123 -0.1546  0.1916 -0.4088
24844W        W42368  16.484   7.183   3.688  0.0427  0.0112 -0.1796
24845W        W42369   1.893  13.279  17.557 -0.1701  0.1078  0.0887
24846W        W42370  16.787  15.506  13.775  0.0322 -0.0041 -0.1989
24847W        W42371   0.921   2.192  15.559 -0.0800 -0.1730  0.0217
24848W        W42372   5.619   9.857  15.092 -0.1908 -0.0702 -0.1585
24849W        W42373  13.509   7.437  14.934  0.0882 -0.0676  0.2109
24850W        W42374  13.278  11.968  15.263 -0.0214 -0.0897  0.3682
24851W        W42375   4.373   4.348  13.938 -0.0637 -0.2743  0.0461
24852W        W42376  16.096  17.029   4.780 -0.2695 -0.3742  0.1431
24853W        W42377   7.543   0.429   5.588 -0.1134  0.0994 -0.0688
24854W        W42378  13.563  14.066  15.844  0.0359 -0.0045  0.0301
24855W        W42379   8.118   6.318   1.802  0.1377  0.2734  0.0361
24856W        W42380   4.691   6.275  17.381 -0.2265 -0.0946 -0.2667
24857W        W42381   2.410   4.382  14.853 -0.1225  0.3577  0.3210
24858W        W42382   8.916   4.503   0.800 -0.1604 -0.0458  0.3381
24859W        W42383   6.462  16.982  16.908  0.0326 -0.0700 -0.0817
24860W        W42384   4.289  15.934  15.464 -0.2240 -0.0309  0.0602
24861W        W42385  11.515   6.807  17.462 -0.3609 -0.0231  0.2671
24862W        W42386   5.244   3.165   0.790 -0.1139  0.0541 -0.1622
24863W        W42387   2.604  17.232   5.949 -0.0108  0.0375 -0.0903
24864W        W42388   8.111   5.237   6.676 -0.1544 -0.3107 -0.2172
24865W        W42389   8.940  13.284  16.592  0.1793  0.0904 -0.2844
24866W        W42390  14.340   9.759  13.803  0.0426  0.0152  0.2102
24867W        W42391   7.542  12.453   5.224  0.1778 -0.1062 -0.2027
24868W        W42392   8.526  15.410   2.481 -0.2922 -0.3536 -0.0671
24869W        W42393   9.137   7.418   2.604  0.0567 -0.1327  0.3711
24870W        W42394  15.060  10.258  17.081  0.4574  0.1062  0.2976
24871W        W42395  12.527   9.881   5.085  0.0836  0.2065 -0.1230
24872W        W42396  12.493   6.255   3.893  0.0473  0.0156 -0.0212
24873W        W42397  15.774  13.136  17.196 -0.1603 -0.0647  0.1581
24874W        W42398  11.713  15.414  15.246 -0.0569  0.2253  0.4090
24875W        W42399   8.238  16.958   4.111  0.0047 -0.1653 -0.0603
24876W        W42400   8.169  10.334   5.815  0.0203 -0.1113  0.0792
24877W        W42401   8.190  15.302   1.711  0.2504  0.3495 -0.0942
24878W        W42402   4.727   4.016   1.648 -0.0363  0.0480 -0.3899
24879W        W42403  13.179   3.270   0.044  0.0471 -0.3549 -0.2011
24880W        W42404   3.770   8.004  15.764  0.1637  0.0412  0.2868
24881W        W42405   9.055   0.586  13.043 -0.0350  0.1607  0.0036
24882W        W42406   5.237   7.416   3.014  0.2598 -0.1307  0.0846
24883W        W42407   3.602   0.656  14.411 -0.2686  0.0742  0.0068
24884W        W42408   9.674   8.774   0.559 -0.2975  0.2891  0.3253
24885W        W42409  10.940   5.646  16.130  0.1641  0.2971 -0.4166
24886W        W42410   3.064  13.261   2.810  0.1508  0.0585 -0.0827
24887W        W42411   1.009  10.362   2.576 -0.1427  0.0267 -0.1401
24888W        W42412  16.419   4.522  17.102  0.2494  0.1355 -0.2436
24889W        W42413   2.879  11.023   2.299 -0.3021  0.1372 -0.3941
24890W        W42414  15.324   2.784   3.266  0.1114 -0.0836  0.3924
24891W        W42415   2.269   6.633   1.035 -0.1346 -0.0389  0.1880
24892W        W42416  15.435   1.558  15.077 -0.2298 -0.0967  0.3638
24893W        W42417   0.286  12.368   5.219 -0.1070 -0.1344  0.0033
24894W        W42418  12.371  12.437   3.589 -0.0385  0.1339  0.1983
24895W        W42419  16.330  12.199   1.760 -0.1990  0.0324 -0.0942
24896W        W42420   6.801   8.511   5.782 -0.1039 -0.0044  0.3144
24897W        W42421   2.670   1.591  16.241 -0.2759 -0.0096 -0.0589
24898W        W42422  16.791   0.206   6.616 -0.1723 -0.0780 -0.0639
24899W        W42423   6.165  16.462  16.490 -0.3069 -0.0374 -0.0380
24900W        W42424   6.309  16.380  12.705  0.1431 -0.1464 -0.0023
24901W        W42425   4.515   7.929  15.517  0.1406  0.0637  0.1500
24902W        W42426  15.307  11.506   2.274 -0.0757 -0.0957 -0.0717
24903W        W42427   7.942   8.025  14.139 -0.1875  0.1311  0.1805
24904W        W42428   9.861  12.932   1.204 -0.2206  0.0673 -0.0581
24905W        W42429  14.821   2.763   5.778 -0.0200 -0.0310 -0.0615
24906W        W42430  11.556   6.344  17.514 -0.2108 -0.1698  0.2414
24907W        W42431   4.645   0.999  16.479  0.0308  0.3188  0.0400
24908W        W42432   7.321  15.350   2.015  0.1910  0.0491 -0.2781
24909W        W42433   5.254  16.677  17.350  0.1083  0.0361 -0.0785
24910W        W42434   5.844   2.663   2.271  0.0072  0.3522 -0.3392
24911W        W42435   3.952  11.001  12.510  0.1176 -0.0099 -0.1074
24912W        W42436  11.120   5.618  17.043  0.0294  0.0749  0.0285
24913W        W42437  16.752   5.979  14.907 -0.0774 -0.0737 -0.0017
24914W        W42438  15.076   4.008  13.911  0.0687 -0.2786  0.0912
24915W        W42439  16.218   6.377  15.941  0.1560 -0.1711 -0.1728
24916W        W42440   9.747  11.445  17.602 -0.0380  0.0931  0.5322
24917W        W42441  11.299   9.589  16.512 -0.0265 -0.0796 -0.2210
24918W        W42442  16.364   2.707  15.836  0.0560  0.2585  0.0264
24919W        W42443  13.114   8.999   4.123  0.2152  0.1098  0.0811
24920W        W42444  14.328  15.971  13.146 -0.4709 -0.0739  0.2171
24921W        W42445  14.055  11.067   4.667  0.0337 -0.0886 -0.1438
24922W        W42446   3.128   8.371   5.020 -0.0009  0.1557  0.2199
24923W        W42447   6.427   7.004  13.430  0.0833  0.2602 -0.1595
24924W        W42448   4.109   1.982   5.416 -0.1773  0.2273  0.1061
24925W        W42449  15.939   8.693   5.019  0.0847 -0.2643 -0.0282
24926W        W42450  14.055   1.173  14.558 -0.1097  0.1456  0.0784
24927W        W42451  10.602  12.890   5.238  0.2810  0.2077  0.1396
24928W        W42452   9.617  10.896   4.964 -0.1219  0.2881 -0.0001
24929W        W42453   2.927   9.425   2.970  0.3806  0.1849  0.1317
24930W        W42454   1.769  12.032  16.402 -0.0017  0.0597 -0.0264
24931W        W42455  13.822   7.202   0.117 -0.0771 -0.5445  0.1724
24932W        W42456   8.137  10.082  13.372 -0.0506  0.0053  0.1616
24933W        W42457  16.702   8.154  13.091 -0.1276 -0.0766  0.1419
24934W        W42458  16.440   7.640   3.478  0.0607 -0.1130  0.0939
24935W        W42459  12.725   5.725  13.474 -0.0154 -0.1147 -0.0940
24936W        W42460   1.014   0.097  15.646 -0.0193  0.1706 -0.0997
24937W        W42461   1.159   8.122  13.872  0.1505  0.2560  0.0932
24938W        W42462  12.015  10.290  17.519  0.2291  0.0857 -0.1564
24939W        W42463   0.104  11.930  12.689  0.1347  0.0708 -0.1907
24940W        W42464  12.455  10.264  15.094 -0.0017  0.0225 -0.1175
24941W        W42465   3.405   6.526   2.612 -0.0890  0.2181  0.2735
24942W        W42466  17.221   8.021  13.850  0.1639  0.0829 -0.2428
24943W        W42467  12.211  11.242  12.287  0.0526 -0.1440  0.0530
24944W        W42468   3.485   8.792   1.842  0.1953  0.2941 -0.1433
24945W        W42469   8.451  12.501  14.150 -0.0187 -0.2670  0.0979
24946W        W42470   1.993  10.698   2.534 -0.2949  0.1770 -0.0116
24947W        W42471   4.870  15.745   3.356  0.0147  0.0016 -0.1983
24948W        W42472   8.328   9.237  16.001  0.2862  0.1808 -0.2205
24949W        W42473   4.279   4.523  16.232  0.0934  0.1777  0.0095
24950W        W42474   7.967  14.067   1.350 -0.2280  0.1329 -0.1656
24951W        W42475   3.854   2.349  13.141 -0.2517  0.0461  0.3656
24952W        W42476   7.981  12.066  16.206  0.2016  0.1086 -0.1432
24953W        W42477   9.775  11.276   1.083  0.2700 -0.1399 -0.0214
24954W        W42478  12.885  14.777   3.769 -0.1597  0.2430  0.1433
24955W        W42479   3.996  11.774  16.333  0.1419 -0.3909  0.0832
24956W        W42480  16.222   9.165   1.470 -0.0685  0.0206  0.2040
24957W        W42481  13.523  11.653  16.826  0.0674  0.1595  0.0248
24958W        W42482   5.464   0.557  12.687  0.0967 -0.0960 -0.3375
24959W        W42483   7.834  10.292   0.242  0.0356  0.2658  0.0190
24960W        W42484   9.225   0.149  16.823  0.1770 -0.1419 -0.2119
24961W        W42485   3.378   2.630   5.836  0.1577  0.4126  0.0063
24962W        W42486   7.549   1.257  15.350 -0.1202 -0.0456 -0.3052
24963W        W42487  11.150  11.240  15.305  0.0249 -0.2162 -0.2516
24964W        W42488   1.551   6.314   1.650  0.5260  0.2018  0.2060
24965W        W42489   1.084   5.802   0.998 -0.0043 -0.0547  0.2849
24966W        W42490  15.203   9.562   1.389  0.2457 -0.1473 -0.0089
24967W        W42491   7.479   8.386  14.283  0.1261 -0.3125 -0.1230
24968W        W42492   8.150   9.181  12.350  0.0512  0.0979  0.4601
24969W        W42493   8.980   0.674   1.655  0.1415 -0.0643  0.0168
24970W        W42494   7.723  15.048   2.084 -0.3556  0.1067  0.2587
24971W        W42495   7.307  12.691   5.852  0.0030  0.2007  0.0731
24972W        W42496  15.225   4.988   0.087  0.1298 -0.2151  0.0263
24973W        W42497  14.988  15.289   0.926  0.0801  0.0184 -0.0235
24974W        W42498   4.517  14.821  12.509 -0.0990  0.0101 -0.2215
24975W        W42499   5.972   0.641  17.619 -0.0394 -0.1889 -0.0782
24976W        W42500  10.847   3.508   5.662 -0.0416 -0.1262 -0.1925
24977W        W42501  11.826  12.201  17.045 -0.1891 -0.0639 -0.1634
24978W        W42502   9.407  16.181   2.954  0.0969  0.0290  0.0709
24979W        W42503   5.511   8.767  16.515 -0.2654  0.1704 -0.0062
24980W        W42504   3.684   8.498  14.629 -0.1302 -0.3542 -0.0210
24981W        W42505   6.140   9.935   4.393 -0.3252 -0.0202  0.4150
24982W        W42506   3.676   3.743  14.909 -0.1252  0.0577  0.1234
24983W        W42507  15.058   4.332   0.329  0.0745 -0.1565 -0.2376
24984W        W42508  10.835   0.696  14.748 -0.1018  0.2342 -0.2603
24985W        W42509   9.788  12.545  15.797  0.2250 -0.0898  0.3422
24986W        W42510   2.224   8.655   4.174  0.2766  0.1575 -0.2306
24987W        W42511  13.625   4.118   1.795  0.0945  0.2451  0.1404
24988W        W42512  13.327   5.842   1.029  0.2316  0.0715 -0.2476
24989W        W42513   0.313  10.254   0.506  0.0016 -0.0722  0.2751
24990W        W42514  16.757   7.817   4.418 -0.1990 -0.1042  0.5071
24991W        W42515  14.439   7.908   2.398  0.2153 -0.0192  0.1679
24992W        W42516   7.486   7.332   5.820  0.0204 -0.2540 -0.0924
24993W        W42517   0.926   0.261  13.639  0.1320  0.1348 -0.1647
24994W        W42518   4.437   3.712   4.703  0.1154 -0.3954  0.1533
24995W        W42519   8.616   5.671  12.690  0.0838  0.2224 -0.1139
24996W        W42520   4.684   9.214   3.412  0.1362  0.0733 -0.0569
24997W        W42521  14.161  11.647  17.597 -0.1490 -0.2198  0.0245
24998W        W42522  16.184  16.296  17.358 -0.0877  0.0015 -0.2313
24999W        W42523   9.218  13.066   0.581  0.0968  0.1839 -0.1517
25000W        W42524  14.261  13.842  17.210 -0.2273 -0.1255 -0.1871
25001W        W42525  12.913   9.391  12.717 -0.1781  0.2097 -0.0126
25002W        W42526  17.137  10.435  17.520  0.1898  0.0269  0.0324
25003W        W42527   6.760   9.892   4.216 -0.1818 -0.1880  0.1292
25004W        W42528   3.374   4.797   2.728 -0.1268 -0.0771  0.1618
25005W        W42529  16.658   6.257   4.929 -0.1384 -0.1158 -0.1491
25006W        W42530   7.303  15.140   4.523 -0.1195 -0.0470  0.0383
25007W        W42531  16.328  14.751  12.991  0.0839  0.3807  0.1352
25008W        W42532  14.846  16.470   4.525  0.0666  0.2326 -0.0580
25009W        W42533   9.184   9.573  17.114 -0.0734  0.0706  0.5925
25010W        W42534   1.319   2.427  11.944 -0.0677  0.3100  0.2705
25011W        W42535   4.650  11.081   5.256  0.3906 -0.0707  0.0627
25012W        W42536   6.061  14.245   4.204  0.1441  0.0441 -0.0913
25013W        W42537  15.349   7.800   3.635  0.3304  0.1228  0.0437
25014W        W42538   9.263   0.623  16.655 -0.1054 -0.0995  0.1344
25015W        W42539  15.185   4.122   3.322 -0.3263  0.0426 -0.1150
25016W        W42540  16.827   8.665  15.511 -0.0376 -0.1317  0.1964
25017W        W42541   8.421  13.068  15.280  0.1504 -0.1446  0.1513
25018W        W42542   0.545  14.550  16.303  0.5659  0.0044 -0.1136
25019W        W42543   0.211  14.303   3.757 -0.2111 -0.1183  0.0556
25020W        W42544  13.067   8.994   1.004  0.0288 -0.1221  0.1948
25021W        W42545  10.901   1.464   1.860 -0.1895 -0.1273 -0.1071
25022W        W42546  13.589  14.489   1.094  0.3267 -0.0224  0.2133
25023W        W42547  13.581  13.497  14.213  0.1445  0.2260  0.1678
25024W        W42548   3.734   0.433   3.174  0.1321  0.0717  0.1569
25025W        W42549  10.301  14.007   3.255 -0.0013 -0.0809 -0.0880
25026W        W42550  13.733  17.151   4.869  0.0606  0.0394 -0.0464
25027W        W42551   0.546   1.074   4.071 -0.0515  0.2808  0.0480
25028W        W42552   5.617   4.817  15.824 -0.3035  0.2549  0.0073
25029W        W42553  12.078  10.636   4.271 -0.1518 -0.0505 -0.0191
25030W        W42554  15.696  14.164  16.373 -0.0481  0.2274 -0.1306
25031W        W42555   2.262   2.718   1.213 -0.1859  0.0602  0.2954
25032W        W42556   3.701   5.438  15.460  0.1011  0.0304 -0.0114
25033W        W42557   5.245   1.780  16.752  0.0304 -0.4514  0.0033
25034W        W42558  15.853  14.559   3.096  0.2221  0.1272  0.1836
25035W        W42559   0.837   6.337  13.513  0.0233  0.0019 -0.2372
25036W        W42560   5.762  16.521  17.159  0.0523 -0.3409 -0.2909
25037W        W42561  16.260   6.075  14.155 -0.0977 -0.0082 -0.1920
25038W        W42562   9.282   9.042  15.331 -0.0101 -0.0798  0.0442
25039W        W42563  16.104  16.160  15.492 -0.1479 -0.2410  0.0466
25040W        W42564   7.060   4.780   3.653 -0.1057  0.0499 -0.0957
25041W        W42565   3.262   7.599  12.573 -0.0062  0.1647  0.3157
25042W        W42566  14.934  16.547   0.275  0.0903  0.1455  0.3271
25043W        W42567  11.874   3.752  17.033 -0.2333  0.0446 -0.2232
25044W        W42568  12.544   3.026  12.115  0.2929 -0.0299 -0.3177
25045W        W42569  12.993  12.980   4.671 -0.0995 -0.1230  0.0353
25046W        W42570  10.547  11.564  16.140  0.0407 -0.1273 -0.3135
25047W        W42571  16.350   2.525  15.319  0.0912 -0.2259 -0.0866
25048W        W42572   7.739   2.763  13.658  0.0213 -0.2740  0.1635
25049W        W42573  12.113  12.224   2.646  0.2047  0.0624 -0.1604
25050W        W42574  17.204   9.314  15.599  0.0921 -0.0427 -0.0070
25051W        W42575  14.570  11.200   2.109  0.0349 -0.0767  0.1734
25052W        W42576  11.061   6.230   1.775  0.1264 -0.0475 -0.3385
25053W        W42577   2.423   0.884  16.930 -0.1069 -0.4261 -0.0866
25054W        W42578   2.490   6.601  15.158 -0.2420 -0.0297 -0.0577
25055W        W42579  10.226   2.218  16.953 -0.1062 -0.3919 -0.2363
25056W        W42580  13.181  12.791  14.985  0.0159  0.1258 -0.6469
25057W        W42581  13.309   9.433   4.870  0.0670  0.1013  0.0110
25058W        W42582   3.482   9.333   5.403 -0.1615  0.1108 -0.0702
25059W        W42583  12.448   2.878   4.981 -0.1337 -0.4424 -0.0512
25060W        W42584   7.214  11.226   3.647  0.1087  0.0996  0.0116
25061W        W42585  14.213  14.029  16.428 -0.1473  0.0189  0.1257
25062W        W42586   5.807  12.135  16.454  0.0633 -0.2365 -0.2343
25063W        W42587   5.330  11.795   5.453  0.0889  0.1721 -0.0727
25064W        W42588  15.893  13.234   3.662 -0.2505 -0.0680  0.1337
25065W        W42589   1.545  10.311  16.391 -0.1263  0.0915 -0.0317
25066W        W42590   1.734   5.820  14.303  0.3459  0.3330 -0.0451
25067W        W42591   2.847  11.468  13.407  0.2698  0.2345 -0.2839
25068W        W42592   1.568   1.376  17.282 -0.2364  0.1775  0.0312
25069W        W42593   5.859   4.255   1.270  0.0117  0.0379  0.1222
25070W        W42594  13.013  14.465  11.825  0.1430  0.0989 -0.0080
25071W        W42595   5.020  11.651   0.908 -0.3019  0.1273 -0.0240
25072W        W42596  16.506  15.263   3.174 -0.1476  0.0779  0.2649
25073W        W42597  15.504  15.368   3.067 -0.3496 -0.1356 -0.1837
25074W        W42598  10.102  15.720  14.993 -0.1660 -0.0831 -0.3724
25075W        W42599  12.199  15.187  15.484  0.1081  0.0629 -0.1632
25076W        W42600  15.554   3.887   3.712 -0.2530  0.3171  0.1815
25077W        W42601   5.206   8.037   3.689  0.4225  0.0123 -0.1256
25078W        W42602  13.373  10.802   4.140 -0.1963 -0.0090 -0.2917
25079W        W42603  13.931  14.981  13.560  0.0726 -0.0301 -0.3548
25080W        W42604   3.958   9.375  16.207  0.1728  0.0040  0.1163
25081W        W42605   2.346   7.507   1.037 -0.0677  0.2110  0.2394
25082W        W42606  10.385   0.481  14.656 -0.0827 -0.1619  0.0129
25083W        W42607   0.932  14.846  14.103 -0.0139 -0.1090 -0.0431
25084W        W42608  15.041  12.958   0.281  0.0251  0.0354 -0.0368
25085W        W42609  10.106   8.357   1.471  0.0454  0.0468  0.2232
25086W        W42610   5.286   9.342   4.214 -0.1022 -0.2401 -0.0862
25087W        W42611  17.248  14.295  14.141 -0.1629  0.1441  0.0383
25088W        W42612  15.094   9.489   2.294 -0.3321 -0.1026  0.0897
25089W        W42613  13.289   0.578  15.361 -0.2452 -0.0456 -0.3068
25090W        W42614  10.150   5.366   1.375 -0.0049  0.1459 -0.2478
25091W        W42615  10.735   5.480  14.553  0.0261 -0.1778  0.2459
25092W        W42616  11.077   1.663  11.661  0.2754  0.1547  0.2034
25093W        W42617   0.286   3.731   4.330 -0.0739  0.0450  0.0913
25094W        W42618   1.088   8.198  12.948  0.0528 -0.1033 -0.0545
25095W        W42619   2.403  10.769  16.396  0.0325  0.0465 -0.2185
25096W        W42620  10.539  12.587   2.953 -0.0615  0.0101 -0.0644
25097W        W42621  11.036   2.857  14.683 -0.4107 -0.0841  0.1296
25098W        W42622   6.402   2.069  12.209  0.3438  0.0976 -0.1606
25099W        W42623  10.458  13.468   0.526  0.1350  0.0906  0.2272
25100W        W42624   7.548  12.320   4.062  0.0418  0.1768 -0.2562
25101W        W42625  10.891   6.483   4.010 -0.0275  0.1455  0.0231
25102W        W42626  13.843   0.816  15.478  0.2161  0.1212  0.1402
25103W        W42627   7.990  13.879  14.852  0.0263 -0.0472  0.2526
25104W        W42628   4.422  16.456  17.371  0.1598 -0.1004  0.0550
25105W        W42629  13.054   5.061  12.938  0.1506 -0.3796 -0.2548
25106W        W42630  13.428   3.429  13.023 -0.1171 -0.0979  0.1179
25107W        W42631   0.151   9.869  17.160 -0.3306  0.0310  0.1241
25108W        W42632   8.718   3.966  16.229  0.2336  0.0677 -0.1466
25109W        W42633   2.180   8.983   2.654  0.2344  0.2850  0.1321
25110W        W42634   1.597   3.372   3.707 -0.1000 -0.0816  0.0562
25111W        W42635   9.091  10.771  14.246  0.0738  0.1999  0.0292
25112W        W42636   3.431  12.989  13.607 -0.3096  0.1409  0.0792
25113W        W42637  15.751  12.352   3.359  0.4488 -0.3848  0.0305
25114W        W42638   6.896   5.906   4.928  0.4237  0.0671 -0.2022
25115W        W42639  13.660   2.727   0.897 -0.2571  0.0430 -0.0161
25116W        W42640  10.927   0.352   0.535  0.0784  0.0885 -0.1985
25117W        W42641  10.404  15.549  13.719 -0.2420 -0.0024  0.1336
25118W        W42642  16.173   9.099  13.949  0.1131  0.3140  0.0845
25119W        W42643  15.536   9.030  14.996 -0.0113 -0.0196  0.3392
25120W        W42644   5.688  16.938  17.433 -0.2994  0.1109 -0.1383
25121W        W42645  12.295   7.343   0.584  0.2393 -0.0896 -0.2242
25122W        W42646   2.425   5.824  15.648  0.0098  0.1460  0.0028
25123W        W42647   0.020   1.775  13.555 -0.0843 -0.0895  0.1516
25124W        W42648  15.908   5.940   2.633  0.2589  0.4085  0.1158
25125W        W42649   4.688   0.367   3.490  0.3613  0.2195  0.1806
25126W        W42650   7.718  12.381  14.989 -0.3135  0.2568  0.1503
25127W        W42651   4.385   6.884   3.078  0.0433  0.0043  0.1471
25128W        W42652   4.807  16.468   2.355 -0.1898 -0.0006 -0.1589
25129W        W42653  14.609   5.397  16.356  0.4265  0.2429 -0.2556
25130W        W42654   4.976  15.706  13.924 -0.0971  0.0823 -0.0510
25131W        W42655   9.806   8.487   4.247 -0.0962  0.1650 -0.1741
25132W        W42656   3.815   5.766   3.715  0.1753  0.1082  0.2192
25133W        W42657  16.939  12.361  16.825  0.1026  0.1488 -0.0617
25134W        W42658   5.229   8.525  17.414 -0.1482 -0.0065 -0.2516
25135W        W42659  12.653   6.601   4.774 -0.0754  0.1340 -0.1821
25136W        W42660  12.037   6.379  13.749 -0.0381 -0.2127  0.0410
25137W        W42661  15.219   8.508   5.947 -0.1792 -0.0777  0.0359
25138W        W42662  16.883  15.008  16.747  0.0899  0.0838  0.1365
25139W        W42663  14.576  10.229   0.064  0.3113  0.3133  0.1746
25140W        W42664  14.594  11.108   3.803 -0.0000 -0.0523  0.1326
25141W        W42665   8.550   0.468   2.800 -0.2490  0.1488  0.0755
25142W        W42666  14.021  13.878  13.481  0.1719 -0.0431 -0.1828
25143W        W42667   1.481  10.420  17.434 -0.4653  0.0879 -0.2298
25144W        W42668  11.951  14.247   1.809 -0.1364  0.0634  0.0326
25145W        W42669  11.052  11.479   2.262 -0.0761 -0.0811  0.0451
25146W        W42670   2.997   7.245  13.056  0.3014 -0.0766  0.0052
25147W        W42671  12.730   0.544  12.349  0.0128 -0.0384  0.0718
25148W        W42672  12.118   8.223  17.408 -0.0434 -0.0339 -0.1089
25149W        W42673   2.353   1.839  15.272  0.2889 -0.2494  0.0602
25150W        W42674  15.896   4.024  12.469 -0.0404 -0.2185 -0.2183
25151W        W42675   3.295  16.410   2.118  0.1239 -0.3169  0.0747
25152W        W42676   0.341   0.099  12.437 -0.1838  0.3472  0.0774
25153W        W42677   5.574  14.320   1.133 -0.0120 -0.3676 -0.2418
25154W        W42678   2.850   9.356  14.761 -0.1366  0.4590  0.3316
25155W        W42679  10.710   0.569   5.371 -0.1421  0.1520 -0.2752
25156W        W42680   0.479  12.737   4.354  0.0484  0.0343 -0.1171
25157W        W42681   5.113   7.450   2.395 -0.0283 -0.0325 -0.1503
25158W        W42682   8.439  14.389  12.574 -0.1522  0.0384 -0.1032
25159W        W42683  12.182  12.845   4.487  0.2162 -0.0576 -0.1462
25160W        W42684  12.605   6.424  12.840 -0.0953 -0.0782 -0.2872
25161W        W42685   8.166  10.862   6.920  0.0046 -0.3636  0.1662
25162W        W42686  15.885  17.239   2.425 -0.1941  0.1450 -0.0624
25163W        W42687  15.948  12.498   4.962  0.0387 -0.1261  0.1324
25164W        W42688  13.768   8.144   3.330 -0.4470  0.3988  0.0295
25165W        W42689   7.107  13.584   2.176  0.3531  0.0606  0.0542
25166W        W42690  14.227   7.238   0.390 -0.0213  0.1021 -0.2569
25167W        W42691   9.913   4.029  13.121  0.2049 -0.0012 -0.0246
25168W        W42692  11.732   8.007   2.622  0.0102 -0.0103  0.0986
25169W        W42693   6.515   7.167  17.203  0.1911 -0.0028  0.1296
25170W        W42694  16.332   7.704  15.906  0.0881 -0.2097  0.0078
25171W        W42695   8.654  14.371  14.670  0.2302  0.1003  0.1461
25172W        W42696   1.162   1.285   0.657  0.3066  0.0986 -0.2647
25173W        W42697  15.338  16.757  13.483 -0.2131  0.0594  0.0890
25174W        W42698  11.034   8.522   2.547  0.0952  0.3651 -0.0038
25175W        W42699  17.138   1.496   4.507  0.3214 -0.2360 -0.0069
25176W        W42700   2.895   1.676  17.421 -0.0338  0.0276  0.0605
25177W        W42701  10.757   1.589   2.753 -0.1870 -0.1982 -0.0747
25178W        W42702   6.267  12.830  17.090  0.2448 -0.0308 -0.0293
25179W        W42703   5.911   0.222   0.923  0.0362 -0.1409 -0.0935
25180W        W42704   7.587   4.484  15.456  0.0899  0.1343  0.1835
25181W        W42705  15.947  13.848   1.505  0.0936  0.1900  0.0277
25182W        W42706   8.767   0.926  16.684  0.1657 -0.1232  0.3379
25183W        W42707   5.586   7.110   1.136  0.4163 -0.1136  0.0374
25184W        W42708   9.579  10.311  15.533  0.0616  0.1521 -0.0583
25185W        W42709  14.474   2.329  13.988  0.0951  0.0426  0.0895
25186W        W42710   9.834   8.348   1.966  0.0353  0.1352  0.2287
25187W        W42711  10.014   7.864  13.595  0.3026 -0.1170 -0.1964
25188W        W42712   7.513   4.693  14.640 -0.1080  0.1432  0.3541
25189W        W42713   2.445  13.125   3.949  0.2689 -0.3898  0.1623
25190W        W42714   0.287  17.083  17.435 -0.3771  0.1886 -0.1571
25191W        W42715  16.460   2.329   3.734  0.2921  0.0667 -0.3206
25192W        W42716  10.983   2.828  17.344  0.1612  0.1169 -0.0078
25193W        W42717   5.344   1.126  14.586  0.1392  0.0694  0.0779
25194W        W42718  15.021   9.355   0.193 -0.0637  0.1267  0.2207
25195W        W42719  16.425   8.737   1.440 -0.1612  0.4648 -0.1238
25196W        W42720   1.512  14.376  11.378  0.0704 -0.0382  0.3223
25197W        W42721   0.567   8.707   3.836  0.1553  0.0473 -0.2185
25198W        W42722   3.533   3.406  16.521 -0.5559  0.0707  0.1449
25199W        W42723  12.336   4.807  12.334 -0.2763  0.0033 -0.1214
25200W        W42724   2.506   9.665  17.322 -0.2309  0.0046 -0.1745
25201W        W42725  10.092  11.497   0.713 -0.0304 -0.0139 -0.0039
25202W        W42726   1.310   8.918  16.886 -0.0034  0.2348  0.2293
25203W        W42727   1.667  13.886   3.158  0.0582 -0.1548 -0.2344
25204W        W42728   6.159  15.095   5.571  0.0598 -0.1021  0.2419
25205W        W42729   6.432   1.398   5.099 -0.0103 -0.0941  0.2151
25206W        W42730   6.019   5.698   3.104  0.1900  0.1791  0.0122
25207W        W42731  15.689  15.913   5.064  0.0863 -0.2740  0.3655
25208W        W42732   3.958  13.078   1.112 -0.1379  0.1652 -0.2974
25209W        W42733   9.124   2.358  13.594  0.1522 -0.1941  0.1325
25210W        W42734  13.842   7.049  13.559 -0.1537  0.1583  0.2329
25211W        W42735   2.419  11.162   3.315  0.1236  0.1661  0.2824
25212W        W42736   2.785   5.740   4.417 -0.1172 -0.1766 -0.1316
25213W        W42737   6.328   9.852   0.987  0.1781  0.1513 -0.0746
25214W        W42738   4.790   1.534  16.649 -0.1813  0.2798 -0.2451
25215W        W42739   0.475   2.112  14.722 -0.1998 -0.0845 -0.2401
25216W        W42740   9.122  15.817   4.542 -0.5283 -0.2393  0.3621
25217W        W42741   0.729   3.891  12.418  0.1291  0.1814  0.0844
25218W        W42742   1.266   9.979   5.084 -0.1983  0.2815  0.0070
25219W        W42743  15.360   8.148  17.018 -0.1351 -0.2028  0.0173
25220W        W42744   6.707  10.531   3.429 -0.0509  0.0285  0.1944
25221W        W42745  11.429   6.460   3.261  0.0310 -0.2582 -0.0176
25222W        W42746   6.827  17.204   1.959 -0.2655 -0.1250  0.0810
25223W        W42747   3.146   5.395   3.395  0.0329 -0.1124  0.2200
25224W        W42748  13.170   2.619  17.111 -0.1982  0.2778  0.2971
25225W        W42749  16.111   2.564   4.980  0.0483  0.4166  0.2519
25226W        W42750   0.197   7.910  12.487 -0.2524  0.0837  0.1954
25227W        W42751   0.858  14.301   6.396 -0.1461 -0.2531 -0.1243
25228W        W42752   6.407   7.160  14.662 -0.5160  0.2149  0.0038
25229W        W42753  16.543   1.424  17.222 -0.2021 -0.1562  0.0435
25230W        W42754  14.891   5.920  11.483  0.0526  0.0035  0.0401
25231W        W42755   7.156  11.459   4.062 -0.0954 -0.1246 -0.2399
25232W        W42756  10.672  11.573  15.307 -0.1007 -0.3800  0.0084
25233W        W42757  11.524   5.263  15.735  0.3371 -0.3920  0.2366
25234W        W42758   9.231   7.566  16.088  0.0034  0.1309 -0.0150
25235W        W42759   2.084  11.093  12.427  0.0373 -0.1580 -0.0086
25236W        W42760  14.788   5.247   0.293 -0.1631  0.1125 -0.0733
25237W        W42761   3.957   9.106   4.055 -0.0029 -0.0256 -0.0731
25238W        W42762  14.173   3.138  14.370 -0.1731  0.1237  0.1253
25239W        W42763   0.536  11.788   3.579 -0.2090  0.1632  0.1323
25240W        W42764   9.844  11.158  14.558  0.0429  0.0311 -0.0696
25241W        W42765   9.821  10.142  13.095  0.0841 -0.0813  0.4456
25242W        W42766   2.780   5.441  12.697  0.2059  0.2317  0.1896
25243W        W42767   3.641  10.562  15.213  0.1067  0.1789  0.0067
25244W        W42768   2.420   0.000  16.831  0.2048  0.0981 -0.0050
25245W        W42769   8.798   2.738  13.837  0.1741 -0.2760 -0.4367
25246W        W42770   8.871   6.107  16.779  0.1047  0.1744 -0.0845
25247W        W42771   4.950   6.268   5.743  0.0023 -0.0871  0.0938
25248W        W42772   4.961  13.359   2.432  0.2458 -0.2805  0.0622
25249W        W42773   8.583   5.449   0.684 -0.2427  0.1272  0.0294
25250W        W42774   7.041   8.210   1.848 -0.1923  0.0974  0.0486
25251W        W42775  10.108   5.920   4.987  0.2190 -0.1066  0.0105
25252W        W42776  14.524   6.162   0.716  0.1267 -0.0285 -0.4774
25253W        W42777   1.745  10.907  13.841 -0.1002  0.2371  0.1704
25254W        W42778   7.633  14.402   4.056  0.1376 -0.1684  0.2229
25255W        W42779   9.724  14.860   3.260 -0.1564 -0.2075 -0.1083
25256W        W42780  14.945   8.958   2.656  0.0591  0.2507 -0.2243
25257W        W42781  15.499   9.701  13.419 -0.0862  0.3227 -0.1836
25258W        W42782  16.756   8.578  13.506  0.3451  0.0499  0.1859
25259W        W42783   3.998  13.771  17.436  0.0623 -0.1855 -0.2770
25260W        W42784  13.675   5.988   5.342 -0.2194 -0.0346  0.4661
25261W        W42785   2.213   1.507  16.096  0.0394  0.0597  0.2107
25262W        W42786  16.441  15.707   2.941  0.0220  0.1565 -0.1972
25263W        W42787   7.417   4.303  14.971  0.1525 -0.0627  0.2361
25264W        W42788   8.793   8.406  13.781 -0.0294 -0.4014  0.0567
25265W        W42789  11.278   6.292   4.284 -0.1127 -0.2156  0.1968
25266W        W42790   5.821  14.637  13.756  0.0357  0.0695 -0.2541
25267W        W42791   1.230  15.556  12.627  0.1111  0.0877  0.2971
25268W        W42792   8.165   6.970   4.502 -0.0259  0.1939  0.0481
25269W        W42793  10.047   5.209  13.084  0.0186  0.0717  0.0535
25270W        W42794   4.440   9.729  12.812 -0.0296 -0.3547  0.0551
25271W        W42795  15.365  12.024   3.377  0.2734  0.2561 -0.0593
25272W        W42796  16.352  16.893   3.472  0.2719  0.1356 -0.0912
25273W        W42797   4.027  13.557   3.953 -0.1688 -0.1983  0.1800
25274W        W42798   7.496  13.460  17.096 -0.2812 -0.1590 -0.3918
25275W        W42799   4.074  10.590  12.278  0.0795 -0.0953  0.0225
25276W        W42800  16.163   9.259  14.990  0.0469  0.0032 -0.0177
25277W        W42801   9.630   3.294   2.913 -0.2150 -0.0712 -0.1043
25278W        W42802   1.010   9.675  16.807 -0.0413  0.0335 -0.1757
25279W        W42803   8.122   2.266   0.111 -0.0588 -0.3093  0.1154
25280W        W42804   9.866  15.794   1.741 -0.0231  0.0939  0.2746
25281W        W42805  13.686   7.278   4.711  0.3293 -0.0066 -0.1619
25282W        W42806   5.369   0.043  12.626 -0.1068  0.3312 -0.0213
25283W        W42807  11.700  12.599  13.322  0.2031 -0.0479  0.1383
25284W        W42808   3.306   7.510   4.333  0.1038 -0.2855  0.0649
25285W        W42809  13.785   3.907   4.700  0.0375 -0.2392 -0.0968
25286W        W42810   1.469  14.366  14.397  0.0487  0.1578 -0.0916
25287W        W42811  10.099  11.883   3.003 -0.1650 -0.1764 -0.2081
25288W        W42812  14.136   2.508  15.240  0.1727 -0.0923  0.2342
25289W        W42813   5.786   4.671  14.441 -0.2314 -0.1385 -0.0649
25290W        W42814   4.904  16.493   3.658  0.0944 -0.0358  0.2746
25291W        W42815  11.832   9.569   4.546  0.3123  0.1108 -0.2763
25292W        W42816   3.327   8.698   1.039 -0.1282 -0.3904 -0.1334
25293W        W42817   0.921   6.006  14.569  0.1798 -0.0328 -0.2338
25294W        W42818   2.316   3.104   5.069  0.1625  0.2345 -0.0804
25295W        W42819   4.108  10.586  15.450  0.2191 -0.1120 -0.0398
25296W        W42820  10.150  15.296   4.373  0.0803  0.3205  0.2468
25297W        W42821  14.065  14.954   3.926  0.0833 -0.1747  0.2744
25298W        W42822   7.629   2.187   0.011  0.3348 -0.0454  0.1984
25299W        W42823  10.541  16.994  17.025  0.4609 -0.1876 -0.0991
25300W        W42824   2.974  14.027   1.343 -0.0851  0.2690  0.1529
25301W        W42825   0.343  10.025  15.947 -0.1058 -0.3631 -0.2129
25302W        W42826   4.581   0.364  12.406 -0.0332 -0.1596  0.1039
25303W        W42827  15.946   3.526   4.196 -0.1593 -0.1105 -0.0553
25304W        W42828   2.254  11.587  16.691  0.0468  0.2384 -0.1020
25305W        W42829   6.604  11.595  15.165  0.2572 -0.0511 -0.1657
25306W        W42830   9.314   4.636  12.880 -0.2553  0.3561 -0.0968
25307W        W42831   9.926  16.148  14.106 -0.1065  0.0143  0.1221
25308W        W42832   5.240   1.458  13.806 -0.2410  0.3176 -0.1320
25309W        W42833   9.455  14.545  17.534  0.0948  0.2945 -0.0831
25310W        W42834   6.977  12.922   4.543 -0.1159  0.0101  0.1010
25311W        W42835   3.550   1.263  12.341 -0.3809 -0.1437 -0.1384
25312W        W42836   7.552   2.952   0.083  0.0598 -0.0106 -0.1246
25313W        W42837  13.193   8.891   3.272  0.1538 -0.7551 -0.0205
25314W        W42838   9.553   9.196  14.570 -0.0740 -0.0972  0.0144
25315W        W42839   4.256   8.254   5.632 -0.0612 -0.1010  0.0060
25316W        W42840   7.444   8.101   3.442  0.2793  0.0659  0.1841
25317W        W42841  16.379   7.640  14.285  0.0599  0.0556 -0.0971
25318W        W42842  10.636  16.514   4.882 -0.1763 -0.1424 -0.2079
25319W        W42843   7.365   6.450   1.717  0.0568 -0.0886 -0.1466
25320W        W42844   7.610   3.562   3.869  0.4650  0.0010 -0.0144
25321W        W42845   7.042  16.794   1.739  0.3195 -0.0461  0.3268
25322W        W42846   3.664   7.779   3.668 -0.2374 -0.1412  0.0697
25323W        W42847  10.145   4.101   2.570 -0.1586 -0.1578  0.1268
25324W        W42848   2.977   8.565   2.670 -0.2508  0.1567  0.0670
25325W        W42849  15.415  10.253   3.143  0.1232 -0.0224 -0.0316
25326W        W42850  17.205  15.427   0.508 -0.0030 -0.4391  0.1395
25327W        W42851  10.231  13.632   5.755  0.0472 -0.2294 -0.2206
25328W        W42852  11.682   8.774  15.302 -0.0329 -0.0569 -0.1354
25329W        W42853   8.759   6.904  17.285  0.1044  0.0120  0.0380
25330W        W42854   5.865  11.803   1.974  0.1130  0.0655  0.1194
25331W        W42855  15.148  13.864   1.861  0.4453 -0.2319 -0.0909
25332W        W42856  16.486   0.535  11.850 -0.3821  0.0430 -0.0471
25333W        W42857  12.394  10.937  15.755 -0.1637  0.1682  0.0858
25334W        W42858  10.059   9.445   1.133  0.0007 -0.0387  0.0117
25335W        W42859  11.724  16.392  15.144 -0.2371  0.1246  0.1773
25336W        W42860   3.867  15.152  15.291  0.1491  0.2319  0.1922
25337W        W42861   9.633  16.859  17.557 -0.1397 -0.0914 -0.0057
25338W        W42862  13.091  10.419   4.826 -0.1718  0.3575  0.1857
25339W        W42863  10.846  13.927  14.732  0.0895 -0.0237  0.0480
25340W        W42864   1.357  16.482   5.294 -0.0285 -0.1240 -0.2504
25341W        W42865   4.717   7.988   0.499  0.1174 -0.1478 -0.0019
25342W        W42866   4.301   9.832  15.274 -0.1474  0.0931  0.0627
25343W        W42867   4.912   3.325   0.497  0.1746  0.0206 -0.1009
25344W        W42868   3.192  10.994   1.312  0.2673 -0.0502 -0.0281
25345W        W42869   8.706  12.827  12.291  0.0152 -0.4267  0.1787
25346W        W42870  13.344   0.169   1.241  0.1802  0.0593  0.2378
25347W        W42871  10.160   3.840  15.190  0.0420  0.0475 -0.2316
25348W        W42872   4.931   9.015   1.466 -0.1330  0.0620 -0.2980
25349W        W42873  14.728   1.046  12.904 -0.1954 -0.1119 -0.0766
25350W        W42874   7.590   4.811  14.153  0.1483  0.0714 -0.1333
25351W        W42875   4.859  12.934  12.521  0.0063 -0.0836  0.0090
25352W        W42876   3.761   0.847  12.011 -0.1760 -0.0406  0.0337
25353W        W42877   2.009   6.497   2.474 -0.0968 -0.1562 -0.1796
25354W        W42878   5.878   1.317   0.858  0.2255 -0.1147  0.0120
25355W        W42879   2.114   7.794   3.989  0.3061  0.1106  0.0946
25356W        W42880   9.959  14.260   4.111 -0.0987 -0.0537 -0.0176
25357W        W42881  10.812   0.574   3.493 -0.0182 -0.1479  0.0293
25358W        W42882  11.353  12.263  13.689  0.0731 -0.0014  0.3063
25359W        W42883   6.240   0.822  15.523 -0.0219  0.1685  0.0492
25360W        W42884   0.983  14.137   1.974 -0.0500 -0.0545  0.1773
25361W        W42885  15.223  16.981  17.412  0.3104 -0.0674  0.0781
25362W        W42886   3.988   7.079  16.057  0.0740 -0.1580  0.0199
25363W        W42887   6.985  11.536  16.381  0.1642 -0.0014 -0.0982
25364W        W42888  14.281  13.994   2.963 -0.2845  0.2406  0.1386
25365W        W42889   3.448   8.215   1.207 -0.1627  0.2786 -0.0659
25366W        W42890  11.832  15.858  15.122  0.1476  0.0941  0.0087
25367W        W42891   7.416  15.579   0.092  0.0481  0.0929 -0.0738
25368W        W42892   6.577  13.140  17.293  0.0382  0.0582 -0.2697
25369W        W42893  11.263  16.860  16.564 -0.0452  0.0505  0.0644
25370W        W42894   8.065  16.877  12.370 -0.2792 -0.0365 -0.2221
25371W        W42895   5.590  11.453   3.268  0.2349  0.2128 -0.0260
25372W        W42896   1.975  10.279   4.892  0.1357  0.0384  0.2943
25373W        W42897   3.119  16.058   0.084 -0.1060 -0.0546  0.5095
25374W        W42898   8.261   5.648   5.708 -0.0266 -0.1607  0.1704
25375W        W42899   9.699   3.707   1.902 -0.1280 -0.2117  0.0075
25376W        W42900   7.957  13.278  16.477 -0.0467  0.0574  0.1508
25377W        W42901   2.536   1.936   2.717  0.0614 -0.2859 -0.1593
25378W        W42902  11.246   0.071  14.009  0.0107 -0.1908 -0.0563
25379W        W42903   8.449  10.305  17.216  0.2008  0.3083 -0.0515
25380W        W42904  11.395  17.116  14.885 -0.1859 -0.0305  0.0132
25381W        W42905   5.569   0.436  15.936  0.1467  0.2060  0.2818
25382W        W42906  12.085   9.750  14.484 -0.1478  0.0901  0.1408
25383W        W42907  13.596  10.529  17.461  0.1803 -0.2275 -0.0216
25384W        W42908  14.201   6.680   5.052  0.2746 -0.1381 -0.0344
25385W        W42909   1.873   5.519  13.358 -0.0028  0.1216  0.1907
25386W        W42910  14.170   8.284  14.291 -0.0410 -0.1105  0.1787
25387W        W42911   2.845  11.804   1.056  0.2006  0.0515  0.1507
25388W        W42912   8.044  14.647  12.381 -0.0250  0.1716  0.1164
25389W        W42913  11.686   7.257   3.362  0.1073  0.0192 -0.3201
25390W        W42914  14.159   1.740   0.667  0.1193 -0.2599  0.0901
25391W        W42915   0.907   5.501  14.820  0.1791 -0.0089 -0.1855
25392W        W42916   0.715   1.189  13.391  0.0722 -0.0243  0.4112
25393W        W42917   3.528   2.927  14.522  0.2307 -0.1446  0.2271
25394W        W42918   1.339   0.192   5.154 -0.2207 -0.1277 -0.0270
25395W        W42919   4.547  13.986   0.577  0.1578  0.0911  0.2501
25396W        W42920  12.961   7.150  17.426 -0.0046  0.0636  0.4671
25397W        W42921   5.959  15.336  15.072  0.3618  0.1441  0.1029
25398W        W42922   8.619   0.654   4.119 -0.2184  0.0560 -0.2401
25399W        W42923  10.331   0.031   5.463  0.2489  0.1142 -0.0473
25400W        W42924   6.456   3.487  14.704 -0.3486  0.3729  0.1506
25401W        W42925   2.929   6.518  15.386 -0.0585  0.0721  0.1463
25402W        W42926  14.915   5.776  14.820  0.2341 -0.1399 -0.0485
25403W        W42927  13.699  16.148  15.579  0.0107 -0.1232  0.2522
25404W        W42928   9.343   0.918   1.908  0.0376 -0.1218  0.1250
25405W        W42929  16.653  12.959  13.763 -0.0831 -0.0814  0.2582
25406W        W42930   2.639  14.422   0.876  0.1939  0.1798  0.0018
25407W        W42931  12.216  13.411  13.532  0.0044 -0.0433  0.2972
25408W        W42932  15.223  10.140   0.539  0.0488  0.0552  0.2300
25409W        W42933   9.448   7.830  12.830 -0.0505  0.1050 -0.1649
25410W        W42934   0.445  13.241  14.015 -0.1693  0.2003  0.0509
25411W        W42935   3.565   6.432  14.113 -0.0582 -0.1002 -0.2920
25412W        W42936  10.353  13.807   1.466 -0.0777  0.2576 -0.2736
25413W        W42937   5.424  14.810  12.048  0.3542 -0.0532 -0.0765
25414W        W42938  13.738  11.305   1.514 -0.0621  0.0457  0.0342
25415W        W42939   9.168  13.727   4.140  0.0972  0.1759 -0.3124
25416W        W42940  13.765  16.863  16.306 -0.1729  0.3665  0.2583
25417W        W42941  17.153   0.364   1.480 -0.0491  0.0331 -0.0711
25418W        W42942   2.824   4.831   1.902 -0.0298 -0.0963 -0.1336
25419W        W42943   9.573   4.986  15.175 -0.0031  0.0617 -0.3021
25420W        W42944  16.436  10.874   1.578  0.1085 -0.2186  0.0434
25421W        W42945  16.783   9.508  15.747  0.0606  0.0408  0.2040
25422W        W42946   7.284   1.306   4.720 -0.1041  0.2297 -0.1954
25423W        W42947   9.679  14.788   0.252  0.1687 -0.3363  0.0065
25424W        W42948   2.282  16.741   3.640  0.2248 -0.0705  0.2212
25425W        W42949  14.141   8.753   5.119 -0.0126  0.0674 -0.1107
25426W        W42950  13.557   3.320  13.528 -0.0280 -0.3339 -0.0131
25427W        W42951   0.288   9.554   1.746 -0.0078  0.1734 -0.0050
25428W        W42952  17.165   1.255   4.996 -0.1580  0.2505  0.3920
25429W        W42953   2.318  17.046   1.289  0.0820 -0.0108  0.0873
25430W        W42954   2.200  16.033  15.448 -0.2032  0.2402  0.0897
25431W        W42955   2.249   8.641   3.455  0.0889 -0.3130  0.0579
25432W        W42956   9.206   1.858  12.648 -0.0870  0.1344  0.0724
25433W        W42957   1.718  15.621   4.681 -0.2427  0.1234 -0.1013
25434W        W42958   4.090  13.054   0.156 -0.2272  0.0442  0.3541
25435W        W42959   7.877   1.237  16.992 -0.2586 -0.0017 -0.0052
25436W        W42960   3.182  11.341   0.383  0.1554 -0.0977  0.1523
25437W        W42961  12.996   7.724   0.321 -0.1405 -0.0854 -0.0358
25438W        W42962   6.779  16.110  15.215  0.0586  0.2699  0.1201
25439W        W42963  12.456   7.401  17.270 -0.1177  0.1376  0.0250
25440W        W42964   0.932   7.366  12.735  0.1397 -0.1033 -0.2397
25441W        W42965   2.457   4.318   5.289  0.0334 -0.0709 -0.1220
25442W        W42966  13.898   6.302   2.488  0.0492 -0.1387 -0.4031
25443W        W42967   1.375   5.500  16.267  0.2343  0.2595 -0.2140
25444W        W42968   2.815  14.775  12.383 -0.0409  0.3851  0.2106
25445W        W42969  12.143   1.504   1.923  0.1299  0.2015  0.0042
25446W        W42970   8.378   2.689  13.073  0.1977 -0.2098 -0.2189
25447W        W42971  12.779  15.674   1.442  0.0859  0.1039  0.2889
25448W        W42972   2.988  13.792  16.152 -0.1830 -0.0222 -0.2636
25449W        W42973   1.212  10.965   0.179  0.0361  0.0551 -0.3712
25450W        W42974   5.688  12.968  13.525  0.2129 -0.2727  0.1443
25451W        W42975   8.880   7.744   0.007  0.2936  0.1417  0.2385
25452W        W42976   3.170   3.338  11.923  0.0772 -0.0226  0.0136
25453W        W42977  10.416   9.659  15.800  0.0547  0.2378 -0.0935
25454W        W42978  12.902   8.219   0.407 -0.1597  0.0176 -0.0082
25455W        W42979  10.323   1.279  14.011  0.1197 -0.0928  0.5560
25456W        W42980   0.565   6.916  16.279 -0.2765 -0.1493  0.0977
25457W        W42981  11.800  11.037  17.486 -0.2054  0.0066  0.0137
25458W        W42982   0.999  13.788  15.668 -0.2469 -0.1513 -0.3367
25459W        W42983  14.260  13.583   0.796 -0.1423  0.2476 -0.2110
25460W        W42984   1.097  11.223   3.859  0.1029 -0.0544  0.0209
25461W        W42985  13.236   5.131  17.290  0.0396  0.2511  0.0672
25462W        W42986   7.942  11.625  13.385 -0.1227 -0.0548  0.0611
25463W        W42987  14.140   4.191  15.404  0.0764  0.2671 -0.2102
25464W        W42988  12.978   7.669  12.901 -0.1594 -0.0865  0.0202
25465W        W42989   1.716   2.752   0.842 -0.0445 -0.2271 -0.0607
25466W        W42990   7.609   4.279   2.567 -0.0544 -0.0899 -0.1414
25467W        W42991   8.020   9.015   0.095  0.3190 -0.0666  0.2182
25468W        W42992   0.926   2.105   3.954  0.2098  0.0721  0.2767
25469W        W42993  14.155  10.975   4.101 -0.2506 -0.0959 -0.1284
25470W        W42994   3.664   0.207   4.853  0.3308 -0.0167  0.2370
25471W        W42995   6.089   7.515   5.241 -0.0247 -0.0534  0.1034
25472W        W42996   2.952   4.259   5.062 -0.0354 -0.2620 -0.1096
25473W        W42997   6.151  16.834   2.622 -0.0726  0.1703  0.1380
25474W        W42998  15.839  14.853  14.334 -0.1397 -0.0627  0.0217
25475W        W42999  11.610  12.807   3.905 -0.1669 -0.2304  0.1896
25476W        W43000  12.906   7.640  17.502  0.1004 -0.0123  0.1657
25477W        W43001  12.957  14.919  13.362  0.0536  0.3217 -0.0019
25478W        W43002  12.635   4.960   1.886 -0.2050  0.0074 -0.1703
25479W        W43003  11.380   8.017  15.747 -0.0420  0.3294  0.0221
25480W        W43004  16.837  16.850   3.632 -0.0553 -0.2476  0.0465
25481W        W43005   4.671  16.495  14.619 -0.0674  0.2230  0.2963
25482W        W43006   2.697   6.899  12.901 -0.0055  0.1452  0.0392
25483W        W43007  10.025   2.062   5.985 -0.0467 -0.4555 -0.1549
25484W        W43008  10.422   5.796   1.273 -0.2130 -0.0715  0.0854
25485W        W43009   8.568   7.011   4.228 -0.0141 -0.1289  0.1928
25486W        W43010  11.834   0.302   1.601  0.0819  0.4223 -0.0116
25487W        W43011  16.095  13.249   2.365 -0.2923 -0.1463 -0.0849
25488W        W43012   7.173  12.640  14.725 -0.1287  0.0577 -0.0734
25489W        W43013  11.347   1.911  15.509 -0.0435 -0.1205 -0.1850
25490W        W43014  12.954   6.047   4.159  0.0067  0.1671  0.0712
25491W        W43015   0.852   4.905  16.713  0.1881  0.0591  0.0483
25492W        W43016   8.432  13.488  16.497 -0.1927 -0.2463 -0.0493
25493W        W43017  10.393   3.467   3.927  0.0607 -0.2229  0.0144
25494W        W43018   9.701  12.337   5.181  0.1135  0.2293 -0.1100
25495W        W43019  10.220  12.282   5.236  0.5407 -0.0985 -0.0199
25496W        W43020   8.908   6.592   3.263  0.1333  0.0469  0.2618
25497W        W43021   1.374   4.068   0.312  0.0250  0.2176 -0.0345
25498W        W43022   9.897   8.540  14.186  0.0337  0.3162 -0.1698
25499W        W43023  11.585  10.138   0.160  0.3432 -0.0685  0.0098
25500W        W43024   2.108  11.009   1.244  0.1909  0.0693 -0.2953
25501W        W43025  16.521  10.545  14.621 -0.1099  0.1711  0.1082
25502W        W43026   2.911   5.262   5.368  0.0309  0.0953  0.2505
25503W        W43027  15.377  11.713   4.453 -0.1931 -0.0738 -0.1662
25504W        W43028   1.416   4.699   3.325  0.0822 -0.2263 -0.0693
25505W        W43029   4.727   9.581  17.332  0.0912 -0.2946  0.1054
25506W        W43030  12.211  14.394  13.151 -0.0303  0.1697  0.0419
25507W        W43031  13.536   1.533  16.231 -0.2256  0.1132  0.0593
25508W        W43032   7.918  16.739  14.300  0.0006 -0.1354  0.0551
25509W        W43033   9.483   0.796   1.469 -0.1168 -0.1165 -0.1635
25510W        W43034   9.438  12.497   4.784 -0.0838  0.1541  0.3594
25511W        W43035   0.549   0.237  15.837  0.0188  0.1703  0.3333
25512W        W43036   5.424   9.079   0.415 -0.0256  0.1297 -0.2135
25513W        W43037   4.374   6.314  16.508 -0.0113 -0.2685  0.2390
25514W        W43038  12.224   3.941   3.238 -0.1543  0.0144 -0.0536
25515W        W43039  16.624   7.441  11.833 -0.0569  0.0738 -0.2514
25516W        W43040   5.818   3.228   2.456  0.0497 -0.0131  0.0591
25517W        W43041   4.405   8.124  15.074  0.1536 -0.0933  0.0809
25518W        W43042   7.288   9.452  17.456  0.0746  0.1185  0.1470
25519W        W43043  16.611  14.681   4.460 -0.2528  0.0612  0.1302
25520W        W43044   8.107   0.595   4.133 -0.2002  0.3782  0.0948
25521W        W43045  11.570  10.933  12.038  0.1625 -0.1002  0.0096
25522W        W43046   7.232  13.263  12.864 -0.2159 -0.1065 -0.0305
25523W        W43047  13.703  12.493  14.190 -0.1643  0.1114  0.0738
25524W        W43048   8.216   9.820   0.876  0.0972 -0.1352 -0.0272
25525W        W43049   1.654  16.163  13.202 -0.0485 -0.0301  0.1232
25526W        W43050  13.177   3.961   1.894 -0.2158  0.1790  0.0899
25527W        W43051   7.305   5.569  14.481 -0.4234  0.3035  0.0313
25528W        W43052   3.301  15.458  17.065  0.1923  0.0651  0.1136
25529W        W43053   1.263   9.453  12.148  0.0542  0.0404 -0.0292
25530W        W43054  10.876   8.901  17.099 -0.0617  0.1967  0.2056
25531W        W43055   4.676  15.427  13.668 -0.0922 -0.1089 -0.2461
25532W        W43056   5.109  10.068  13.185 -0.1473 -0.1778 -0.0493
25533W        W43057   9.976   6.298  13.745 -0.3210  0.0609 -0.1441
25534W        W43058  10.660   0.175   3.828  0.0965 -0.0686  0.0744
25535W        W43059   5.470  13.820   5.643 -0.1749 -0.0383 -0.1938
25536W        W43060   5.531  13.954   2.960  0.2195 -0.2891  0.1899
25537W        W43061  12.259   2.099   5.569 -0.0042 -0.3256 -0.0382
25538W        W43062   4.529   0.009   1.588  0.0219 -0.1901 -0.0680
25539W        W43063  10.566  12.459  15.584 -0.1544 -0.2559  0.1494
25540W        W43064  11.652   3.964  15.363  0.0336  0.0583 -0.0672
25541W        W43065   9.808   2.689  14.761 -0.1275  0.0723  0.1984
25542W        W43066  13.210   3.455  12.617  0.0947 -0.0704  0.3633
25543W        W43067  15.504   9.391   4.403 -0.0889  0.2740 -0.0219
25544W        W43068  13.138  15.313  17.402 -0.1378 -0.1679 -0.3978
25545W        W43069  11.826   6.324   1.359  0.5237  0.2211 -0.1637
25546W        W43070   7.149  10.692  14.236  0.0354  0.1504  0.3298
25547W        W43071   8.982  15.886   0.545 -0.0195 -0.2016  0.2754
25548W        W43072  10.904   2.844  15.415  0.2437 -0.5019 -0.2153
25549W        W43073   6.039  13.090   1.485  0.1252 -0.0780 -0.1599
25550W        W43074  13.912   1.685  17.458 -0.0575  0.0499  0.2712
25551W        W43075   4.888  14.959   3.806  0.1434 -0.0769 -0.1658
25552W        W43076   5.395  14.347  13.918  0.0167 -0.0105  0.2233
25553W        W43077   7.686  13.774   3.007  0.3208  0.2158 -0.0073
25554W        W43078   1.839  10.673   4.622  0.0609  0.0794  0.1066
25555W        W43079  11.498   0.376   4.960  0.1360  0.1137  0.0296
25556W        W43080  10.006   5.398  14.097  0.3449  0.0346  0.1791
25557W        W43081   4.746   8.223   1.952  0.0711  0.0845 -0.0355
25558W        W43082  15.904  12.465  13.022  0.0950  0.1258 -0.0748
25559W        W43083  12.780  11.646   3.961 -0.1564 -0.1536 -0.2952
25560W        W43084  15.412   3.661  13.900 -0.1352 -0.1125  0.4174
25561W        W43085   2.534   0.859  17.434 -0.2691 -0.0339 -0.2079
25562W        W43086   2.434   1.866  17.380  0.0182 -0.0151  0.0363
25563W        W43087   9.663   9.204   1.940 -0.2267 -0.0305  0.0782
25564W        W43088  16.777   6.329  13.110  0.1642 -0.0782  0.0052
25565W        W43089  13.099  10.125   0.359 -0.0759  0.2504  0.1176
25566W        W43090  10.543   7.992  15.684 -0.0636  0.0098  0.1489
25567W        W43091  12.418  14.025   0.258 -0.1030  0.2745 -0.3330
25568W        W43092   8.249   0.877   4.481 -0.3504  0.0842 -0.3057
25569W        W43093  15.592  11.652  11.635 -0.1371 -0.0563 -0.3434
25570W        W43094  13.075  11.797   1.795  0.0680  0.0311  0.0973
25571W        W43095   9.767  10.377   5.122  0.0003  0.3203  0.0661
25572W        W43096  13.582  12.675   4.063  0.3816 -0.1812 -0.1330
25573W        W43097  15.333   7.126  17.391  0.0565 -0.0155  0.0858
25574W        W43098   3.077  15.621   5.089  0.0081  0.0391 -0.0836
25575W        W43099   6.142   4.251  15.091 -0.1760  0.1388  0.0481
25576W        W43100   6.962  11.550   5.276  0.1659  0.0945  0.2046
25577W        W43101   4.637   4.233  16.039 -0.0149 -0.3741 -0.2338
25578W        W43102   0.467  16.856  12.633  0.0535 -0.0070 -0.1444
25579W        W43103  12.069  12.054   3.117  0.0064  0.0434  0.0632
25580W        W43104  15.998   9.349  16.782 -0.4312  0.2424 -0.1750
25581W        W43105  13.499  14.552  15.689 -0.1147 -0.2092  0.2373
25582W        W43106   7.053   6.115  15.186 -0.0156 -0.4203 -0.2533
25583W        W43107   0.455   2.825  12.166 -0.0475  0.0865  0.0429
25584W        W43108  15.991  17.177  15.370 -0.0691 -0.0751 -0.0037
25585W        W43109   5.218   4.742   5.226  0.2123  0.4693  0.1122
25586W        W43110   5.056  12.009  14.093  0.1440 -0.1517 -0.0574
25587W        W43111   3.285  11.082  15.220  0.1808 -0.0278  0.0579
25588W        W43112   2.088   0.124   1.584  0.0512 -0.1583 -0.0753
25589W        W43113  10.242  14.079   0.334  0.2591 -0.0207 -0.1338
25590W        W43114   1.280  13.112  16.594  0.0281  0.0436 -0.0388
25591W        W43115  12.909   3.206  16.057  0.0497 -0.1444  0.0083
25592W        W43116   1.064   3.675  12.681 -0.0721 -0.0406 -0.1387
25593W        W43117   9.221  14.125   0.090 -0.1874  0.0454 -0.1426
25594W        W43118   6.408   3.325  13.514  0.0576 -0.0177  0.0197
25595W        W43119   0.705   5.769   0.372  0.0050 -0.0351 -0.0703
25596W        W43120   2.011   8.625  12.483  0.0198  0.1151  0.0201
25597W        W43121   8.829  10.056  16.538 -0.0859  0.1068  0.4172
25598W        W43122   5.765   5.736  16.141  0.1147  0.0981  0.0140
25599W        W43123  14.604   8.381   1.625  0.2650  0.0356  0.1189
25600W        W43124   2.499  14.968   0.465  0.0760  0.0140  0.0516
25601W        W43125  10.263   6.119   5.431 -0.2543  0.2612 -0.2778
25602W        W43126   1.400   6.126  14.676 -0.0526  0.3266  0.1362
25603W        W43127  14.206   7.822  16.081 -0.0479 -0.0038 -0.1315
25604W        W43128  16.553  11.445   5.586  0.2183 -0.1562 -0.0869
25605W        W43129  12.916   5.263  13.401  0.1199 -0.1339  0.0060
25606W        W43130   0.890   0.689  17.094 -0.0444 -0.0665 -0.0228
25607W        W43131  11.038  10.398   3.980  0.0457 -0.0055 -0.1615
25608W        W43132   7.131   8.269   4.851  0.3494  0.3293  0.1473
25609W        W43133  12.166  12.877  12.362  0.2997  0.0470 -0.0149
25610W        W43134   2.434  10.157   4.187 -0.3626  0.3044  0.0239
25611W        W43135  11.428  15.012  15.433  0.1954 -0.0360 -0.2754
25612W        W43136  13.544  11.369   2.995 -0.0529 -0.0288 -0.1207
25613W        W43137  12.800   2.670   1.307 -0.0678 -0.1647  0.4310
25614W        W43138   5.256   4.793  14.551  0.0114 -0.1574 -0.0269
25615W        W43139  14.777  10.267  12.105  0.1271  0.1991  0.0535
25616W        W43140   1.332  17.036   1.805  0.2973  0.0241 -0.2350
25617W        W43141   8.097   6.226   5.480  0.0024  0.1219 -0.0371
25618W        W43142   2.607   9.056  16.105 -0.1159 -0.1801 -0.0650
25619W        W43143  12.743  12.618  12.625  0.0519  0.0447 -0.3659
25620W        W43144  14.605  15.477  15.376 -0.1053 -0.1797  0.0320
25621W        W43145   1.720  13.109  14.432  0.1775 -0.0258  0.0673
25622W        W43146  13.765  15.536  11.857 -0.0695  0.1275  0.0081
25623W        W43147  16.971   6.708   1.501  0.0686 -0.4282  0.3028
25624W        W43148  13.291   5.195  16.699 -0.2658 -0.1292  0.1462
25625W        W43149   2.640   4.416   2.204 -0.1991  0.1624  0.0595
25626W        W43150  14.408  12.487   4.204 -0.1582 -0.4385 -0.0269
25627W        W43151   4.106   7.372  15.657 -0.0767  0.0762  0.3966
25628W        W43152  14.890  16.404  12.865  0.1302  0.1191 -0.5482
25629W        W43153  13.551   1.853  13.061 -0.1731  0.0422  0.1757
25630W        W43154  13.862   5.930  12.170  0.1953  0.0168  0.1158
25631W        W43155  14.590  15.446   4.439 -0.0604 -0.3906  0.1399
25632W        W43156  12.955  15.630   4.224  0.0807 -0.0636 -0.0296
25633W        W43157   8.838  15.279   5.094  0.2083 -0.1547 -0.2545
25634W        W43158   1.555   5.763   0.761  0.2461  0.2763 -0.0202
25635W        W43159   0.053  12.110  16.079  0.0643 -0.3709  0.0784
25636W        W43160  14.715   7.156  16.290  0.4694  0.0707  0.0379
25637W        W43161   7.796  10.738  16.092  0.1508  0.2665  0.1342
25638W        W43162  15.467  15.835  13.016  0.3280 -0.0928  0.3392
25639W        W43163  16.215  16.889   2.381  0.0886 -0.1433 -0.0548
25640W        W43164   0.884  11.074  15.293 -0.1681  0.1422  0.2185
25641W        W43165   8.234   2.866  15.734  0.3540 -0.1217 -0.3363
25642W        W43166  11.211   3.471   2.108  0.0394  0.3796  0.0336
25643W        W43167   4.555  16.157   2.678 -0.0527  0.0338  0.1883
25644W        W43168  11.452   0.004  17.148 -0.1450  0.0319 -0.0137
25645W        W43169  11.864   2.399  14.820  0.0778 -0.0761  0.4877
25646W        W43170   1.839  11.992   5.770  0.0299 -0.0474 -0.3651
25647W        W43171   7.347   5.195   5.751  0.3005  0.0183  0.2681
25648W        W43172   3.387  14.540  17.230  0.1620  0.0420 -0.0361
25649W        W43173  11.570  14.808   2.882 -0.0129  0.0589  0.2825
25650W        W43174   0.696   1.130   0.832  0.0851 -0.0342  0.2029
25651W        W43175  13.654   5.664  15.459 -0.0523  0.1508  0.0944
25652W        W43176  16.117  10.595  14.839  0.1234  0.2689 -0.1680
25653W        W43177   5.965   0.143   3.937  0.1866 -0.1788  0.1470
25654W        W43178  15.651  13.069  16.738  0.1478 -0.1811 -0.1965
25655W        W43179  16.779   4.704   0.484  0.2533  0.1855 -0.1427
25656W        W43180  10.920   1.708  13.472  0.2613 -0.0940 -0.2124
25657W        W43181  14.666   0.998   5.585  0.1512  0.0912 -0.5148
25658W        W43182   1.011  14.556  16.599 -0.0923  0.1025  0.1770
25659W        W43183   3.134  16.831  13.274  0.2093 -0.2672  0.0674
25660W        W43184  12.700  13.374  16.783  0.0899 -0.1502  0.0538
25661W        W43185   4.246   4.208  11.489  0.0565 -0.0314 -0.1047
25662W        W43186  11.519  11.354   4.000 -0.0178  0.1430 -0.0264
25663W        W43187   5.123   9.998  15.958  0.1402 -0.1619 -0.3796
25664W        W43188   4.647   7.853  17.533  0.2104  0.0636 -0.2480
25665W        W43189  15.448  11.129  14.624  0.2484 -0.3207 -0.1821
25666W        W43190   2.563   9.840   5.374 -0.0632 -0.2882  0.1418
25667W        W43191   3.637  11.914  16.733 -0.0368 -0.0590 -0.1436
25668W        W43192  14.536  16.588   4.079 -0.2920  0.0014 -0.1935
25669W        W43193   2.947   4.242  15.294 -0.1061  0.2490 -0.1201
25670W        W43194   1.610   3.429  12.089 -0.0901 -0.0125  0.2591
25671W        W43195   8.597  11.026   2.852  0.0497 -0.2226  0.0846
25672W        W43196  12.093  14.025   2.761 -0.2991 -0.0365  0.0215
25673W        W43197   4.610   7.289   3.186 -0.1682 -0.0071 -0.0549
25674W        W43198   0.730   5.210  15.412 -0.1545 -0.3094 -0.1538
25675W        W43199   1.096  13.261  17.219  0.0316  0.3184 -0.0108
25676W        W43200   1.777  15.052  12.501 -0.5013 -0.0692 -0.3670
25677W        W43201   8.138   5.423  12.862  0.2178  0.3118 -0.1319
25678W        W43202   2.149   7.109  16.366 -0.1671 -0.0852  0.4012
25679W        W43203   1.706  12.024   0.560  0.2114 -0.0764  0.2342
25680W        W43204  10.892   9.201  13.335  0.2036 -0.0345 -0.0606
25681W        W43205   9.692   5.306   5.549  0.0988 -0.3093 -0.0114
25682W        W43206   8.518  14.429   2.878  0.0248  0.1999 -0.1944
25683W        W43207  12.139  16.551  14.117 -0.0402  0.1109 -0.1790
25684W        W43208  12.232   1.678   5.239  0.3627 -0.2592  0.3251
25685W        W43209   0.044   2.926  15.047 -0.1745  0.2435 -0.2863
25686W        W43210  16.738  12.017  14.779 -0.0956  0.3360 -0.0646
25687W        W43211   7.818   7.428  12.925  0.0095 -0.1846  0.2344
25688W        W43212   7.836   4.452  12.904 -0.4949  0.0499 -0.0930
25689W        W43213   0.162   4.345   2.191  0.3727 -0.5116 -0.0096
25690W        W43214   1.823   5.162  16.919  0.2721 -0.2376  0.0824
25691W        W43215  17.069  14.722  13.405 -0.1877  0.0970  0.1864
25692W        W43216   9.956  12.002   4.358 -0.4080 -0.5128 -0.1770
25693W        W43217   5.943   9.743   2.002 -0.1502 -0.0999  0.3325
25694W        W43218  14.932  14.631   5.103  0.1306 -0.1666 -0.1407
25695W        W43219   4.164  10.280  17.097 -0.1760 -0.1335  0.1588
25696W        W43220   4.677  10.358   5.969 -0.4768 -0.1608 -0.0446
25697W        W43221  13.514  16.966  16.729  0.1510  0.2477  0.1672
25698W        W43222   5.113   7.066   0.728  0.3377  0.2839 -0.0998
25699W        W43223  14.675  12.048  14.306 -0.1422  0.1329  0.3767
25700W        W43224   6.129  16.828   1.479 -0.3376 -0.0033  0.4481
25701W        W43225   7.899   2.794   0.809  0.1968 -0.2669 -0.0231
25702W        W43226  12.432  11.830   1.677  0.3011 -0.3995 -0.1520
25703W        W43227  13.645   3.875   1.391  0.0224 -0.0063  0.0304
25704W        W43228  12.305   2.994  16.601 -0.0467  0.1393 -0.1578
25705W        W43229  16.390  13.870  17.139  0.1597 -0.0744 -0.2035
25706W        W43230  15.425  11.443   3.605 -0.1265  0.1085  0.1762
25707W        W43231   8.083  16.517  14.734 -0.5434 -0.1260 -0.0794
25708W        W43232   8.387   1.885   4.394 -0.2070 -0.0882 -0.1201
25709W        W43233   2.593   6.243  17.534  0.0883  0.0686  0.0285
25710W        W43234  16.057   5.536  14.524  0.1583 -0.1373 -0.2646
25711W        W43235   8.699  12.374   5.265 -0.0338  0.2531 -0.0587
25712W        W43236  14.448   7.159  11.762  0.4522 -0.3988  0.0681
25713W        W43237  10.705  12.440  12.963  0.1452 -0.3161  0.3159
25714W        W43238  13.577  14.941  12.263  0.1023 -0.2514 -0.2332
25715W        W43239  12.023  17.087  16.252  0.0441 -0.1009  0.0674
25716W        W43240   5.142   7.544   0.175 -0.1432 -0.0660  0.0977
25717W        W43241  13.234   9.873   0.800 -0.0946 -0.2293  0.0326
25718W        W43242   7.926   3.504   3.105  0.2356  0.3427  0.2823
25719W        W43243   6.992   3.650  13.040 -0.0178  0.0935 -0.1869
25720W        W43244  16.338   6.249  15.488  0.1230  0.0610 -0.0413
25721W        W43245   9.870   2.225  16.604  0.0170 -0.0789  0.0135
25722W        W43246  11.505   0.171  15.309 -0.0210 -0.1182  0.1809
25723W        W43247   1.117  11.699  16.812 -0.1913 -0.0207 -0.0842
25724W        W43248   1.114   5.052  16.212 -0.1621  0.2090 -0.1981
25725W        W43249   6.001  14.529  15.444  0.0980  0.1665  0.1270
25726W        W43250  11.022   0.189   2.500  0.2480  0.1198  0.0482
25727W        W43251  16.073   7.945  17.374 -0.1687 -0.0821 -0.1932
25728W        W43252  12.395   1.677  16.602  0.1664 -0.0452 -0.0661
25729W        W43253   5.738   1.366   1.653 -0.2030  0.1370 -0.2286
25730W        W43254   0.709  14.399   2.366 -0.0917  0.2510  0.0686
25731W        W43255  13.320  15.345  14.127  0.0029  0.1958  0.0223
25732W        W43256  12.760   5.273  17.642 -0.2089 -0.3921 -0.1054
25733W        W43257  13.690  12.509  12.571 -0.1455 -0.1444 -0.0314
25734W        W43258   1.067   2.998   3.534  0.0508 -0.3119  0.0868
25735W        W43259  12.655  13.925  11.294  0.2025 -0.0247 -0.2829
25736W        W43260  15.808   4.858  11.898 -0.1903 -0.2603  0.0445
25737W        W43261   5.483   8.350  13.913 -0.3600 -0.1587 -0.0304
25738W        W43262   3.548   2.336  17.250  0.1172  0.0594 -0.0619
25739W        W43263  14.481   0.312  16.186  0.1052  0.0917 -0.0088
25740W        W43264   9.210  13.560   3.655  0.3906  0.0739 -0.3165
25741W        W43265   9.245   0.518   4.577 -0.1832  0.1774  0.0933
25742W        W43266  13.951   7.907  12.021 -0.0630 -0.2686 -0.4612
25743W        W43267   3.234  15.424   5.535  0.2230 -0.2836 -0.2523
25744W        W43268   5.016  14.732  11.657  0.0325 -0.1097 -0.0061
25745W        W43269   2.860   7.946   0.722  0.0487  0.2514  0.2658
25746W        W43270   0.674   0.565   0.736  0.0602 -0.3084 -0.3057
25747W        W43271  10.911  12.883  13.050 -0.3079  0.0857 -0.3363
25748W        W43272  13.051   6.413   2.680 -0.2024 -0.1397  0.0079
25749W        W43273   7.501   6.271  17.247 -0.0342 -0.0895  0.3401
25750W        W43274  15.239  13.347   1.884 -0.1289 -0.0158 -0.0474
25751W        W43275   3.129   4.731   5.168 -0.2246  0.0031  0.2200
25752W        W43276   6.165   6.524  15.853  0.0793  0.0009  0.0986
25753W        W43277  15.142  16.883  12.311  0.1207 -0.0732 -0.0232
25754W        W43278   1.464   9.462   1.057  0.1118 -0.0768  0.1678
25755W        W43279  10.442   6.893  15.615  0.3234 -0.1501  0.0098
25756W        W43280   9.383  14.375  12.617  0.1796 -0.0280  0.1512
25757W        W43281  13.357  12.507   1.109 -0.1602 -0.1362 -0.0023
25758W        W43282   0.818   1.481   4.715  0.1605 -0.0615  0.1668
25759W        W43283   7.608   4.693   0.481  0.0517  0.0946 -0.1080
25760W        W43284   3.596  14.227  14.027  0.0911 -0.0151  0.0767
25761W        W43285   7.849   7.751   5.045  0.0469 -0.1196  0.3165
25762W        W43286   8.442   1.576   3.510  0.1045 -0.3827  0.0336
25763W        W43287   7.120   5.784  13.430 -0.1083  0.1187  0.1070
25764W        W43288   3.739  11.869   3.364 -0.0579 -0.3205  0.0130
25765W        W43289  14.563  17.016  12.331 -0.1365 -0.3165 -0.1648
25766W        W43290  12.444  11.784   4.822 -0.1821  0.1335 -0.0126
25767W        W43291   3.408  14.282   4.717  0.2383  0.1090  0.0094
25768W        W43292   1.161   1.974   0.732 -0.2735  0.1516  0.1214
25769W        W43293   6.379   4.329   1.057  0.1047  0.0882 -0.1528
25770W        W43294   9.888   8.281  16.345 -0.1538 -0.0658  0.0451
25771W        W43295  13.539   9.948  16.441  0.2134  0.1238 -0.4252
25772W        W43296  13.561  10.294  14.251  0.1133  0.1763 -0.0765
25773W        W43297   4.267   9.283   3.707 -0.3416  0.2411 -0.0667
25774W        W43298   7.294   6.931   0.853 -0.0909  0.1745  0.0246
25775W        W43299   7.259  13.322  15.103 -0.2651 -0.0740  0.1513
25776W        W43300   0.463   5.661   4.554  0.1234 -0.0111  0.0970
25777W        W43301   1.460  13.803  15.540 -0.0930 -0.0288 -0.0436
25778W        W43302  13.742   8.933  13.205  0.1010  0.0439  0.3151
25779W        W43303   4.318  16.339   3.531 -0.1824 -0.0562  0.2280
25780W        W43304   8.687   4.840  16.145  0.2559 -0.0925 -0.0973
25781W        W43305   1.362   5.515   2.331  0.0261  0.0901  0.0188
25782W        W43306  13.972  11.678  13.055  0.1692 -0.1197  0.0844
25783W        W43307   8.642   5.452   3.430  0.0288 -0.0392 -0.4410
25784W        W43308   5.818   6.996  15.097 -0.1620  0.1120 -0.1363
25785W        W43309   4.803   0.449   1.280 -0.0586 -0.1323 -0.0024
25786W        W43310  13.396  11.698  16.229  0.1591  0.1081  0.4599
25787W        W43311  10.528   7.338   2.709 -0.1198  0.1243 -0.2562
25788W        W43312   6.950  10.020  17.474 -0.3111  0.2285 -0.0298
25789W        W43313   2.708  11.331   3.724 -0.1513  0.2300  0.2563
25790W        W43314   2.190   8.853   0.073 -0.1434 -0.0793 -0.1417
25791W        W43315   2.591  16.651  13.264 -0.4997  0.0835  0.1765
25792W        W43316   6.907   1.255   2.247  0.1447 -0.0582 -0.1278
25793W        W43317   9.758   9.102  15.912  0.1620 -0.1067  0.1549
25794W        W43318  10.094   7.094   2.637  0.1864  0.1036 -0.0814
25795W        W43319   8.160  12.720   1.812  0.1293 -0.0670  0.1630
25796W        W43320   3.557   2.533   3.507  0.0422 -0.0022 -0.0272
25797W        W43321  12.512   6.592  13.453 -0.0667  0.2896  0.0486
25798W        W43322   2.506   4.195   0.290  0.0034 -0.0134  0.2681
25799W        W43323  14.140  11.142  17.389 -0.2218 -0.2494  0.2588
25800W        W43324   7.981   6.209  14.420 -0.1038  0.2241  0.0907
25801W        W43325  14.779  12.536   5.065 -0.0044 -0.2588 -0.2923
25802W        W43326   3.294   5.880   1.164  0.1664 -0.0491  0.2207
25803W        W43327  14.036   2.319   2.300 -0.2150  0.1709  0.0892
25804W        W43328   9.305  10.578   2.371  0.0446 -0.1350  0.0239
25805W        W43329   5.753  12.856  15.066  0.0616 -0.0910 -0.2474
25806W        W43330  13.979   9.078   4.821  0.2946 -0.0667 -0.1482
25807W        W43331  10.392   8.870  17.586  0.0646  0.3415 -0.2059
25808W        W43332   5.758  10.947   0.282 -0.0418 -0.1433  0.2229
25809W        W43333   7.927   7.412  16.216  0.1834  0.1025  0.0904
25810W        W43334   1.514   4.386  12.756  0.0010 -0.1931  0.1450
25811W        W43335   3.227   7.873  15.554 -0.1432 -0.0332 -0.1349
25812W        W43336   9.009  12.652   5.016  0.2476 -0.4045  0.2093
25813W        W43337   4.909  17.234  12.728  0.0608  0.1561  0.1683
25814W        W43338   3.604  11.346  16.601 -0.1917 -0.2419 -0.1643
25815W        W43339   5.757   7.102  16.491  0.2273  0.1216  0.1895
25816W        W43340   7.457   4.640   4.565  0.1516 -0.1723 -0.0920
25817W        W43341   5.243   5.832  17.547  0.2570  0.2013  0.0548
25818W        W43342   9.764  12.295   1.233  0.1097  0.0325 -0.0814
25819W        W43343  17.197   5.788  16.078  0.3177  0.1813  0.3880
25820W        W43344  13.209  13.518   4.740 -0.1711  0.1612 -0.2367
25821W        W43345  13.506   1.920   3.989 -0.1057  0.2927  0.1474
25822W        W43346   9.328  13.826   0.451 -0.1278  0.1122  0.1828
25823W        W43347   9.544   5.868  16.289 -0.1386 -0.0296  0.0608
25824W        W43348   1.623  16.098  16.245 -0.0902  0.2360  0.1439
25825W        W43349  12.427   4.495   5.347 -0.2752 -0.0284 -0.2603
25826W        W43350   0.083   0.233  17.200 -0.2907 -0.1004 -0.1914
25827W        W43351  13.211  16.760  14.002  0.0743 -0.0433 -0.0317
25828W        W43352   0.690  16.172   3.338 -0.1961  0.1728 -0.1053
25829W        W43353  13.491   1.426   5.017 -0.0385 -0.1993  0.1867
25830W        W43354  15.740   0.882   4.192  0.0392  0.0837  0.1168
25831W        W43355   5.137   6.882  13.659  0.0118 -0.1059  0.2162
25832W        W43356  15.154   3.127  13.831 -0.1811  0.0677 -0.0787
25833W        W43357  15.473   0.551   1.285 -0.4142  0.4195  0.0017
25834W        W43358  15.316  13.775   2.907 -0.0775 -0.0875 -0.1510
25835W        W43359  13.221   2.760   4.408 -0.2206 -0.2465  0.0969
25836W        W43360   5.252   5.664   1.688 -0.0984  0.0441  0.0783
25837W        W43361   1.300  10.635   6.240  0.0365 -0.0615  0.0484
25838W        W43362   7.456   5.792   2.855  0.1445 -0.0802 -0.2784
25839W        W43363  10.486  10.346  12.512 -0.0069  0.3471  0.2000
25840W        W43364  13.839   4.488   5.261 -0.3363 -0.0713 -0.2917
25841W        W43365  15.873   2.049   4.231 -0.1389 -0.1480  0.4050
25842W        W43366   4.738   9.917  12.279  0.0035  0.0579  0.0295
25843W        W43367   8.434  16.019   0.233 -0.1060 -0.0756  0.0905
25844W        W43368  14.539   9.263  11.313  0.3560  0.2796  0.2616
25845W        W43369  15.402  14.966   4.026  0.1738  0.0060  0.1650
25846W        W43370   4.010  11.619   4.281  0.3681  0.1657 -0.0510
25847W        W43371   0.099   1.270  13.489  0.2206 -0.1215  0.0665
25848W        W43372   5.223  16.183  14.164  0.1995 -0.0496 -0.0170
25849W        W43373   6.563  10.153  13.407  0.0010  0.2967  0.0484
25850W        W43374  11.231   9.958  12.703  0.0441  0.4004 -0.3002
25851W        W43375   7.589   8.985   4.291  0.2661 -0.1720 -0.0609
25852W        W43376   0.128   6.468  14.456  0.0454  0.1111 -0.0031
25853W        W43377  12.739  13.767  12.530 -0.0270 -0.1024  0.0160
25854W        W43378   3.953  15.004  12.967 -0.1169  0.1373 -0.1395
25855W        W43379   5.383  15.167  15.027 -0.0955 -0.1591  0.0371
25856W        W43380  13.998  15.091  17.531 -0.1037  0.0764 -0.0624
25857W        W43381   7.784   3.277  15.764 -0.0674 -0.1876 -0.1538
25858W        W43382   5.229   3.412   4.431  0.0096 -0.1037  0.0690
25859W        W43383   3.519   1.427  13.748 -0.2584 -0.1320  0.0129
25860W        W43384   9.051   9.794  13.126  0.1943 -0.0004  0.0657
25861W        W43385   5.638  10.321   4.291 -0.5367 -0.0263  0.0694
25862W        W43386   6.236  11.042   5.510  0.3671  0.2775  0.2976
25863W        W43387   6.041   8.359   2.418 -0.0303  0.1404 -0.1852
25864W        W43388  10.298   9.566  16.360  0.0820  0.0216 -0.0410
25865W        W43389  12.166   1.092   1.622  0.1314  0.0436 -0.0666
25866W        W43390   8.009   5.912   0.191  0.0360  0.0582  0.0776
25867W        W43391  10.666   4.105  12.436 -0.1973 -0.0404 -0.3561
25868W        W43392   9.740   4.818   2.811 -0.0849  0.2539  0.0774
25869W        W43393   0.115  16.542   0.685 -0.3082  0.0210 -0.0904
25870W        W43394   8.477  13.300  13.568  0.0737  0.1959 -0.0195
25871W        W43395   6.017   6.434  14.478 -0.0986  0.1766 -0.1312
25872W        W43396   7.275   6.937   1.504 -0.0121  0.4088  0.1772
25873W        W43397  12.131   5.317   3.878 -0.1246  0.1498  0.0561
25874W        W43398  10.566   0.602  15.724  0.0386 -0.0086 -0.0262
25875W        W43399   9.363   4.001   0.961 -0.0028 -0.1122  0.1219
25876W        W43400  10.215  16.039  13.674 -0.0891 -0.2485  0.0028
25877W        W43401   1.633  16.581   0.894 -0.0263  0.1963  0.1130
25878W        W43402   9.605  13.582  13.508 -0.2176 -0.1415 -0.0194
25879W        W43403   2.697   8.532  13.060 -0.0704 -0.1355  0.0136
25880W        W43404  11.965  16.062  14.193 -0.0355 -0.1165 -0.2344
25881W        W43405  15.698   2.489   2.454  0.2660  0.0381  0.1800
25882W        W43406   8.908  13.125  13.834  0.1717 -0.2277 -0.1455
25883W        W43407  12.062   4.952   5.186 -0.1946  0.1783 -0.1026
25884W        W43408   1.135   0.054   1.351 -0.0227 -0.0752 -0.0151
25885W        W43409   7.541   9.910  15.770  0.0145 -0.2086 -0.1967
25886W        W43410   4.676  11.583   4.789  0.1744  0.2089 -0.1104
25887W        W43411   8.762  10.066   3.533  0.2394  0.3284  0.0634
25888W        W43412  14.240   4.474   1.843  0.0242  0.1154  0.1379
25889W        W43413  11.514  14.836   2.240  0.0247  0.4137 -0.4735
25890W        W43414  15.104   7.804  15.891 -0.2455  0.5019  0.0226
25891W        W43415   0.996   7.854   4.898  0.1240 -0.0802 -0.1149
25892W        W43416  12.508   6.630   3.533 -0.0874  0.3854 -0.0480
25893W        W43417  16.328  13.444   2.746  0.0524  0.1035 -0.0504
25894W        W43418  13.652   8.695   0.704  0.0025  0.0611 -0.0578
25895W        W43419   0.007  14.010   2.392 -0.0857 -0.0447 -0.1288
25896W        W43420  10.408   2.206   5.561 -0.0815 -0.0720 -0.0613
25897W        W43421   1.648   9.887   2.980 -0.1723 -0.1621  0.0997
25898W        W43422   0.325  15.919  12.678 -0.0941  0.0337 -0.1381
25899W        W43423   5.063  13.169   1.683  0.1067 -0.1143  0.1465
25900W        W43424   7.745   6.921  13.785  0.0212 -0.0840  0.0951
25901W        W43425  15.763  16.350   5.437  0.1535 -0.0812  0.2569
25902W        W43426   6.573   4.205  15.840 -0.3584  0.0402  0.2418
25903W        W43427   4.921  12.590   2.159 -0.1134  0.2780  0.2923
25904W        W43428   6.192   9.919  14.197 -0.4237 -0.1658  0.1198
25905W        W43429   3.258   7.334   0.156  0.0495 -0.2638 -0.0495
25906W        W43430   5.878   5.098   2.960 -0.0872  0.1047  0.3330
25907W        W43431   6.557  14.710   2.664 -0.0001 -0.0909  0.0560
25908W        W43432   4.213   4.207   3.740  0.0347 -0.2089 -0.2786
25909W        W43433   8.871   8.119  16.720  0.1190  0.1797  0.0006
25910W        W43434  13.667  14.954   0.402  0.3978  0.1273 -0.2175
25911W        W43435   0.236   6.967  15.791  0.3715 -0.0902 -0.0383
25912W        W43436   6.705  10.677   1.041  0.0159 -0.0565 -0.0813
25913W        W43437   0.103   2.947   6.103 -0.1645  0.2005  0.0590
25914W        W43438   8.375   2.504   1.982 -0.1466  0.0973 -0.2153
25915W        W43439   9.045  11.057  12.356  0.0721  0.0341  0.2826
25916W        W43440  12.595   5.248   0.745  0.0287  0.1261  0.1080
25917W        W43441  16.505  14.073  13.607 -0.0587  0.1075  0.1473
25918W        W43442  12.567   8.688   2.843  0.1414  0.2031  0.0421
25919W        W43443   1.659   3.869  16.276 -0.1472 -0.3017 -0.2192
25920W        W43444   7.433  16.553   0.205 -0.0819  0.0065 -0.0230
25921W        W43445  17.006  14.572  15.698 -0.1752 -0.0854  0.0456
25922W        W43446   7.925  16.713   5.733 -0.1132 -0.1092  0.1903
25923W        W43447   1.480   3.565   1.877  0.1019  0.2277  0.0909
25924W        W43448   4.078  10.010  13.397  0.2428  0.0607 -0.0459
25925W        W43449   6.248   0.897   2.815  0.0243 -0.3503 -0.1503
25926W        W43450   0.730  11.379  16.588  0.0371  0.0580  0.2199
25927W        W43451  16.442   0.895  14.620  0.0388  0.1816 -0.1122
25928W        W43452  14.817   0.381   3.287  0.0917  0.0134  0.3025
25929W        W43453  13.528   3.255  12.223  0.2012 -0.0904 -0.3756
25930W        W43454   0.264  14.619  17.337 -0.0420 -0.0438 -0.1642
25931W        W43455   6.153   7.786  17.180  0.3267  0.1055  0.1610
25932W        W43456   8.216  12.848   3.693  0.0228 -0.0259  0.4232
25933W        W43457  10.160   3.351  12.525  0.0787 -0.0384 -0.0098
25934W        W43458   8.359  12.093   0.155 -0.2512 -0.2172 -0.2418
25935W        W43459   3.365   7.685  16.949  0.0978  0.0539 -0.1068
25936W        W43460  14.607   2.435   4.029  0.3175 -0.0581  0.0096
25937W        W43461  16.206   8.351   1.794 -0.0404 -0.0168  0.1933
25938W        W43462  12.848   9.106   3.596  0.0118  0.2604  0.1668
25939W        W43463  16.001   8.018  15.593  0.1636 -0.0338  0.0207
25940W        W43464   4.645   9.074  17.262  0.0503 -0.1278  0.2895
25941W        W43465   5.884  16.154  15.809 -0.0414  0.0299  0.1737
25942W        W43466   1.587   9.123  12.992 -0.3914 -0.1689  0.1752
25943W        W43467  11.565  12.065   5.185 -0.1680  0.0563 -0.0151
25944W        W43468  12.849   5.403   4.374  0.1070  0.3756  0.0828
25945W        W43469   5.861   0.126   5.434 -0.1895 -0.0874 -0.0410
25946W        W43470  16.411   6.038  17.235  0.0504  0.1862 -0.3165
25947W        W43471   9.002   7.836   3.748  0.0984 -0.0387  0.0471
25948W        W43472  12.684  12.281  13.559 -0.0955 -0.2996  0.1623
25949W        W43473   5.443   6.198   0.559  0.2847 -0.1171 -0.0404
25950W        W43474   9.283   5.884   5.997  0.1358 -0.0887 -0.1544
25951W        W43475   1.262   2.547   2.736 -0.0549  0.1138  0.0056
25952W        W43476  14.877  16.887  12.731 -0.3286 -0.1971 -0.0849
25953W        W43477   8.234  12.664  15.052 -0.0363  0.2711 -0.0516
25954W        W43478   9.093   7.398  14.383 -0.2580 -0.0560  0.1934
25955W        W43479   3.174   0.090   3.133  0.0830 -0.3511 -0.0900
25956W        W43480   1.980   9.311   1.065  0.3254 -0.1193 -0.0384
25957W        W43481   0.812  15.416  15.912  0.0958  0.4977 -0.0632
25958W        W43482  13.280  12.931   1.960  0.1623 -0.2170 -0.1416
25959W        W43483   3.541   0.570   0.722 -0.0137  0.1715 -0.1355
25960W        W43484  11.830  12.128   2.158 -0.2038 -0.1663 -0.3167
25961W        W43485   7.563  11.767   4.167  0.0180  0.0667  0.1330
25962W        W43486  14.763   4.666   4.726  0.0468 -0.1217 -0.2859
25963W        W43487  11.433   8.424  14.974  0.1040 -0.0291 -0.0870
25964W        W43488   6.613   2.916   0.393 -0.0597 -0.1724  0.0975
25965W        W43489  11.987   6.141  14.662 -0.0240 -0.0398  0.2908
25966W        W43490   2.673   4.884   0.328 -0.0502 -0.1624  0.2167
25967W        W43491   7.275   0.451   4.625  0.1782 -0.1895 -0.1222
25968W        W43492  15.269   6.922  12.312 -0.2448  0.0707 -0.0058
25969W        W43493  17.218   9.037   1.491  0.0849  0.0299 -0.1099
25970W        W43494  12.819  15.966   3.808 -0.0933 -0.1808  0.0469
25971W        W43495  10.162  12.365   2.769  0.3121 -0.1211  0.1477
25972W        W43496   9.548  11.223  12.399  0.0445  0.0619 -0.2709
25973W        W43497  11.688   1.818   1.314  0.1556 -0.2338 -0.0111
25974W        W43498   8.368   4.196  14.591  0.1136  0.0257 -0.3977
25975W        W43499  10.931  11.902  16.432  0.2194 -0.1689  0.0446
25976W        W43500  14.615   2.832  13.151 -0.0911 -0.2917  0.4569
25977W        W43501   8.641  13.936  15.882  0.1042 -0.0867  0.0250
25978W        W43502   7.497  10.314   1.074 -0.5394 -0.0062 -0.1135
25979W        W43503   6.416  10.755  15.541 -0.2913  0.2935 -0.0174
25980W        W43504   5.049  16.502  16.503  0.0436 -0.0245 -0.1202
25981W        W43505   9.406   3.189  13.183  0.3554 -0.2466  0.0389
25982W        W43506   6.506   1.160   1.285  0.2643  0.1124 -0.0300
25983W        W43507   1.713   8.196   2.702  0.0471  0.0533  0.0756
25984W        W43508   4.119   3.860  13.960 -0.2184  0.2379 -0.2229
25985W        W43509   3.504  15.171  13.121  0.0187  0.1632 -0.1027
25986W        W43510   4.511   8.601   2.232  0.0155  0.0443  0.0656
25987W        W43511  15.653   6.432   5.110  0.2659  0.1862  0.0790
25988W        W43512   0.364   7.775  15.867 -0.0180  0.0596 -0.1658
25989W        W43513   2.207  13.101  14.862  0.0066 -0.1585 -0.1909
25990W        W43514   6.408   7.605   2.033  0.1911 -0.1202 -0.0230
25991W        W43515  17.101  10.751   3.875 -0.0117  0.2747  0.2359
25992W        W43516   4.274  14.493   2.994 -0.2401 -0.1850 -0.0598
25993W        W43517   9.536  13.977   4.320 -0.0698 -0.0115 -0.3016
25994W        W43518  13.022  13.949  13.693 -0.0526  0.1767  0.2316
25995W        W43519   9.416   7.190  14.010  0.2864  0.0094 -0.2094
25996W        W43520  11.319   9.292  13.548 -0.0408  0.1214 -0.2691
25997W        W43521   3.443   5.731  13.049  0.2236 -0.0007  0.2319
25998W        W43522  11.322   0.361  12.537  0.0673  0.3102  0.2866
25999W        W43523   0.089   4.751  14.893 -0.0997 -0.0625 -0.2638
26000W        W43524   6.763   3.772  12.547  0.2820 -0.1830  0.0159
26001W        W43525  16.594   1.036  13.290  0.0758 -0.2861 -0.1072
26002W        W43526   1.640   6.413  14.360  0.1807  0.1253 -0.0380
26003W        W43527   8.470  13.221  16.944 -0.0189  0.2084 -0.0976
26004W        W43528  16.353   4.426  11.779 -0.2017  0.2472  0.1205
26005W        W43529  11.983   6.321   0.391  0.1211 -0.0091 -0.0651
26006W        W43530  10.274   3.333  15.134  0.1822  0.2366 -0.1477
26007W        W43531   2.903   1.528  13.035 -0.1536  0.1802  0.0129
26008W        W43532  11.066  15.704  16.122  0.0775  0.1717  0.0920
26009W        W43533  16.518   6.674   2.948 -0.0221 -0.1111 -0.0417
26010W        W43534  13.292   9.468   5.393 -0.0387 -0.3043  0.4306
26011W        W43535   2.933  15.883   6.080  0.0915  0.1004 -0.0908
26012W        W43536   1.920   8.466  15.727 -0.0822 -0.0233 -0.4162
26013W        W43537   0.014  10.327   1.211 -0.2818  0.0583 -0.0724
26014W        W43538  15.900   3.541  14.125 -0.0476  0.2046  0.2157
26015W        W43539   3.154   6.789  13.126 -0.0046  0.2101  0.0681
26016W        W43540   0.326   8.333   0.395 -0.1660  0.0084  0.1989
26017W        W43541  12.787  17.124  15.230 -0.0111 -0.0107  0.0969
26018W        W43542   3.546  15.100   0.348  0.2789 -0.1698  0.1409
26019W        W43543   0.512  15.460   5.498 -0.2335 -0.0638 -0.0763
26020W        W43544  16.012   2.270  15.554 -0.1268 -0.1596 -0.0842
26021W        W43545   1.983  10.175   1.296  0.0157 -0.1797  0.2534
26022W        W43546   9.366   2.188   2.159 -0.1909  0.0624  0.4139
26023W        W43547   8.990  14.886   4.149 -0.1620  0.0180  0.0353
26024W        W43548   3.511   0.179   1.955 -0.1040  0.2691  0.0524
26025W        W43549   3.644   1.974  13.999  0.1543 -0.4485  0.3290
26026W        W43550   6.187   5.768  13.140  0.0297 -0.0070 -0.0588
26027W        W43551   6.128   1.909  13.550  0.0825 -0.0745  0.0896
26028W        W43552   3.583   6.399  14.598  0.0190  0.0663  0.0171
26029W        W43553   4.052  14.668  12.620  0.0732 -0.1286 -0.0783
26030W        W43554   7.862  13.105  16.005  0.1031 -0.2583 -0.2613
26031W        W43555   9.834   5.924  15.369 -0.0860  0.2679  0.0663
26032W        W43556   9.753   4.496  16.935  0.1263 -0.0996  0.2167
26033W        W43557   2.253  15.215   0.935  0.0101 -0.0412  0.0441
26034W        W43558   6.304   1.927   3.927 -0.1675 -0.0199  0.2149
26035W        W43559  11.503   5.870  14.842 -0.1174 -0.0770 -0.0327
26036W        W43560  16.392  14.979   3.632  0.4130 -0.1176 -0.3110
26037W        W43561   6.959  13.858  16.004 -0.0589 -0.0850  0.0057
26038W        W43562  16.089   9.354   4.716  0.0444  0.5009 -0.1321
26039W        W43563   9.846  10.886  12.089 -0.1891 -0.0688  0.1515
26040W        W43564  10.158  10.032  16.573 -0.3146 -0.0296  0.2839
26041W        W43565  16.258   4.576   1.362 -0.2315  0.0553  0.3162
26042W        W43566   5.029   5.033  13.479 -0.2366  0.3155  0.0675
26043W        W43567   1.727   6.482  15.696 -0.1384 -0.3389  0.0101
26044W        W43568   0.119  13.372  11.903 -0.1540  0.2472  0.0373
26045W        W43569   9.378   3.174   2.537  0.2850  0.1400 -0.3283
26046W        W43570  10.335   3.229  15.918 -0.2937  0.2447  0.2395
26047W        W43571  15.797  11.914  13.524 -0.1882 -0.0715  0.0361
26048W        W43572  13.048  12.518  12.107  0.3556 -0.1763 -0.2070
26049W        W43573   1.031  12.695   4.434 -0.0279 -0.0661  0.0280
26050W        W43574   0.101   4.676   5.916  0.1160 -0.2485 -0.3042
26051W        W43575   0.363  14.161   2.688 -0.2053  0.0217 -0.0920
26052W        W43576   6.737   7.958  12.789  0.0934 -0.0567 -0.0888
26053W        W43577  13.048  16.724   1.275  0.0624  0.2833 -0.1362
26054W        W43578  16.288   0.254   0.863  0.2600  0.1193 -0.3183
26055W        W43579  14.836  14.478   0.097  0.1491  0.0058 -0.1480
26056W        W43580   4.620   7.531  12.733 -0.0355  0.1850  0.0894
26057W        W43581  10.562  15.645  14.636 -0.0797 -0.0342  0.3070
26058W        W43582  10.275  14.420   4.473  0.1084  0.2266 -0.0522
26059W        W43583  13.177  17.219   0.450 -0.0951 -0.0537  0.2143
26060W        W43584  14.777  16.877   3.691  0.0558  0.0806 -0.3476
26061W        W43585   0.863   5.204   6.164 -0.0292 -0.5056 -0.0296
26062W        W43586   6.192   7.048   5.360 -0.1495 -0.3646 -0.0075
26063W        W43587   7.626   1.749  16.243 -0.0714  0.2239  0.2469
26064W        W43588  14.219  11.762   0.435 -0.2244  0.1280 -0.0003
26065W        W43589  11.504   2.734  16.018  0.2288  0.0425  0.1953
26066W        W43590  15.592  16.881   4.844 -0.0774 -0.2241  0.3439
26067W        W43591  14.943  17.011   1.552  0.1888  0.1574 -0.0800
26068W        W43592   5.197   6.160   1.959  0.0494 -0.0873 -0.1194
26069W        W43593   7.590  11.081   4.858 -0.1202  0.1105 -0.1664
26070W        W43594  15.955   9.482  14.156  0.1532  0.0175  0.1098
26071W        W43595   6.184   3.513  14.207  0.0280  0.0059 -0.2340
26072W        W43596  16.218  10.747   3.360  0.1736  0.0171 -0.1730
26073W        W43597  15.787  11.157   1.118 -0.0312  0.4046  0.1682
26074W        W43598   3.990   8.315  16.067 -0.2625 -0.0972  0.2673
26075W        W43599  11.921   7.971  15.907  0.0377 -0.2065 -0.1370
26076W        W43600   1.554  13.508   1.896 -0.0657 -0.1509  0.0103
26077W        W43601   7.704   5.908   5.476 -0.0093 -0.2755  0.0790
26078W        W43602  15.438   9.086  15.524 -0.2355  0.1260  0.0624
26079W        W43603  17.186   6.255   1.310  0.1328  0.0050  0.1993
26080W        W43604  11.056  14.084  17.209 -0.2347 -0.3510  0.0471
26081W        W43605  13.250  15.833  12.523 -0.3937 -0.0006 -0.0671
26082W        W43606   2.667  11.011   2.855 -0.2142 -0.3642 -0.0034
26083W        W43607  14.597   7.187   4.214  0.1615 -0.2890  0.0660
26084W        W43608   0.058  15.098  17.356  0.0501 -0.1334 -0.0704
26085W        W43609   6.221  17.026  12.784 -0.0300  0.0818 -0.0560
26086W        W43610   5.529   8.173   0.810 -0.1142 -0.0394  0.0881
26087W        W43611   7.079  12.443  16.044  0.2567 -0.0816 -0.1460
26088W        W43612  16.133  12.980  12.364 -0.1763  0.0477 -0.1757
26089W        W43613  16.194   3.371  17.634  0.1172 -0.0536  0.2055
26090W        W43614   8.702   8.415   5.561 -0.0593  0.2955 -0.1566
26091W        W43615  10.000   3.586  12.962  0.0734 -0.1610 -0.0805
26092W        W43616  13.701   1.235  15.832 -0.0774 -0.2300  0.1057
26093W        W43617  11.761  10.899   3.924  0.1262 -0.1332 -0.0821
26094W        W43618   1.666  11.932   2.593 -0.0381 -0.3118 -0.0188
26095W        W43619   7.066  11.300  13.509  0.1212  0.0553 -0.0135
26096W        W43620   6.047   6.047  14.854  0.0379 -0.0683 -0.0867
26097W        W43621   4.066  14.239   5.334 -0.3011  0.3737  0.2011
26098W        W43622   6.674  12.624   3.195  0.0971 -0.3425 -0.0047
26099W        W43623   7.870  10.559   1.433  0.0916 -0.0067  0.2014
26100W        W43624  13.219   0.243   2.343 -0.1432 -0.0216  0.0536
26101W        W43625   8.192   4.212   4.038  0.3089 -0.0756  0.0874
26102W        W43626  15.522   0.287  13.932  0.0831 -0.2140 -0.0087
26103W        W43627  15.019   3.509   4.524  0.3220 -0.3103 -0.0684
26104W        W43628  10.968  15.544   0.281  0.1097  0.2828 -0.3477
26105W        W43629   1.996   2.343   1.105  0.1830  0.0566  0.0000
26106W        W43630   5.977   7.006  13.595  0.0659 -0.3948  0.1525
26107W        W43631   0.021  10.662   1.966  0.0324  0.4491 -0.1022
26108W        W43632   6.233   8.486  14.428 -0.3771  0.2357  0.3377
26109W        W43633  17.084   2.715  16.941 -0.0195 -0.0323 -0.0672
26110W        W43634  10.722   4.573  12.979 -0.0813  0.2131 -0.1357
26111W        W43635   1.584   7.794  15.320  0.1661 -0.4758  0.3740
26112W        W43636   0.625  13.034  17.251  0.1691 -0.3495  0.0610
26113W        W43637  10.671   4.030   2.532  0.2506  0.2577  0.1606
26114W        W43638   5.173  15.959   4.483  0.0354  0.0354  0.0774
26115W        W43639   5.827   8.836  15.644  0.0147  0.1037  0.0203
26116W        W43640   1.322  13.004  12.369 -0.1630  0.0912  0.0403
26117W        W43641   6.277  16.460  16.966 -0.0227 -0.2504  0.0867
26118W        W43642  11.394  15.945  17.390  0.0548 -0.0610 -0.0904
26119W        W43643   6.730  12.611   2.258  0.0552  0.0105  0.0700
26120W        W43644   6.843  13.991  14.180 -0.0387 -0.0783  0.2147
26121W        W43645  14.058  12.448   3.838  0.2295 -0.0557  0.1494
26122W        W43646  11.786   3.111   2.758  0.0670  0.0255 -0.2247
26123W        W43647   6.810   9.606   2.232 -0.1275  0.2898  0.2917
26124W        W43648  15.070  11.119   3.747  0.1475 -0.2733 -0.1494
26125W        W43649   3.135   3.716   4.273 -0.1135 -0.3094  0.0241
26126W        W43650   7.931   3.920  17.620 -0.0564  0.0389  0.1849
26127W        W43651   7.451  12.410   0.207 -0.0368  0.1738  0.0809
26128W        W43652  14.431   5.052   2.947 -0.0414 -0.1043  0.0180
26129W        W43653   9.521   2.701  15.404  0.0499 -0.2588 -0.0903
26130W        W43654  14.445  16.689  12.806  0.2059  0.0834 -0.1202
26131W        W43655   7.580  14.741  15.328 -0.0933 -0.1642  0.2840
26132W        W43656   7.129   8.793   4.212  0.1273  0.0937  0.1201
26133W        W43657   0.210  12.537  16.187 -0.3402 -0.0117 -0.3800
26134W        W43658  15.109  12.992   3.137  0.1989 -0.0974  0.0343
26135W        W43659   4.666   5.352  13.531 -0.0893 -0.1674 -0.0176
26136W        W43660   0.809   9.418   4.524 -0.1551  0.0422 -0.0306
26137W        W43661  10.722  11.095   1.839  0.2572  0.0868  0.2186
26138W        W43662   8.700   9.312  13.813  0.0982 -0.0061 -0.1421
26139W        W43663   5.782  12.670   5.094  0.1196  0.1610 -0.0631
26140W        W43664   6.013  13.008  14.687 -0.1849 -0.2324  0.1246
26141W        W43665   6.710  16.941   0.631  0.2274 -0.2030  0.0234
26142W        W43666  15.508  15.885   2.404 -0.2310  0.1371 -0.0008
26143W        W43667   4.317  10.216  12.588  0.2045 -0.1407  0.0088
26144W        W43668  12.622  16.928   5.088  0.0135 -0.2075  0.1528
26145W        W43669  10.938   7.887   1.406  0.1497  0.3628 -0.1125
26146W        W43670   8.309  14.895  13.946 -0.1330 -0.0886 -0.1794
26147W        W43671   2.815   4.863  12.627 -0.1542  0.0106  0.1501
26148W        W43672   9.350  10.134  13.330  0.3364 -0.2870  0.0488
26149W        W43673   0.921   3.963  16.688 -0.1722 -0.0577 -0.0414
26150W        W43674   9.407  11.574   0.958  0.0875 -0.1988 -0.0590
26151W        W43675   2.584  16.708  15.921  0.4080 -0.0264 -0.1342
26152W        W43676  14.983   2.334  13.757 -0.2159  0.1149 -0.1202
26153W        W43677   8.095   2.251  12.884 -0.1911  0.0273  0.0566
26154W        W43678  13.986  16.505  15.255 -0.0659 -0.1425  0.0326
26155W        W43679   6.291  11.816   0.290  0.2556 -0.0005 -0.1284
26156W        W43680   1.920   8.489  16.496  0.1029 -0.0052 -0.0407
26157W        W43681  12.056  13.292  15.716  0.4608  0.1298 -0.0766
26158W        W43682   8.325   8.609  14.326  0.2284  0.0177  0.0100
26159W        W43683   0.459   9.118  15.857  0.2300 -0.1143  0.1117
26160W        W43684   9.693   3.534  13.844  0.0173 -0.2208 -0.1660
26161W        W43685  14.881  16.647  13.731  0.1042  0.2733  0.1049
26162W        W43686  15.374  11.712  13.694  0.1155 -0.1754  0.1528
26163W        W43687   7.921  15.392   5.136  0.1180 -0.2565  0.0623
26164W        W43688   9.792  17.020  13.474 -0.1784  0.1814 -0.2379
26165W        W43689  13.995  10.035  16.618 -0.2504 -0.0960 -0.1461
26166W        W43690   5.636  11.696  16.720  0.1091 -0.2402 -0.1377
26167W        W43691  12.186  15.388  16.626  0.1036 -0.1117 -0.0489
26168W        W43692  15.447  10.466   0.223  0.1917  0.1075 -0.3805
26169W        W43693   3.988   4.482  15.354  0.0271  0.3092 -0.1490
26170W        W43694  12.421  16.879  15.007  0.0505  0.2877 -0.1340
26171W        W43695  14.408   7.352  12.596  0.0813  0.2915  0.0076
26172W        W43696   6.696   5.594   4.050  0.0713  0.1834 -0.0167
26173W        W43697   6.203   7.928  13.683 -0.0374 -0.0080 -0.1313
26174W        W43698   3.081  10.087  16.230  0.0432  0.2289 -0.1285
26175W        W43699   4.202  12.062  13.052  0.3096 -0.1799 -0.2046
26176W        W43700   1.840  14.423  13.468 -0.1830 -0.0253 -0.0652
26177W        W43701   7.096  11.122  15.558 -0.0537 -0.0909 -0.3241
26178W        W43702   4.290  13.966   1.046 -0.0329  0.0086 -0.1205
26179W        W43703   4.867   7.960  15.136  0.2123 -0.0273 -0.0257
26180W        W43704  12.326   7.713  14.200 -0.1141  0.2519  0.5575
26181W        W43705   5.732   2.372  14.695  0.1223 -0.1130  0.0923
26182W        W43706   6.405   5.330   2.223 -0.1387  0.2197 -0.0355
26183W        W43707  16.038  16.181   0.969  0.0513 -0.1437  0.0165
26184W        W43708   6.365   1.191  15.140 -0.2041 -0.0278 -0.0833
26185W        W43709  16.870   2.666   4.590 -0.3493 -0.0184  0.1576
26186W        W43710   8.563  14.329  15.518  0.1706  0.0301 -0.1786
26187W        W43711  10.138   8.674   5.106 -0.0223  0.0258 -0.0483
26188W        W43712  14.819   0.678  13.355  0.1496  0.0281 -0.0100
26189W        W43713  11.584   0.479   3.960 -0.1901 -0.4646 -0.0658
26190W        W43714  12.574   4.391   0.436  0.3656 -0.1185 -0.0010
26191W        W43715   0.607   0.965  15.796  0.2328  0.1374  0.0876
26192W        W43716  13.733  12.885   2.464  0.1471  0.1693 -0.2009
26193W        W43717   9.863  11.086  13.219  0.0181 -0.0819 -0.0693
26194W        W43718   2.465  12.640  14.754 -0.0942 -0.2232  0.1387
26195W        W43719   5.455  16.088  12.406  0.1839  0.0548 -0.2285
26196W        W43720   6.856   5.403   5.720 -0.1304 -0.1358  0.0933
26197W        W43721  17.017   9.833  16.700 -0.0156 -0.1950  0.1373
26198W        W43722   7.888   9.082   5.673 -0.1106  0.2309 -0.3131
26199W        W43723  12.464  13.445   1.726  0.2860 -0.1226 -0.2395
26200W        W43724   6.361   7.468  13.527 -0.1949 -0.0659  0.2523
26201W        W43725  14.096   7.170   4.388  0.0882 -0.1302  0.2454
26202W        W43726  13.191   5.600  13.177  0.0550 -0.0671 -0.1885
26203W        W43727  13.359   8.053   2.604  0.1265 -0.2410 -0.1731
26204W        W43728   9.569  14.448   4.521 -0.0844 -0.0589 -0.1813
26205W        W43729  13.868  14.139  15.438 -0.1170  0.2006 -0.0993
26206W        W43730  13.166   2.776   0.027  0.0693 -0.1021 -0.0580
26207W        W43731   6.455   1.550  12.253  0.0136 -0.2038 -0.1844
26208W        W43732  15.916   3.714  15.125 -0.2416  0.3041  0.2357
26209W        W43733  13.754  16.980   1.258  0.0210  0.0205 -0.2258
26210W        W43734   6.048  13.325  15.169 -0.1197  0.0949  0.0285
26211W        W43735  16.410  11.913   3.484  0.2883  0.0762 -0.0006
26212W        W43736   4.866  14.844  13.791 -0.1459  0.0012 -0.2493
26213W        W43737  12.200   3.464   3.645  0.1181  0.3207  0.3096
26214W        W43738   7.986  12.320  17.577  0.2008  0.2402  0.2550
26215W        W43739  10.402   2.426   3.027  0.3831  0.2003 -0.0119
26216W        W43740  10.113   5.235   5.288 -0.1214  0.1270 -0.2201
26217W        W43741   4.145  13.710   1.947  0.3343 -0.0178  0.0352
26218W        W43742   5.290   4.357   0.071  0.1948  0.0042  0.2066
26219W        W43743   4.362   6.566  12.910  0.0027  0.1178 -0.2242
26220W        W43744   5.534   5.369   2.488 -0.0086 -0.0100  0.1726
26221W        W43745   9.632  15.467   4.233 -0.0126 -0.3208 -0.0287
26222W        W43746   8.800   8.853  13.509 -0.0243 -0.0415 -0.1709
26223W        W43747   9.246   9.253   1.749 -0.5027 -0.0884 -0.0706
26224W        W43748   1.073   3.341   1.629 -0.0305 -0.2488 -0.2202
26225W        W43749   2.230  14.741   0.795 -0.0186  0.1739 -0.1450
26226W        W43750   3.338  14.961   0.884  0.2940  0.2986 -0.2846
26227W        W43751  14.267   4.604  14.748 -0.0481 -0.0671  0.0679
26228W        W43752   6.496   9.071   4.654 -0.1720  0.2339  0.0395
26229W        W43753  13.777   6.650   3.278  0.1656  0.2191 -0.1800
26230W        W43754  11.857  11.226  13.046  0.0485  0.0833  0.1971
26231W        W43755   1.316  15.593   4.397  0.1204 -0.1663 -0.0457
26232W        W43756  14.725   0.113   3.758 -0.5182  0.0761 -0.0753
26233W        W43757   6.802  16.467  17.106  0.0399 -0.1126  0.0144
26234W        W43758   4.653   4.244   5.815 -0.1766 -0.1051 -0.0470
26235W        W43759  16.999   3.082   5.712 -0.1588  0.0596 -0.1334
26236W        W43760   6.976   5.207  15.395 -0.1925 -0.2304  0.1729
26237W        W43761  14.722  11.950   4.847  0.1185 -0.2521  0.0736
26238W        W43762   2.660  11.219   4.194  0.1069 -0.1121 -0.1470
26239W        W43763   3.095   2.095   3.596  0.0186  0.1143  0.0163
26240W        W43764  16.368   7.164   2.693  0.1912  0.2556 -0.2406
26241W        W43765  12.117  13.348  14.541  0.1121 -0.1270  0.4242
26242W        W43766   6.755   5.126   5.281 -0.0149 -0.0569  0.0261
26243W        W43767  15.200  15.984   1.069  0.4013 -0.2358  0.1392
26244W        W43768  11.794   7.483   1.550 -0.3630  0.1629  0.1634
26245W        W43769  16.929  13.073  16.540  0.1134  0.0103 -0.0255
26246W        W43770  12.547   2.310   1.018  0.0944 -0.1232  0.0136
26247W        W43771   7.956   1.069  16.551  0.0720  0.2010  0.2491
26248W        W43772   0.486   5.031  15.797  0.2563 -0.2516 -0.0298
26249W        W43773  10.012   9.621   1.606 -0.2190 -0.0130 -0.2598
26250W        W43774   6.455   8.177  17.152 -0.1340 -0.2296  0.0280
26251W        W43775  14.094   1.786  12.177 -0.0286 -0.2178  0.3403
26252W        W43776  10.338   5.964  15.560  0.2081  0.3847 -0.1812
26253W        W43777   7.625  14.786  13.151 -0.3185 -0.0736 -0.1999
26254W        W43778  13.480   8.513   2.360  0.1599  0.1277  0.1229
26255W        W43779   3.080   1.785   5.605 -0.0701  0.3472  0.0072
26256W        W43780   6.899  11.883  14.945 -0.2011 -0.1940 -0.0596
26257W        W43781   1.755  12.421  11.860 -0.0738  0.0538 -0.0644
26258W        W43782   0.024   4.287  12.553  0.1292  0.1154  0.1945
26259W        W43783  13.666   3.186  17.472 -0.0484 -0.1676 -0.0798
26260W        W43784   4.315  17.062  13.872  0.0898  0.1253  0.0283
26261W        W43785  11.014  11.497   0.843 -0.0242  0.1157  0.0101
26262W        W43786   3.127  10.063  15.319 -0.1211  0.2035 -0.0628
26263W        W43787   4.414   4.164   4.890 -0.1395 -0.4586 -0.0222
26264W        W43788  11.939  11.274   3.618 -0.0605  0.0432  0.0493
26265W        W43789  14.605  13.851   1.980 -0.1742  0.0261  0.1086
26266W        W43790  13.560   5.696   2.410  0.0325  0.3213  0.0272
26267W        W43791  14.313  17.173   2.520 -0.2915  0.0051  0.1319
26268W        W43792   0.059  13.059   4.264 -0.0936 -0.0985  0.1624
26269W        W43793   9.144   0.008  14.346 -0.1171 -0.1156  0.3037
26270W        W43794   6.413  13.815  14.962 -0.1040 -0.3076 -0.2807
26271W        W43795  14.468  12.878   2.529 -0.0203  0.4385 -0.1387
26272W        W43796   3.126   9.088   1.753 -0.0006 -0.0209  0.0350
26273W        W43797   4.718  15.314  14.805 -0.2549 -0.0939  0.1613
26274W        W43798  16.538  17.065  15.461  0.2441 -0.0283  0.4170
26275W        W43799   7.550   1.607   4.371 -0.1327 -0.1056  0.0953
26276W        W43800   9.840  15.762  13.498  0.2075 -0.1085  0.2606
26277W        W43801   2.655  16.789   4.938 -0.1582  0.1499  0.1581
26278W        W43802  11.056   2.530   0.187  0.2184  0.0807 -0.1124
26279W        W43803   4.786  13.675   1.479  0.0629 -0.0276  0.1915
26280W        W43804  11.533   4.702  13.665 -0.0374  0.0833 -0.2174
26281W        W43805   9.809   5.186   0.778 -0.0293 -0.0575  0.0216
26282W        W43806   4.312   3.227   4.409 -0.1879 -0.0435 -0.0517
26283W        W43807  10.175   9.825   0.146  0.0570  0.0006  0.0795
26284W        W43808  10.560  10.783  16.678  0.2133  0.2184  0.0236
26285W        W43809  15.135   6.401  16.023 -0.2344  0.0367 -0.4179
26286W        W43810   2.601  12.590  12.441 -0.1063  0.2346 -0.0393
26287W        W43811   7.501  16.129   1.342  0.3573  0.1140  0.0124
26288W        W43812  15.966   4.934  14.501  0.0505 -0.2327 -0.1282
26289W        W43813  11.212  15.880   2.772  0.1412  0.0895  0.1059
26290W        W43814  13.040   5.898  13.938  0.0103 -0.1417  0.1619
26291W        W43815   9.954   3.339   4.266 -0.0622  0.0265  0.2170
26292W        W43816  15.809  16.354   4.891 -0.0875 -0.0138  0.1173
26293W        W43817   8.068  15.797   4.820  0.2346  0.0755  0.3342
26294W        W43818  13.949   9.296   2.326  0.0591  0.5385  0.3789
26295W        W43819  13.992   5.350   0.201  0.1735 -0.1148  0.1159
26296W        W43820  11.256   9.888  17.306  0.2504 -0.0013 -0.0580
26297W        W43821  15.937  16.566  15.247  0.1498 -0.0685  0.2310
26298W        W43822  11.866  14.083   4.244  0.1471  0.2882  0.1277
26299W        W43823   1.243   7.705  10.685  0.1085  0.1476  0.0432
26300W        W43824   5.892   8.912  14.674  0.1565  0.0744 -0.0310
26301W        W43825   7.875  10.494  16.518 -0.1493 -0.0493  0.0510
26302W        W43826  12.824   5.918   4.736  0.0540 -0.1241  0.0448
26303W        W43827  16.598   6.649  16.076 -0.2316 -0.2627  0.0944
26304W        W43828   8.122   6.169   0.929 -0.0306 -0.1793 -0.1740
26305W        W43829  11.541  10.468   4.127  0.0057 -0.0409 -0.0584
26306W        W43830   9.778  11.973   3.433 -0.1181 -0.0548  0.0500
26307W        W43831  17.010   1.336   2.434 -0.1030 -0.1172 -0.2901
26308W        W43832   7.036  12.655  13.847  0.0467  0.1110 -0.0002
26309W        W43833  15.429   0.482  16.344  0.0861 -0.2656  0.1353
26310W        W43834  14.726   0.623  16.639  0.1573  0.3980 -0.1705
26311W        W43835   4.241   5.762  16.471  0.1596  0.0109  0.2379
26312W        W43836   8.061   8.846  13.193 -0.0733 -0.1216  0.3716
26313W        W43837   5.408   8.821  13.236  0.0036 -0.0027 -0.0784
26314W        W43838   7.337  10.377   2.171 -0.4849 -0.1696 -0.2660
26315W        W43839   3.625   1.442   0.599 -0.1182  0.0571 -0.0453
26316W        W43840  14.216   9.592  15.678 -0.2960 -0.1006 -0.1888
26317W        W43841   4.158   5.651  15.540 -0.1957  0.0923 -0.0411
26318W        W43842  16.650   4.894   1.680 -0.2073 -0.2748 -0.0743
26319W        W43843  12.433   3.883   0.665 -0.5632 -0.0703 -0.1874
26320W        W43844   3.645  12.247   0.069  0.0688 -0.0739 -0.1435
26321W        W43845   0.510  12.762  15.329 -0.2807  0.1208  0.3142
26322W        W43846   2.868   4.713   2.782  0.2744 -0.0728  0.0045
26323W        W43847  14.014   6.478   3.741 -0.0554 -0.1453  0.0488
26324W        W43848   3.888   8.557   5.353  0.1238  0.1787  0.3328
26325W        W43849   2.581   5.508  14.213 -0.2297  0.0571  0.0124
26326W        W43850  11.620   5.462   1.203  0.3984  0.1186  0.0311
26327W        W43851  15.774  11.437   0.628 -0.1492 -0.0231 -0.1321
26328W        W43852  17.221   3.280   4.932 -0.2299  0.2279 -0.2981
26329W        W43853   0.148   2.111  13.181 -0.0130  0.1491  0.0827
26330W        W43854  13.486   3.452  14.791 -0.2436  0.3086 -0.2407
26331W        W43855  15.114  15.948   3.694  0.0598  0.0311  0.1162
26332W        W43856   3.944   1.501   5.433  0.2002  0.0103  0.2274
26333W        W43857   1.336  11.634  12.541  0.2027 -0.0847  0.1271
26334W        W43858   0.527  15.107   1.120  0.0028  0.0256  0.2911
26335W        W43859  11.220   9.510  15.066  0.2861 -0.0653 -0.0860
26336W        W43860  15.397  12.586   1.317  0.2651  0.0902  0.0027
26337W        W43861   7.439  16.633   3.917  0.0892  0.0747 -0.1711
26338W        W43862   0.157   7.982   2.343  0.0949 -0.3829  0.0156
26339W        W43863   7.848  11.772  13.944  0.1038 -0.3310  0.2429
26340W        W43864   9.046  12.984   1.044  0.0875 -0.1646  0.1122
26341W        W43865  12.426  13.914   3.710  0.1542  0.0530  0.1112
26342W        W43866  12.000   7.284  17.444  0.1754 -0.2809  0.1073
26343W        W43867   5.894  11.992  15.173  0.2819 -0.2152 -0.1888
26344W        W43868   8.051   1.418  16.162  0.0306  0.1235 -0.0212
26345W        W43869   6.129  12.010   5.644  0.0196  0.0755  0.2704
26346W        W43870  13.154   7.241   5.708  0.2833 -0.3367  0.0630
26347W        W43871   4.164   7.376  12.525  0.2846 -0.0794 -0.2334
26348W        W43872   7.739  13.777   1.051  0.1997 -0.0215  0.0111
26349W        W43873   0.540  16.360   5.498 -0.2559 -0.0360 -0.0947
26350W        W43874   3.065  16.004  12.854 -0.3727  0.0343  0.2593
26351W        W43875  11.314   1.238   5.061  0.1245 -0.4834  0.0219
26352W        W43876   1.612  16.456   2.340 -0.1952 -0.0881 -0.0606
26353W        W43877  16.489  13.443   0.226  0.0913 -0.1391 -0.0865
26354W        W43878  12.642  10.698  12.864  0.1449  0.0336  0.1850
26355W        W43879   0.859  13.584  16.082  0.1578 -0.0369  0.0038
26356W        W43880   1.679   6.319   2.786 -0.1231  0.2737  0.2472
26357W        W43881   0.958  13.926  16.545 -0.1938  0.1369 -0.1645
26358W        W43882   4.052   6.444  13.386  0.0494  0.0026  0.1646
26359W        W43883   1.893   2.040  14.338 -0.1118 -0.2435  0.1001
26360W        W43884   1.496   1.040   2.768  0.3122 -0.1603  0.0489
26361W        W43885   3.979  16.836   4.225  0.2230  0.0577 -0.0163
26362W        W43886   0.229   9.621  12.979 -0.0592 -0.1266  0.0188
26363W        W43887   8.910   6.955  14.221 -0.2315  0.0584  0.0579
26364W        W43888  16.761  10.675  16.635 -0.0631 -0.2427 -0.1736
26365W        W43889   9.158   4.975  13.752 -0.2955  0.0938  0.1967
26366W        W43890   8.849  13.044   1.509  0.2410  0.2284  0.0602
26367W        W43891   0.033  11.007  15.099  0.1585  0.1072  0.0574
26368W        W43892   0.347   1.721   4.405 -0.0562 -0.0292  0.0045
26369W        W43893  16.316  13.469   3.784  0.0273 -0.3488 -0.0755
26370W        W43894  13.148   7.844  15.325  0.1032 -0.3260  0.0002
26371W        W43895   2.672   5.773   2.211 -0.0946 -0.4266  0.2216
26372W        W43896   1.369   0.120   2.645 -0.0645 -0.1187 -0.0873
26373W        W43897   9.678  14.577  15.490  0.1177  0.3128  0.2023
26374W        W43898  14.616   9.286   2.676  0.1630 -0.1130 -0.3084
26375W        W43899   1.980  10.849  16.126 -0.2462 -0.0067 -0.1490
26376W        W43900  14.750  16.565  12.341  0.2967 -0.0302 -0.2561
26377W        W43901   3.187   7.380   5.351 -0.1444 -0.0344  0.0784
26378W        W43902   9.431   0.483  17.157  0.0643  0.1098  0.0024
26379W        W43903   6.511  10.774   4.710 -0.2954  0.1083  0.3806
26380W        W43904   2.430   0.515   2.945 -0.0587  0.2162  0.2450
26381W        W43905  12.938   3.071   3.162 -0.3089  0.0945 -0.0724
26382W        W43906   9.226  17.063   0.658  0.3238 -0.2009  0.1544
26383W        W43907   6.926   6.975  13.453 -0.0689 -0.0368 -0.2484
26384W        W43908   0.543   7.324   3.411  0.1860 -0.1313 -0.0352
26385W        W43909   8.952   4.598  14.061  0.1898 -0.1627 -0.0933
26386W        W43910   6.650  16.081   0.633  0.1368  0.1135 -0.0094
26387W        W43911  14.011  13.074   0.735  0.1521 -0.0344 -0.0913
26388W        W43912  14.401   2.449   1.464  0.1324 -0.0241  0.1684
26389W        W43913  14.415  12.869   3.903 -0.0297  0.3780  0.1014
26390W        W43914   4.795   0.893   5.136 -0.0740  0.1437 -0.0143
26391W        W43915   2.990   4.809  14.934  0.0756  0.0872 -0.1736
26392W        W43916   1.423   3.399  11.591  0.0717  0.1047  0.1095
26393W        W43917  11.104   7.972   4.362 -0.0637  0.2174  0.0710
26394W        W43918  12.059  16.363   4.384 -0.0808 -0.2225 -0.0187
26395W        W43919  13.448   9.204  12.864  0.0750  0.2204 -0.0921
26396W        W43920  14.904  11.760  16.876 -0.0789  0.1115 -0.1199
26397W        W43921   8.333   4.653   5.548 -0.2104  0.3634  0.1400
26398W        W43922  16.184  12.499   0.389  0.0455 -0.0404  0.1031
26399W        W43923   7.261   2.970  13.534  0.3931  0.1375  0.0355
26400W        W43924  12.345   8.689  12.486 -0.1975 -0.0109  0.0128
26401W        W43925   2.964   2.468   3.211  0.3462  0.1675  0.0585
26402W        W43926  11.846   4.162  12.030  0.1589  0.0468 -0.3125
26403W        W43927  12.884  17.092  14.707  0.2070  0.0941 -0.0739
26404W        W43928   5.866   0.220   2.227 -0.1435  0.1537  0.0225
26405W        W43929   2.064  16.666   1.077  0.1355  0.0125 -0.2685
26406W        W43930   9.165   4.902   0.397 -0.1742  0.1206 -0.1348
26407W        W43931   9.367   4.342  17.224 -0.2407 -0.3292 -0.2523
26408W        W43932  14.788   2.399   0.718  0.1455 -0.0482 -0.0564
26409W        W43933  13.239  16.476  12.976 -0.0740 -0.0487 -0.4178
26410W        W43934   0.373  13.962   5.186  0.2676  0.0368 -0.0697
26411W        W43935   4.542   0.892   1.989  0.1373 -0.1328  0.0513
26412W        W43936  11.935  11.985  17.599  0.1621 -0.0163  0.1337
26413W        W43937  13.271   4.988  13.775  0.1678 -0.1775 -0.0290
26414W        W43938   5.945  12.697   0.531  0.0376  0.3688  0.0341
26415W        W43939   6.783  14.914  15.005 -0.1535 -0.0767  0.0164
26416W        W43940  16.476   6.958   4.219 -0.0381  0.1009 -0.0047
26417W        W43941   9.407  16.922  16.771  0.1207  0.1866 -0.0558
26418W        W43942   7.431  14.172   2.877  0.1531 -0.0426 -0.1482
26419W        W43943   7.865  15.276  12.980 -0.1163  0.2210  0.3473
26420W        W43944   3.753   6.747  13.172 -0.0220 -0.1526 -0.1081
26421W        W43945   1.811   2.970  17.576 -0.1991  0.0577 -0.0590
26422W        W43946   3.801   0.296  16.978 -0.4874 -0.2203 -0.1455
26423W        W43947  16.473   2.850   3.108  0.5729  0.3190  0.0555
26424W        W43948  10.354   8.549   4.138 -0.0370 -0.2045 -0.3625
26425W        W43949  15.305  10.603   5.126 -0.3008  0.2093  0.1858
26426W        W43950   9.905  10.136   5.526 -0.0380 -0.2112 -0.3129
26427W        W43951   3.169   2.889   0.423  0.2880 -0.0404 -0.2924
26428W        W43952   2.764   4.947  15.877 -0.0391  0.0901 -0.4652
26429W        W43953   6.418   1.579   1.711  0.0811  0.1259 -0.0517
26430W        W43954   7.472   6.709   3.164 -0.0728  0.2398 -0.0405
26431W        W43955   2.005   9.202   3.959  0.2961 -0.0025  0.0307
26432W        W43956   9.329   0.623  13.395 -0.0387 -0.0038  0.0137
26433W        W43957   9.708   0.021  16.692  0.2844  0.1320 -0.1845
26434W        W43958  15.307   9.003   3.204  0.0411  0.0318 -0.0811
26435W        W43959  11.514  15.793   3.802 -0.0573 -0.1632  0.0414
26436W        W43960   5.352   3.757   5.304 -0.0746 -0.1115  0.0999
26437W        W43961   1.714  12.913   1.165  0.0703 -0.0288 -0.1426
26438W        W43962   1.115   6.269  12.656  0.2174 -0.0644  0.1832
26439W        W43963  11.833  11.183  15.878  0.1383  0.0888 -0.1608
26440W        W43964  13.707  13.444  13.279 -0.0188 -0.0009  0.1734
26441W        W43965  10.962  13.899  14.202 -0.0564 -0.0262  0.0217
26442W        W43966  17.149   9.902   0.017 -0.1720 -0.6761 -0.4245
26443W        W43967   7.806   3.918  16.341 -0.1209 -0.0773 -0.1090
26444W        W43968  12.712   2.217   3.438  0.2512 -0.3909 -0.1825
26445W        W43969  10.861  16.057   0.413  0.2791 -0.2637 -0.1549
26446W        W43970   8.319   0.269   1.929  0.1104 -0.1697  0.0262
26447W        W43971   8.569   5.239  12.952 -0.2269 -0.1192  0.1481
26448W        W43972   0.148   2.799   2.525 -0.1218 -0.1220 -0.0947
26449W        W43973   5.705  13.375   6.249 -0.2364 -0.1185  0.1195
26450W        W43974   9.440   6.860  14.972 -0.1027 -0.3232  0.1199
26451W        W43975  12.875   9.789   3.007  0.2069 -0.3621  0.2877
26452W        W43976   7.583   9.032  16.275  0.0353 -0.1089  0.3919
26453W        W43977  15.315   9.919  17.264  0.1107  0.1484  0.0654
26454W        W43978  11.158  10.983  13.994  0.3484  0.0383  0.1179
26455W        W43979  12.745   7.835  16.264 -0.0613 -0.0260 -0.2901
26456W        W43980   7.317  13.391  13.330  0.0061  0.1678 -0.1134
26457W        W43981  10.147  16.447   1.002 -0.3414  0.2439  0.0732
26458W        W43982   8.994   8.304   0.204 -0.2868  0.0057  0.0148
26459W        W43983   3.527  10.137  17.036 -0.1484  0.2638  0.4759
26460W        W43984   7.071   1.154  15.811 -0.0926  0.0818  0.1739
26461W        W43985  12.444  16.933  17.495  0.2123 -0.0446  0.0041
26462W        W43986  10.539   3.104  17.518 -0.0130 -0.1435 -0.1298
26463W        W43987   2.222   1.922   0.904  0.0120 -0.0358  0.1178
26464W        W43988   6.418   1.499  12.745  0.2556 -0.1041  0.2936
26465W        W43989   3.643   2.731   4.269 -0.2581  0.0035  0.1330
26466W        W43990   3.806  16.547   2.405 -0.1878  0.1225 -0.0352
26467W        W43991  13.082  10.280   3.543  0.0102  0.1470  0.1752
26468W        W43992   2.854   8.101   2.849 -0.0563 -0.1038  0.0202
26469W        W43993  13.335  10.751   5.330 -0.0921 -0.0285 -0.2098
26470W        W43994   1.642   9.887  15.325  0.3195  0.0471 -0.1529
26471W        W43995   6.100   9.222   5.514  0.1988  0.0517  0.0700
26472W        W43996   9.540   0.737   4.200  0.0194 -0.1704 -0.1393
26473W        W43997  15.172   6.674   4.282  0.0762  0.1747 -0.1820
26474W        W43998  14.994  15.560   4.036  0.0246 -0.1534  0.2351
26475W        W43999  15.534   7.538   2.048  0.3199 -0.2755  0.0980
26476W        W44000   1.525  11.741   5.037  0.0529 -0.0929  0.0026
26477W        W44001   2.720   1.188   1.957  0.1571 -0.2558 -0.0682
26478W        W44002   8.808  10.510  17.490  0.1478  0.0309 -0.2405
26479W        W44003   3.332   3.040  16.923  0.0730 -0.0995 -0.0428
26480W        W44004  12.068   5.862   4.279  0.0555 -0.0785 -0.0152
26481W        W44005  12.698  15.742   1.907 -0.0331 -0.0893 -0.0640
26482W        W44006  16.229  11.893  16.316  0.0035 -0.0105  0.0638
26483W        W44007  15.042  14.290   1.041  0.1072  0.1083 -0.0993
26484W        W44008   2.306  16.660  14.480  0.0138 -0.1700 -0.0724
26485W        W44009   1.378   8.803   1.564 -0.3169  0.1469  0.3859
26486W        W44010   4.077   8.037   0.058  0.2586 -0.2374 -0.2150
26487W        W44011   9.176  16.438   4.199 -0.1253  0.0967  0.0819
26488W        W44012  11.224  10.994   0.106  0.0154 -0.0667 -0.1792
26489W        W44013  15.465   8.593   3.419  0.4117 -0.0787  0.2295
26490W        W44014   2.161  16.718  13.620 -0.2892  0.1711  0.0629
26491W        W44015   3.934   4.133  12.968  0.0663 -0.0100  0.0759
26492W        W44016   5.178  17.021  16.446 -0.1384 -0.0968 -0.2217
26493W        W44017  13.362   2.782   2.920 -0.2460 -0.0363 -0.2921
26494W        W44018   1.907   9.025  13.450 -0.0993  0.2730 -0.0264
26495W        W44019   2.394  16.221  12.534 -0.2277  0.0002  0.2036
26496W        W44020  14.070   8.679   0.976  0.0684 -0.1218  0.2491
26497W        W44021  12.939   1.339   1.446  0.0346 -0.1676 -0.1107
26498W        W44022   5.565   3.080   4.674  0.1421  0.3374  0.0816
26499W        W44023  11.307   8.558  16.997 -0.0964 -0.1466  0.2464
26500W        W44024  10.802  15.662  13.430  0.3455 -0.0787  0.3582
26501W        W44025  16.539  12.385  16.501  0.0339  0.1024  0.1935
26502W        W44026   4.405   3.524   5.314  0.0979  0.0478 -0.1920
26503W        W44027   5.459  15.913   2.367  0.2431 -0.4018 -0.1116
26504W        W44028  10.899   1.368  17.213 -0.0057  0.0619  0.1899
26505W        W44029  13.300   7.880  14.010 -0.4638  0.2041  0.1932
26506W        W44030   6.934   0.318   3.736 -0.1069 -0.1209  0.3487
26507W        W44031   0.480   1.218  13.787  0.0330  0.1233 -0.0167
26508W        W44032   8.834  15.007   1.021 -0.1361  0.1109 -0.0719
26509W        W44033  13.149   7.261   4.773  0.0153 -0.2082  0.0199
26510W        W44034   5.876   1.860   2.504 -0.1604  0.0583 -0.1551
26511W        W44035   5.790   9.361  15.444 -0.2475  0.0153 -0.1538
26512W        W44036   9.354  14.401  16.964 -0.1359  0.0303  0.0149
26513W        W44037   9.214   9.054   5.344 -0.2039  0.0138  0.2012
26514W        W44038  13.575  15.039  17.164  0.2196  0.0566  0.1079
26515W        W44039   8.417   8.708  15.220  0.2142  0.0055  0.0157
26516W        W44040   1.057  11.242  12.189  0.1709 -0.2365  0.2750
26517W        W44041   3.309   5.628   2.860  0.0674  0.1711  0.1089
26518W        W44042   3.076   6.338   3.961  0.1771  0.1704 -0.1668
26519W        W44043   0.252  11.723  17.119  0.1256 -0.0173 -0.0330
26520W        W44044  12.142   5.209  12.853  0.3799 -0.1308 -0.0533
26521W        W44045  12.465  10.926  14.310  0.3090  0.1018 -0.0394
26522W        W44046  10.440   3.690  12.207  0.1367  0.0772  0.2359
26523W        W44047  11.204   8.443   1.955 -0.0346  0.1938 -0.0723
26524W        W44048  17.206  16.128  16.060  0.0913 -0.1888 -0.2392
26525W        W44049   1.756   2.162  13.716 -0.1563  0.0471  0.1335
26526W        W44050   9.613   1.241   1.217 -0.1899  0.2992 -0.1971
26527W        W44051   7.092   6.796  13.010  0.3231  0.2287  0.1473
26528W        W44052  11.561   5.888  16.925 -0.1359 -0.0092  0.1482
26529W        W44053   9.802   8.513  15.069 -0.4563  0.1414  0.0379
26530W        W44054   0.916   1.891  13.915 -0.0250 -0.0529  0.2871
26531W        W44055  10.905  10.681   1.512 -0.1802  0.1287 -0.2212
26532W        W44056   3.002   6.348  12.756 -0.0517 -0.2041 -0.2142
26533W        W44057   8.891  11.950  12.407 -0.1624  0.0293 -0.4008
26534W        W44058  10.151   7.450   1.774  0.0662 -0.1669 -0.1231
26535W        W44059   7.284   2.150  17.345  0.1980  0.2235  0.0092
26536W        W44060  15.713   9.004   0.302  0.0075 -0.1398  0.1579
26537W        W44061  13.999   4.828   2.179 -0.1506 -0.0776  0.1345
26538W        W44062   2.087   2.196   5.545  0.3438 -0.0779  0.1107
26539W        W44063   7.258   0.172   3.336 -0.0771 -0.1511 -0.0292
26540W        W44064   2.521  14.149   5.497  0.1941 -0.2350 -0.0512
26541W        W44065   2.957   0.313  17.506 -0.2052 -0.1254 -0.2481
26542W        W44066   7.980   8.403  13.401 -0.0804 -0.4591 -0.2958
26543W        W44067  13.776   6.121  13.541  0.2103 -0.1256  0.2739
26544W        W44068   3.766   8.818  15.663 -0.2287  0.1379  0.1316
26545W        W44069   8.393   5.799   2.659 -0.2417  0.1787 -0.1830
26546W        W44070  17.150  14.269   2.787  0.0699  0.1809 -0.0385
26547W        W44071   9.512   5.967   4.140  0.1189 -0.3263 -0.3352
26548W        W44072   8.367   0.940  15.428  0.0386  0.0247  0.4345
26549W        W44073  14.592   3.957   0.542  0.0645 -0.0930 -0.2097
26550W        W44074   5.970   2.649  13.980  0.2253 -0.2633  0.2146
26551W        W44075   6.320   8.749   3.401  0.3494 -0.3014 -0.2875
26552W        W44076   2.875  10.204  11.954 -0.1917  0.3661  0.1716
26553W        W44077  16.532   2.494  11.909  0.1114 -0.0143  0.0454
26554W        W44078   9.047  10.690   1.358  0.2895 -0.1739  0.1814
26555W        W44079   2.384  10.641   3.423  0.1154  0.1574 -0.0251
26556W        W44080  11.384   2.631  17.104  0.0119  0.3843 -0.1512
26557W        W44081   7.989   3.544  17.285  0.0514  0.5113  0.1375
26558W        W44082   2.204  12.313   3.776  0.1520  0.0137  0.2213
26559W        W44083   4.762   8.355  13.312 -0.2138  0.0504  0.0494
26560W        W44084   0.580   1.405   0.200  0.2916  0.3338  0.3429
26561W        W44085  10.697  15.911   5.634  0.1091  0.0657 -0.1447
26562W        W44086  10.799   6.498   1.309 -0.1087  0.2545 -0.0487
26563W        W44087   0.660  12.022   4.847 -0.2652  0.0036 -0.0839
26564W        W44088   4.007  13.897   3.552  0.0578 -0.1828  0.0981
26565W        W44089   3.954  14.434  12.218 -0.1012  0.2796  0.4580
26566W        W44090  15.742  10.509  11.935  0.0324 -0.0608 -0.0247
26567W        W44091   0.989   5.662  15.358  0.0916  0.1961 -0.2485
26568W        W44092  17.222  11.567  14.878 -0.0521  0.1612 -0.0267
26569W        W44093  11.207  10.059  13.198  0.1140 -0.0299 -0.1456
26570W        W44094  11.016   3.943   1.967 -0.2860  0.1414 -0.2300
26571W        W44095  15.157   2.719  16.467  0.1038  0.1589 -0.1583
26572W        W44096  16.541  16.669   2.672 -0.1447 -0.1766 -0.1973
26573W        W44097  11.320   3.110   1.234 -0.0733  0.5418 -0.2032
26574W        W44098  12.427   8.421   4.289 -0.0082  0.0883  0.0113
26575W        W44099   9.927   9.258   2.976 -0.2246 -0.0902  0.0757
26576W        W44100   0.813   3.937  13.611 -0.0483 -0.0418 -0.1033
26577W        W44101   5.985   5.751  14.339  0.2132  0.3490  0.1185
26578W        W44102   0.278   2.255   1.815  0.1858  0.0395 -0.0629
26579W        W44103  11.918   9.764  16.739  0.0966  0.0422 -0.0273
26580W        W44104  10.017  14.437   1.046  0.2128 -0.1280  0.2517
26581W        W44105  14.453   0.225   2.120 -0.3031 -0.0232 -0.1849
26582W        W44106   7.458   4.191   1.936 -0.2643 -0.0130 -0.0450
26583W        W44107   6.043  10.942  13.250 -0.1066  0.1085 -0.2319
26584W        W44108   1.111   5.133   4.491 -0.0493 -0.0392 -0.0459
26585W        W44109  16.910   0.735  16.996 -0.2910  0.0301 -0.0213
26586W        W44110   5.327  15.143   3.005 -0.1475 -0.0548 -0.1671
26587W        W44111  13.105   2.022   3.130  0.0781  0.0172 -0.0984
26588W        W44112  12.498   0.582   2.360  0.1668 -0.0772  0.1401
26589W        W44113   6.637   7.718  17.105  0.0083 -0.3621 -0.0229
26590W        W44114   5.104  13.604  15.069  0.2050  0.2990 -0.0524
26591W        W44115  10.795   2.790   3.037 -0.2331  0.2231 -0.0536
26592W        W44116   7.146  13.949   1.085  0.0463  0.1086 -0.3943
26593W        W44117   2.681  11.630  17.216 -0.2228  0.1514  0.3169
26594W        W44118   7.653   5.160  11.545  0.0819 -0.2358  0.0518
26595W        W44119  16.216   2.751   3.632  0.2091 -0.1355 -0.2551
26596W        W44120  13.426  15.945  15.978  0.1479 -0.1124  0.0316
26597W        W44121   6.675  13.233  16.803 -0.0150  0.0864 -0.3003
26598W        W44122   6.044  11.076  17.477  0.1524  0.4040  0.1392
26599W        W44123   6.327  10.558   5.652  0.1611  0.1111  0.2360
26600W        W44124   2.795   0.706   0.158  0.1022 -0.0815 -0.0711
26601W        W44125   2.033   8.187  16.872 -0.1909  0.1298 -0.1641
26602W        W44126  15.379   7.333  15.798 -0.0759  0.0256  0.0803
26603W        W44127   6.091  13.271  14.288 -0.4255 -0.0042  0.3353
26604W        W44128  11.114  14.529  13.836  0.0529 -0.1575  0.1767
26605W        W44129   3.326  10.007   4.567 -0.0723 -0.2964  0.2698
26606W        W44130   4.266   6.066   1.279  0.0087  0.1071  0.1234
26607W        W44131   2.189  13.971  14.753 -0.4676  0.1802 -0.2420
26608W        W44132   1.139   6.375   2.556 -0.1123  0.4162  0.0706
26609W        W44133   3.788   0.965  14.977  0.0308  0.1905 -0.2497
26610W        W44134   8.639  13.722   5.939  0.3190 -0.0664  0.3175
26611W        W44135  11.787  14.704   1.548  0.0927 -0.3186 -0.0001
26612W        W44136   0.716  17.128   1.658 -0.4568  0.2735  0.2078
26613W        W44137   1.549   4.920   4.189  0.1871 -0.0203  0.0598
26614W        W44138   8.209  12.582   4.502 -0.0781  0.0213 -0.1134
26615W        W44139  15.358  10.782  12.032  0.0608 -0.1054  0.1525
26616W        W44140   3.939  10.959  16.083 -0.1255 -0.0821  0.0312
26617W        W44141  11.234   2.271  14.552 -0.1336 -0.0100  0.1400
26618W        W44142   7.036   3.579  15.465 -0.3104 -0.3936 -0.1883
26619W        W44143  14.723  10.442  12.584 -0.3748 -0.0733  0.0021
26620W        W44144  11.109  13.508   1.053 -0.1976  0.1157  0.0149
26621W        W44145   4.131  16.500  15.443 -0.1449 -0.1863  0.1405
26622W        W44146   6.584   2.509   0.690  0.2159  0.0457  0.0870
26623W        W44147   9.366   7.986   2.737  0.1535  0.1467  0.1782
26624W        W44148  15.444  11.047   1.490 -0.0236  0.0923  0.1131
26625W        W44149  12.299   6.859   3.925 -0.0928 -0.1437 -0.1773
26626W        W44150  16.150   6.431  17.350  0.2508  0.2028  0.2229
26627W        W44151   1.486   6.975  13.773 -0.0018  0.4295  0.0548
26628W        W44152   2.855   8.779  16.423 -0.0468 -0.2369 -0.1409
26629W        W44153  15.523   8.857  11.435 -0.1926 -0.0790  0.1320
26630W        W44154   5.316  15.379  11.361 -0.0650  0.0321 -0.0304
26631W        W44155  16.955   2.183   1.120  0.0359  0.0626  0.1251
26632W        W44156   7.347  16.208  12.351 -0.1691 -0.0143 -0.1225
26633W        W44157   6.038   3.823   3.387 -0.1362 -0.0648 -0.1152
26634W        W44158  14.018   6.863  14.194  0.0062  0.0932  0.0377
26635W        W44159   5.958   3.956   5.460 -0.0986 -0.0979 -0.2249
26636W        W44160  12.563   2.543  14.241 -0.0756  0.1565 -0.2122
26637W        W44161   3.283   8.603   0.040 -0.2096  0.0509  0.1778
26638W        W44162   9.152  16.407  13.756 -0.0724  0.5980  0.0786
26639W        W44163   7.285  10.077  14.872  0.0559  0.1390  0.0785
26640W        W44164  11.801   1.424  14.196 -0.0989  0.2029  0.2148
26641W        W44165   3.940  12.119   4.185  0.1063  0.0163  0.0215
26642W        W44166  12.811   5.576   3.575 -0.1281  0.0279 -0.1446
26643W        W44167  14.671  11.134  10.707  0.0196 -0.2188 -0.2611
26644W        W44168  12.548  13.173  13.304  0.0022 -0.2717 -0.0308
26645W        W44169   6.051   0.654  12.955  0.0090 -0.3149  0.0989
26646W        W44170  11.835  12.223  14.802  0.5061 -0.1845 -0.1666
26647W        W44171  11.770  11.003   2.625  0.0846 -0.1470  0.1672
26648W        W44172   5.063   4.893  15.475 -0.2057 -0.0162  0.1034
26649W        W44173  14.924   5.886   0.959  0.1180 -0.1820 -0.0120
26650W        W44174   4.227  10.072   1.493  0.0520  0.0862 -0.0995
26651W        W44175   8.669   6.518  17.645  0.0196  0.0936  0.3993
26652W        W44176  11.328   3.138  14.268 -0.0260  0.0442 -0.0733
26653W        W44177  14.420   3.742  15.345  0.1019  0.3024 -0.2071
26654W        W44178   2.507  16.484   0.909  0.0661 -0.4614 -0.1907
26655W        W44179  13.130   2.991  12.676 -0.0179  0.0394  0.2116
26656W        W44180   5.765   0.841  15.426 -0.0497  0.0102  0.1770
26657W        W44181   2.787  17.204  11.634 -0.0640 -0.1509  0.1962
26658W        W44182   8.561   8.194   3.522 -0.3707  0.1856 -0.0635
26659W        W44183   7.617  13.711   1.568  0.0482  0.0467 -0.1047
26660W        W44184   9.351  12.181   0.933  0.3576 -0.3185 -0.0988
26661W        W44185  16.889   9.741  17.226  0.0018 -0.3561 -0.0791
26662W        W44186  14.403  14.736  14.818 -0.0827  0.0731  0.0576
26663W        W44187   6.146  12.286   2.356  0.0572  0.0306 -0.0657
26664W        W44188   4.152  13.251  14.859 -0.3176  0.0442 -0.0987
26665W        W44189  12.044  13.752   1.035  0.1460 -0.1056 -0.1675
26666W        W44190   7.542  14.690  14.339  0.0670 -0.3838 -0.1306
26667W        W44191  14.899   9.081  15.687 -0.1179 -0.0757  0.1001
26668W        W44192   9.512   1.055   5.102  0.0430 -0.4137  0.2257
26669W        W44193  13.929   4.203  13.678  0.0546  0.1318 -0.2664
26670W        W44194  11.443   3.802   0.553 -0.4536 -0.1800  0.0157
26671W        W44195   4.811  14.344   1.414  0.0458  0.1036  0.0526
26672W        W44196   8.217  12.663   0.220  0.0751  0.0458 -0.0385
26673W        W44197   0.535   6.216   1.470  0.3209  0.1595 -0.1038
26674W        W44198  10.062   0.220  14.978 -0.2016 -0.2446 -0.1782
26675W        W44199  13.724   9.868  13.894  0.1202  0.1727  0.1869
26676W        W44200  10.423  16.665   2.124 -0.0988  0.2500 -0.2574
26677W        W44201  15.773  15.924  17.609  0.2324  0.3867 -0.1552
26678W        W44202   3.581   2.721   2.254 -0.3360  0.0080 -0.1310
26679W        W44203   9.813   2.677   0.989 -0.2813 -0.0749 -0.1916
26680W        W44204  15.852   5.414   1.084  0.0520  0.1021 -0.1145
26681W        W44205  11.871   9.212   3.879 -0.0028  0.0906 -0.1133
26682W        W44206   9.536   3.361   1.638 -0.3495 -0.3635  0.0890
26683W        W44207   0.355  13.821   4.715  0.0534 -0.0676 -0.0223
26684W        W44208  14.269   9.777   2.480  0.0548 -0.0741  0.3615
26685W        W44209   5.681  14.256  13.097  0.0565  0.1541  0.1124
26686W        W44210   1.480   6.006   2.423 -0.0403 -0.0443  0.0109
26687W        W44211   6.952   6.759   3.137  0.1568  0.0351  0.0814
26688W        W44212   1.836   5.135  11.772  0.0933 -0.0855 -0.1502
26689W        W44213   9.294  11.739  17.648 -0.0171  0.2748 -0.1018
26690W        W44214  14.887   1.012   1.805 -0.0716  0.1120  0.1224
26691W        W44215  15.747  16.794   2.642 -0.0288 -0.1610 -0.2641
26692W        W44216   0.541  15.880   3.842 -0.1023 -0.0060 -0.2150
26693W        W44217   0.748  10.629   1.252 -0.0075 -0.1371 -0.0683
26694W        W44218  11.329  15.590   0.641  0.4235 -0.2679 -0.1566
26695W        W44219   0.180   6.410   3.604 -0.0264  0.0724  0.0534
26696W        W44220  16.202   3.891  13.903 -0.0243  0.1463 -0.1538
26697W        W44221   1.591  16.685  11.449 -0.3231  0.0253 -0.0265
26698W        W44222  11.301  13.750   5.184  0.1651 -0.2058 -0.3418
26699W        W44223   4.792  13.035  13.031 -0.0373 -0.0793  0.1300
26700W        W44224   6.659  13.988   3.565 -0.0457 -0.2002 -0.2315
26701W        W44225   3.181   3.537   6.793 -0.2963 -0.2938  0.1412
26702W        W44226  11.481  10.334   4.688  0.0677  0.2038 -0.0784
26703W        W44227  16.306   1.784   1.052 -0.0460  0.4332 -0.0871
26704W        W44228   2.128   8.661  13.676 -0.1028 -0.1104 -0.1856
26705W        W44229   5.128   9.210   5.880  0.0017 -0.3811  0.0570
26706W        W44230   6.950   7.728   2.083 -0.0739 -0.0718  0.1617
26707W        W44231   3.713   7.988  16.281  0.1094  0.0994  0.2162
26708W        W44232  14.134  14.519  16.497 -0.3702 -0.0021  0.3616
26709W        W44233   5.313   3.785  11.625  0.1834  0.0200 -0.0425
26710W        W44234  11.268   5.677   0.377  0.0497 -0.0527 -0.0122
26711W        W44235   8.943  10.375   5.548 -0.1105 -0.0692 -0.0605
26712W        W44236   8.809   4.391  15.957 -0.1065 -0.0138  0.0229
26713W        W44237  13.126   6.894   2.844 -0.0922 -0.0492 -0.1790
26714W        W44238   5.715  11.918  12.996 -0.2490  0.0578 -0.0516
26715W        W44239  15.591  17.034   1.165  0.0413  0.1850 -0.1200
26716W        W44240  17.126  10.820   1.478 -0.0102 -0.0513 -0.0886
26717W        W44241   4.852   9.748  14.092 -0.0183 -0.0786  0.0053
26718W        W44242   4.787   2.390   0.805  0.0653  0.1422  0.0985
26719W        W44243   1.879  13.618  15.283 -0.1212  0.0505 -0.0759
26720W        W44244  14.411   6.743   0.134 -0.0732  0.1234  0.1037
26721W        W44245   2.342  11.214  13.378 -0.4118 -0.0641  0.2163
26722W        W44246   8.312   7.197  16.014 -0.0052  0.2730  0.2543
26723W        W44247  16.135  14.277   5.096  0.1548 -0.3841 -0.1533
26724W        W44248  10.738  11.147   2.736 -0.3444 -0.2163 -0.1108
26725W        W44249   2.309  10.919   5.399  0.0765  0.0785 -0.0878
26726W        W44250  11.388  13.860   5.766 -0.1104 -0.0546 -0.2283
26727W        W44251   6.463  13.801   0.709  0.3726  0.4067  0.0705
26728W        W44252   7.724   1.491   0.798  0.2519  0.0755  0.1964
26729W        W44253   4.230  11.862  11.550 -0.0147  0.1712  0.1194
26730W        W44254   1.557   3.808   5.208 -0.0288  0.1607 -0.3867
26731W        W44255  12.672  11.382  14.187  0.0582 -0.0687  0.0359
26732W        W44256   3.904  16.053  14.250  0.1164  0.0588  0.0342
26733W        W44257   1.139   2.029   1.712 -0.2675 -0.1436  0.1758
26734W        W44258   8.637   7.613  14.540 -0.1895  0.1583 -0.2703
26735W        W44259   5.007   9.437   2.385  0.1458  0.1996  0.2549
26736W        W44260  13.904  17.178   3.551  0.0403  0.0640  0.0389
26737W        W44261  11.263  14.449   3.964 -0.0303 -0.2114 -0.0152
26738W        W44262   2.694  12.705  16.916 -0.1137 -0.1125 -0.0896
26739W        W44263  10.339   7.423  14.465  0.1272  0.0876 -0.0040
26740W        W44264  14.872   2.572   3.546 -0.1157  0.4976 -0.0780
26741W        W44265   9.550   2.863   4.583 -0.1145  0.0103 -0.1250
26742W        W44266   7.794  13.491   4.179  0.2178 -0.1695 -0.0725
26743W        W44267   5.536  13.292   5.742  0.1816 -0.1237  0.0092
26744W        W44268  16.234   6.926  12.550 -0.2861 -0.0908  0.0014
26745W        W44269  15.223   6.165   0.109  0.0881  0.2159 -0.1171
26746W        W44270   6.340   5.292  14.206  0.0461 -0.3031 -0.1180
26747W        W44271   9.915   2.988   2.670 -0.1762 -0.1476  0.0817
26748W        W44272   0.076  12.522   3.360  0.0766  0.1768  0.0818
26749W        W44273  13.303  12.029   5.117 -0.1423  0.5763 -0.1516
26750W        W44274   9.247   4.676  16.830 -0.1199 -0.0567 -0.1306
26751W        W44275   9.298  16.929  15.401 -0.1313  0.0221 -0.0229
26752W        W44276   4.070   2.817   1.348  0.0759 -0.1003  0.1145
26753W        W44277  10.342   4.750   6.473  0.2896 -0.2262 -0.0514
26754W        W44278   4.760   8.882  15.439 -0.0771  0.1610  0.3100
26755W        W44279  13.982   0.752   3.931 -0.0869 -0.0153 -0.2459
26756W        W44280   4.414  12.184   3.068  0.1903  0.1980  0.1789
26757W        W44281  11.709  10.234  15.974 -0.1988 -0.4944  0.1700
26758W        W44282  10.303   0.233  12.591  0.2765  0.2611  0.1656
26759W        W44283  17.101   8.741  15.108  0.0858 -0.2853 -0.1988
26760W        W44284   9.662  12.368  13.087 -0.1766 -0.0522  0.2414
26761W        W44285  10.351   5.326   4.471 -0.3233  0.1523  0.0984
26762W        W44286  15.802   9.556  11.152  0.0798 -0.0827 -0.2979
26763W        W44287  11.322  15.692   1.600  0.0482  0.1687 -0.2696
26764W        W44288   0.695  11.680   4.486  0.0567 -0.1018 -0.0499
26765W        W44289  14.324  15.172  17.175 -0.0439 -0.3039  0.2090
26766W        W44290  11.136   5.882   2.157  0.0731  0.0318 -0.2142
26767W        W44291  14.078   8.656   2.611 -0.0289  0.1594  0.1276
26768W        W44292  10.273   3.476   5.675  0.0059 -0.0879  0.2016
26769W        W44293   9.763  10.843  15.511 -0.2557  0.1474 -0.0900
26770W        W44294  14.499   2.621  15.670 -0.1143  0.5374 -0.1020
26771W        W44295   1.817  16.521  16.422  0.0403 -0.0983 -0.0888
26772W        W44296   6.538   7.302   5.119 -0.3198  0.1540  0.0994
26773W        W44297  11.426  11.262  16.883  0.1731 -0.0673  0.1845
26774W        W44298  16.860  15.509  12.447  0.3641 -0.0740  0.1987
26775W        W44299   1.287  14.868   5.144  0.1681 -0.2196  0.1707
26776W        W44300   6.011  16.497  13.648 -0.4190  0.2691  0.2288
26777W        W44301   9.178  12.560  13.259  0.0156 -0.1019  0.0804
26778W        W44302   2.466   2.715  15.888  0.0281  0.0737 -0.2107
26779W        W44303   4.811   0.342  15.412 -0.0437  0.0988  0.2975
26780W        W44304   8.250   8.880  16.936  0.1483  0.2376  0.0460
26781W        W44305  13.130  14.296   5.223 -0.4159  0.1756  0.2340
26782W        W44306  14.230   0.434  17.101  0.2533  0.0557 -0.2420
26783W        W44307  14.844   2.692  12.707 -0.0918  0.0441  0.0214
26784W        W44308   3.640   6.340  17.079  0.1743  0.0195 -0.1620
26785W        W44309  14.681  16.412   2.068 -0.2590  0.0790  0.0538
26786W        W44310   2.156  10.557  17.082 -0.0102  0.2917 -0.4052
26787W        W44311  13.968   0.821  11.864  0.0117  0.0023 -0.0446
26788W        W44312   6.337   5.357  12.285 -0.1151 -0.0849  0.1134
26789W        W44313  17.124   2.294  14.597 -0.0976 -0.2630 -0.0759
26790W        W44314   6.162   2.861  12.477  0.1278 -0.0280 -0.0694
26791W        W44315   5.083   9.755  15.083 -0.0910  0.2551 -0.0018
26792W        W44316   5.167   4.584   4.696 -0.0955  0.1207 -0.1559
26793W        W44317   7.616  15.649   0.532  0.0804 -0.0248  0.4059
26794W        W44318   3.018   7.212  13.647  0.1389 -0.2259 -0.2312
26795W        W44319   4.473   2.753  16.406 -0.1008 -0.2182  0.0786
26796W        W44320   6.474   5.900  15.107 -0.0409 -0.0938 -0.0795
26797W        W44321   3.431   6.476  15.622  0.0128  0.1500  0.1665
26798W        W44322   6.211  13.550   1.178  0.0405 -0.1006  0.1222
26799W        W44323   3.027  13.720   4.236 -0.1153  0.1784  0.1538
26800W        W44324   4.438   6.175   2.641 -0.0244 -0.0023  0.1729
26801W        W44325   2.093  10.211   2.267  0.0391 -0.1562  0.0083
26802W        W44326  16.191  10.001   4.907 -0.3437  0.0896 -0.0166
26803W        W44327   4.410   8.568  14.937 -0.0138 -0.1601 -0.0552
26804W        W44328   6.088  11.392   2.866 -0.0105  0.1725 -0.0778
26805W        W44329  11.283   4.007   1.112 -0.0629  0.0153  0.1732
26806W        W44330   3.703   7.641   2.311  0.3259 -0.1120 -0.1644
26807W        W44331  10.388  13.778  14.712  0.1187  0.3373  0.2649
26808W        W44332   3.109   8.355   3.646  0.0864  0.5182  0.0320
26809W        W44333   5.985  11.489  17.007  0.1530  0.0436 -0.2594
26810W        W44334   2.958   2.867  15.958  0.0365 -0.1311  0.1408
26811W        W44335   5.276  15.190   5.584  0.2968  0.2049 -0.0262
26812W        W44336   5.812   8.315   5.567 -0.2033 -0.0348 -0.4353
26813W        W44337   3.669  15.815  16.998  0.1161  0.1777 -0.0876
26814W        W44338  14.434   0.397  13.070  0.0028 -0.2363  0.2604
26815W        W44339   6.030   0.575   1.425  0.1803 -0.0120 -0.1700
26816W        W44340  12.725   2.350  17.078  0.0844  0.2021 -0.1404
26817W        W44341  11.649  14.819  17.325  0.3118  0.1836  0.1684
26818W        W44342  16.248   7.637   4.662 -0.2029 -0.1991 -0.3004
26819W        W44343   4.838   5.975   5.218 -0.1594  0.1702  0.0112
26820W        W44344  14.064   7.674   0.296 -0.0954 -0.1559 -0.1369
26821W        W44345  10.500   1.878  14.732  0.0177 -0.0730 -0.0762
26822W        W44346   3.282   0.396   0.315  0.0876 -0.0376  0.0499
26823W        W44347  12.559  11.809  13.679  0.0236 -0.0122 -0.0210
26824W        W44348  16.728  15.931  16.711 -0.0955  0.0013  0.1439
26825W        W44349  15.823   2.522   3.465  0.0062  0.1435  0.2085
26826W        W44350  16.672   8.667  16.303 -0.3454 -0.1732  0.1067
26827W        W44351   0.957   6.956   3.220  0.0857  0.1010  0.0067
26828W        W44352  15.675   4.484   5.817 -0.0547  0.0782  0.1741
26829W        W44353   8.747   2.166   4.925 -0.1790 -0.0840 -0.0587
26830W        W44354   6.601  13.334   4.319  0.1234 -0.3633  0.1399
26831W        W44355   3.161   6.308  13.249  0.3531  0.2486  0.1611
26832W        W44356  15.815   8.748   3.074 -0.2083 -0.0946 -0.2816
26833W        W44357   4.459  12.459  17.620  0.1078  0.0408 -0.5932
26834W        W44358   5.340   9.431   5.150 -0.2237  0.2921  0.1085
26835W        W44359   6.679   6.793   5.515 -0.0924 -0.0286  0.2560
26836W        W44360   3.320   2.114  12.497  0.0881 -0.1743 -0.2713
26837W        W44361   8.531   6.013   5.399 -0.0244  0.0625  0.1014
26838W        W44362   2.618   3.756   4.479  0.1654 -0.0298 -0.2454
26839W        W44363  11.540  13.251  15.788  0.0653 -0.2799 -0.1377
26840W        W44364  11.813   8.775   0.994  0.0485  0.1940  0.2132
26841W        W44365  15.236  10.375   1.910 -0.0288 -0.1272 -0.1688
26842W        W44366   2.130   6.602  16.066  0.1926  0.0682 -0.1797
26843W        W44367  13.153   2.481  15.283 -0.0655 -0.2139 -0.0806
26844W        W44368  15.020   2.839  14.845  0.1299 -0.0602 -0.1874
26845W        W44369   8.131   3.950   5.244 -0.0680 -0.0499 -0.0041
26846W        W44370   5.759  14.216  17.529 -0.2954 -0.2745  0.0780
26847W        W44371  12.304   7.313   1.884 -0.1988 -0.0462 -0.1317
26848W        W44372   4.608   5.480   4.407 -0.0695 -0.1437 -0.1713
26849W        W44373   4.786   1.779   0.042 -0.0401  0.2623  0.3300
26850W        W44374  13.346  11.897  12.925 -0.0215  0.1068 -0.0959
26851W        W44375   2.231  14.130   4.142 -0.0160 -0.1713  0.3769
26852W        W44376  15.060  14.895   2.013 -0.0443  0.1577  0.0436
26853W        W44377  15.628   3.838   0.960 -0.0932  0.0864 -0.0738
26854W        W44378  15.324   5.650   3.911 -0.2405 -0.3333 -0.2558
26855W        W44379  15.946  12.174   0.076 -0.2060 -0.2658 -0.0450
26856W        W44380  12.565   8.628  12.007  0.2001  0.2199  0.0282
26857W        W44381  12.337  10.341  11.830 -0.1009 -0.0675  0.1306
26858W        W44382   4.895   6.244  16.638 -0.2091 -0.1947 -0.0626
26859W        W44383   6.743   1.756   5.679  0.1934  0.1077  0.2370
26860W        W44384  16.293   2.129   2.310 -0.0030 -0.0276 -0.0941
26861W        W44385  14.702  16.380  16.479 -0.0339  0.1835 -0.2521
26862W        W44386   2.183   3.882  14.881 -0.0831  0.0299  0.0114
26863W        W44387  10.336   5.409  16.570 -0.4179 -0.2388  0.2966
26864W        W44388   5.200  15.470  15.469 -0.0383  0.0158 -0.0437
26865W        W44389   8.724  12.162   2.658  0.0238 -0.1560  0.1958
26866W        W44390   8.982   0.416  15.758 -0.2428  0.1856 -0.0300
26867W        W44391  14.086  13.622  15.627  0.0100  0.1915 -0.0870
26868W        W44392  13.481   0.758   3.188 -0.0886 -0.0583 -0.3484
26869W        W44393   8.823  11.009  15.922 -0.1858  0.3151 -0.0354
26870W        W44394  13.671   5.305  14.672  0.0407 -0.2780  0.3023
26871W        W44395   9.229   8.777   0.285 -0.0721 -0.0579 -0.2605
26872W        W44396  12.494   3.993   5.327 -0.0043  0.0467 -0.3150
26873W        W44397   7.127   2.106  14.355 -0.2538  0.0926  0.1768
26874W        W44398  14.798  10.464  16.699  0.0952 -0.5654  0.0381
26875W        W44399  15.001  14.174   4.441 -0.2153  0.0004 -0.0913
26876W        W44400   0.870  12.465  12.446 -0.1189 -0.1731 -0.1463
26877W        W44401   1.124  16.585   2.270  0.1968 -0.0954 -0.2919
26878W        W44402   3.451   1.109  16.499 -0.0594  0.0787 -0.0001
26879W        W44403   9.076  10.198  15.359 -0.1260  0.0082  0.1577
26880W        W44404  15.596   8.130  17.540 -0.2897 -0.0822 -0.2123
26881W        W44405  12.557   7.331   4.532  0.0604 -0.0539 -0.0327
26882W        W44406   9.502   9.745  14.700  0.1440  0.3011 -0.0502
26883W        W44407  11.103   1.685   5.913  0.0369 -0.0142  0.2086
26884W        W44408  13.371  16.365   0.927  0.2702  0.3299  0.0773
26885W        W44409   1.240   1.613   2.082  0.1156  0.1785  0.0478
26886W        W44410   7.547   7.720   0.481  0.1440 -0.1787  0.2568
26887W        W44411  16.072  15.349  14.938 -0.1009  0.2846  0.1523
26888W        W44412   0.410  14.647  14.197 -0.1043 -0.0791 -0.1887
26889W        W44413   4.871   2.112   3.779 -0.0733  0.1788  0.1153
26890W        W44414   4.871   8.375   1.457  0.1405  0.2194  0.0039
26891W        W44415   1.459   5.185   5.312  0.2946  0.3010 -0.0790
26892W        W44416   7.139   9.946  16.051 -0.1015 -0.1460  0.0547
26893W        W44417  15.097   7.547  13.411  0.0866 -0.0152  0.2884
26894W        W44418   9.651   1.753   3.273  0.0024 -0.0250 -0.0454
26895W        W44419  15.271   8.723  15.780  0.1473  0.0554 -0.1664
26896W        W44420   9.557  16.522  14.601 -0.2554  0.0068 -0.0116
26897W        W44421  12.841  12.488   3.384 -0.0827 -0.0522  0.0739
26898W        W44422   7.152   9.450  16.209  0.0055  0.1128  0.1875
26899W        W44423  11.364   8.749   2.252  0.0706 -0.1532  0.3084
26900W        W44424   3.788   4.512   2.984  0.1172  0.2221 -0.3483
26901W        W44425   5.142   4.184   5.147  0.2045 -0.2050  0.1895
26902W        W44426  11.914  16.967   0.489  0.1449 -0.0611 -0.0930
26903W        W44427   1.369   3.883   2.446  0.0643  0.1141  0.3847
26904W        W44428  11.986   0.782  13.519 -0.2499 -0.0208  0.0075
26905W        W44429   9.600   9.275   4.072  0.0509 -0.1189 -0.0844
26906W        W44430   8.382  11.560  13.732 -0.0176  0.6262  0.2785
26907W        W44431   2.331  16.457  14.023  0.1364  0.1522 -0.3002
26908W        W44432  12.357  10.756  15.290 -0.3847  0.0440  0.0140
26909W        W44433   4.565  15.957   5.472  0.0670 -0.1578 -0.0027
26910W        W44434   7.416  11.499  13.884 -0.0609  0.1493 -0.1983
26911W        W44435  11.780  15.140  14.049 -0.0232  0.0582  0.0063
26912W        W44436   5.810   4.199  16.935  0.4229  0.1831 -0.2177
26913W        W44437   5.092  16.643   1.449 -0.1968  0.0524  0.1761
26914W        W44438   7.243  15.448  17.028  0.2772  0.0626  0.0791
26915W        W44439   7.931   1.809  14.192 -0.0112  0.1549  0.0612
26916W        W44440   2.247  14.677   2.738  0.0508  0.3090 -0.2210
26917W        W44441   1.357  14.651  13.417 -0.2258  0.0470 -0.1789
26918W        W44442  13.002  10.166   1.259 -0.2392 -0.3139  0.0446
26919W        W44443  13.535  16.570  15.929 -0.0055  0.1033  0.0579
26920W        W44444  11.046   4.655   4.559 -0.1078  0.1748 -0.1205
26921W        W44445  11.030  11.878  13.834  0.0485 -0.2038 -0.0509
26922W        W44446   1.742   8.115   3.785 -0.2816  0.0774 -0.1718
26923W        W44447  16.259  10.109   2.616 -0.0094  0.0786  0.0392
26924W        W44448  16.465   4.952  17.517 -0.2852 -0.1023  0.2014
26925W        W44449   5.556  15.208  14.246  0.1513  0.1251  0.0198
26926W        W44450   3.821   5.347   5.117 -0.2576  0.1333 -0.0906
26927W        W44451   0.189   3.475   3.056  0.2619 -0.0031 -0.0346
26928W        W44452  14.637  15.855   4.770  0.1097  0.2758 -0.0196
26929W        W44453   5.159   5.736   5.578  0.0505  0.0643  0.0385
26930W        W44454   7.961  16.363  13.580 -0.1550  0.0749 -0.2822
26931W        W44455   1.316  12.604  12.657 -0.0796 -0.1684 -0.1225
26932W        W44456   7.222   7.382   1.797  0.1463 -0.0921  0.0373
26933W        W44457  10.697  15.037  12.710 -0.1902 -0.2056 -0.0259
26934W        W44458   3.988   7.091  12.107 -0.0902 -0.1322 -0.1228
26935W        W44459   4.800  15.434  16.189  0.0989 -0.1586  0.0656
26936W        W44460  12.036   5.825  12.265 -0.0493 -0.0339 -0.1672
26937W        W44461   3.763   9.733  15.138  0.0830  0.1461 -0.0788
26938W        W44462  14.331   5.088  17.561 -0.0471 -0.1320 -0.2646
26939W        W44463   4.753   1.008   0.142  0.1340 -0.1024  0.2387
26940W        W44464   3.159  16.253  14.132 -0.2277 -0.1036  0.0350
26941W        W44465  11.894  13.129   3.022  0.0711  0.2480 -0.0208
26942W        W44466  17.097   1.619  12.537  0.2045  0.0936 -0.1124
26943W        W44467  13.997  16.330   0.540 -0.1419  0.0593 -0.1171
26944W        W44468  10.551  11.490   0.048  0.0990 -0.2980  0.2903
26945W        W44469  15.196   6.309   2.228 -0.1964  0.1157 -0.1119
26946W        W44470   6.274   9.765  13.631  0.2057 -0.1890  0.1096
26947W        W44471   3.295   6.768  17.089 -0.0259  0.1726 -0.0430
26948W        W44472  14.563   8.720   3.399 -0.3303 -0.2210  0.0792
26949W        W44473  14.363  10.895  11.915 -0.2977 -0.0759 -0.0614
26950W        W44474  11.680  10.156  12.799  0.3440 -0.1582 -0.3040
26951W        W44475   9.779  14.470   2.735 -0.1458  0.0968  0.0795
26952W        W44476   6.878  11.786   1.988 -0.4781 -0.1192  0.0975
26953W        W44477   7.347  10.941   3.045  0.3039  0.1315  0.4134
26954W        W44478  14.972  15.670   0.646 -0.3148  0.0068  0.0931
26955W        W44479  16.921   3.849  13.899 -0.2125 -0.0426  0.1738
26956W        W44480  15.776  12.704  12.619 -0.0475 -0.0977 -0.2824
26957W        W44481  13.408  13.300   2.327 -0.1058  0.1087  0.1689
26958W        W44482   6.976   2.556   2.111 -0.2451  0.0186 -0.0848
26959W        W44483   9.779   3.204  14.638 -0.0539  0.2061  0.1315
26960W        W44484  10.582   1.166  14.861 -0.1361  0.1865  0.0901
26961W        W44485  10.563   2.604  17.079 -0.1621 -0.1943 -0.1619
26962W        W44486   1.529   0.121  15.015 -0.1976 -0.3009  0.1253
26963W        W44487  12.077  12.596   2.017 -0.3862  0.0171  0.0661
26964W        W44488   3.882   0.192   3.664  0.0876  0.1216 -0.0237
26965W        W44489   4.018   9.768   2.491  0.0652 -0.1183  0.1837
26966W        W44490  11.353  12.481  14.686 -0.5431 -0.1933 -0.1675
26967W        W44491   5.588   9.314   5.610 -0.1247 -0.2178 -0.2235
26968W        W44492   3.087   2.325   1.052 -0.2121 -0.2455 -0.1184
26969W        W44493  10.405  11.834   5.381 -0.2392  0.0363  0.0185
26970W        W44494   5.584  16.552  12.237  0.3082  0.0075 -0.1561
26971W        W44495   4.157   0.130  12.670  0.0722 -0.2155  0.0476
26972W        W44496   0.093   4.000  15.589  0.0176  0.1744 -0.0569
26973W        W44497  10.285  10.060   5.229  0.2697 -0.1427  0.2476
26974W        W44498   8.295  14.766   3.684  0.0627  0.0228  0.2378
26975W        W44499  11.046   3.461  17.488  0.0452  0.0154 -0.0715
26976W        W44500   4.040  10.203  15.120 -0.2235  0.2192 -0.1571
26977W        W44501  11.888   8.529  12.357 -0.0904 -0.1610  0.1643
26978W        W44502   3.491  11.610   5.557  0.0328  0.0622 -0.2368
26979W        W44503   5.649   6.193  15.981  0.1258 -0.0847 -0.1252
26980W        W44504  12.502   0.015   5.450  0.1455 -0.1497 -0.1940
26981W        W44505   7.622   2.282  14.531 -0.1044 -0.1287 -0.1444
26982W        W44506   7.154   6.502  14.288  0.0967  0.3304 -0.0938
26983W        W44507   0.100   2.138   0.063  0.0634 -0.3469  0.0821
26984W        W44508   5.936  15.043   1.663 -0.2165  0.0062  0.0223
26985W        W44509   7.407   6.333   4.904  0.4650 -0.2164 -0.1715
26986W        W44510   7.900  11.577   2.511 -0.0716  0.0181  0.1067
26987W        W44511   6.115  16.324  17.524 -0.0375  0.3414  0.2312
26988W        W44512   1.189   4.647   3.806  0.1576 -0.1877  0.0774
26989W        W44513   9.643   9.321  16.969  0.2377  0.0569  0.1954
26990W        W44514   0.262   8.824   2.422 -0.1389 -0.3453 -0.2545
26991W        W44515  10.774   7.751  13.176 -0.2597 -0.0078 -0.0011
26992W        W44516   1.265  11.178  12.904 -0.0104  0.2167 -0.1263
26993W        W44517  12.709  12.704  16.021  0.1369  0.2787  0.0364
26994W        W44518   1.054  13.369  13.060 -0.2009 -0.1898  0.0852
26995W        W44519   5.689  13.931   1.400 -0.1217 -0.0261  0.0565
26996W        W44520  16.816  10.267  15.460  0.1240  0.0557  0.0105
26997W        W44521  12.366   2.070  11.383  0.0505  0.1973  0.0100
26998W        W44522  10.223  11.400  13.368  0.0824  0.1103  0.4512
26999W        W44523   4.694   6.634  15.630 -0.0137 -0.1321  0.0461
27000W        W44524  15.150   9.054  17.299  0.2040 -0.0434  0.2444
27001W        W44525  11.754  15.418   4.813 -0.2889 -0.2095  0.1557
27002W        W44526   0.614   3.736   6.079 -0.1531  0.1248  0.1461
27003W        W44527  13.635   3.979   0.431 -0.0527  0.2240  0.0943
27004W        W44528   1.011   4.319  14.626  0.0083 -0.0634  0.2333
27005W        W44529   2.204   0.234   0.676  0.2107  0.0827 -0.0721
27006W        W44530   7.570   1.773  13.087 -0.2712  0.1803 -0.1174
27007W        W44531   6.024   2.284  17.474 -0.1745  0.0749 -0.1186
27008W        W44532  16.122  10.922   3.958  0.0380 -0.1645  0.0308
27009W        W44533  10.816   6.990  15.918 -0.1108 -0.1044 -0.1240
27010W        W44534   4.437   0.677  15.543  0.0938 -0.0021 -0.1441
27011W        W44535  12.364  15.312   2.410 -0.2927 -0.0962  0.1406
27012W        W44536   9.417   2.538   1.790 -0.0922  0.0913  0.1630
27013W        W44537   8.483   2.850   1.439  0.1809 -0.2284  0.0256
27014W        W44538  15.705   5.747  14.860 -0.0067  0.0511  0.0034
27015W        W44539  17.091   7.325   2.373 -0.0433  0.2674  0.1752
27016W        W44540  10.347   8.217  17.508 -0.1382 -0.2509 -0.0467
27017W        W44541  15.421  14.579  13.563 -0.0700  0.1156 -0.1217
27018W        W44542   9.437   9.461  15.507 -0.1092 -0.3227 -0.0178
27019W        W44543   8.765  11.737  15.160 -0.2439 -0.1471  0.0790
27020W        W44544   8.909   5.602  16.994 -0.0518  0.1280 -0.0758
27021W        W44545   7.477   1.319  17.293  0.0069  0.1221  0.0227
27022W        W44546   7.089   3.180  16.430 -0.0077 -0.1974  0.2744
27023W        W44547  13.944   1.966  15.270 -0.0368  0.2290  0.0533
27024W        W44548   0.205  15.564   1.468 -0.1211 -0.0265  0.2042
27025W        W44549   4.692  13.936  13.322  0.0234  0.0159  0.4439
27026W        W44550   5.535  14.755   0.528  0.0552 -0.0781  0.1204
27027W        W44551   6.402   7.194   2.240  0.0880  0.2972 -0.0586
27028W        W44552   3.108   4.897  16.757  0.1605 -0.1575  0.1071
27029W        W44553   5.991   5.273   4.489  0.3269  0.1224  0.1736
27030W        W44554   6.790   1.917   4.206 -0.2153 -0.1906  0.0128
27031W        W44555  15.873  15.120   1.832 -0.1191 -0.0402  0.1889
27032W        W44556  13.990  11.236  12.014  0.0316 -0.5088 -0.3419
27033W        W44557  13.948  13.248  14.464 -0.2365  0.2204 -0.1545
27034W        W44558   9.137   6.749  17.653 -0.1296  0.0706 -0.0399
27035W        W44559  16.995   2.036  14.046  0.1072 -0.0542  0.0885
27036W        W44560   1.262   0.930  16.789  0.3815 -0.1246  0.2350
27037W        W44561   4.934   7.855   2.240 -0.3725  0.1806 -0.2510
27038W        W44562   3.990  12.663  14.349  0.0499  0.1320 -0.0719
27039W        W44563  15.200  10.632   1.413  0.1614  0.0213  0.0951
27040W        W44564  14.885  13.533   2.312  0.0632  0.0672  0.0271
27041W        W44565   3.298  13.326   3.964 -0.0993  0.0500 -0.0996
27042W        W44566   7.843  13.268  14.345 -0.0053  0.0762  0.1043
27043W        W44567  10.465  12.283   1.225 -0.1145  0.0090  0.4252
27044W        W44568   7.940   7.896  16.391 -0.1678  0.1260 -0.2554
27045W        W44569   8.335   4.916  13.406  0.0529 -0.0082 -0.4096
27046W        W44570   8.937  16.425   5.180 -0.0849  0.3925  0.3487
27047W        W44571   8.774  13.956  17.348  0.1122 -0.0306 -0.0809
27048W        W44572   1.992   1.002  16.751  0.2293  0.0462 -0.2098
27049W        W44573   9.870   5.385  12.591 -0.0021 -0.2215  0.3748
27050W        W44574   0.226   2.571  12.527  0.0635 -0.2383  0.0138
27051W        W44575  16.141   6.160  11.522  0.2121 -0.3840 -0.1108
27052W        W44576  12.746   8.842   4.999 -0.0337 -0.0359  0.0390
27053W        W44577  14.470  11.770   1.846  0.2987  0.1795 -0.0982
27054W        W44578   7.514  15.434   5.456 -0.0025 -0.1573 -0.0265
27055W        W44579   2.450   8.138   4.319  0.0294 -0.0050 -0.2627
27056W        W44580   8.738   7.758   4.830 -0.2070 -0.0382  0.0996
27057W        W44581  16.680  12.773  15.089  0.0905 -0.1451 -0.1472
27058W        W44582   3.016   9.550  12.910  0.0626 -0.2951 -0.1216
27059W        W44583  10.216  16.651  14.846  0.1836  0.0183  0.1449
27060W        W44584  17.100   8.492  16.271  0.1767 -0.0770  0.1219
27061W        W44585   7.652  13.483   2.111  0.3660 -0.1433 -0.2035
27062W        W44586   2.587  10.826   5.935 -0.0156  0.1285 -0.0697
27063W        W44587  11.238  13.100   3.542  0.1569 -0.0129 -0.1448
27064W        W44588   2.372  10.874   1.687  0.1004  0.0248  0.0880
27065W        W44589   4.818   5.387   3.059 -0.1670 -0.1446 -0.2839
27066W        W44590  13.550   6.036  13.004 -0.0204 -0.0465  0.0268
27067W        W44591   3.260   2.442   3.940 -0.0700 -0.0259 -0.5031
27068W        W44592   5.870   1.256  12.214 -0.0267  0.3018  0.2981
27069W        W44593  15.442  15.703  15.091 -0.0219 -0.1922 -0.0228
27070W        W44594   8.076   9.377  16.395 -0.0582  0.0086 -0.1962
27071W        W44595   6.684  15.295  14.348 -0.0154  0.1076 -0.3100
27072W        W44596  11.371   5.628   2.610  0.1430 -0.1607  0.1821
27073W        W44597  13.232  11.602   5.425  0.0336  0.0732 -0.0090
27074W        W44598   6.382   7.108  13.949 -0.0730  0.2221  0.1532
27075W        W44599   4.359  14.212   4.713 -0.0648  0.2707 -0.0345
27076W        W44600   8.373  11.881   1.368 -0.0219  0.1822 -0.2071
27077W        W44601   9.063  14.573  14.432 -0.1363 -0.1509 -0.2482
27078W        W44602  14.112   3.091   0.860 -0.1130 -0.0230  0.0952
27079W        W44603   2.928   5.325   0.347  0.1934  0.3286 -0.3037
27080W        W44604   9.378  16.537  15.870  0.0377 -0.0098 -0.0214
27081W        W44605  11.779   1.399   5.256 -0.0883 -0.0618  0.1719
27082W        W44606  15.565  13.927  16.828 -0.0199 -0.2343  0.4395
27083W        W44607  13.181   0.129   2.816  0.0623  0.2304 -0.7698
27084W        W44608  13.992  12.637  14.561  0.2393 -0.0901 -0.0610
27085W        W44609   1.379   3.204  12.471  0.1481  0.0766 -0.0804
27086W        W44610  11.013   7.778  14.895  0.1118 -0.1539 -0.3057
27087W        W44611  11.517   6.772  14.323  0.0633 -0.0986 -0.0833
27088W        W44612  10.825  12.304  13.939  0.1684 -0.1727  0.1325
27089W        W44613  11.901   0.632  13.966 -0.2245 -0.0458 -0.2436
27090W        W44614   4.515   1.641   5.461 -0.0327  0.2464  0.0494
27091W        W44615  13.573   6.422  15.319  0.1837 -0.3468  0.0687
27092W        W44616   3.950  11.653  13.220 -0.2081 -0.1115  0.4798
27093W        W44617  12.103  10.429  13.311 -0.1785 -0.1158  0.0576
27094W        W44618   2.014   4.547   4.100  0.0090  0.0751 -0.3084
27095W        W44619  14.976   4.338   2.912  0.2409 -0.0565  0.1548
27096W        W44620   7.416   9.752   2.051 -0.3574  0.1303 -0.0070
27097W        W44621  15.210   4.429   4.709 -0.0315 -0.2437 -0.2616
27098W        W44622  13.309  10.769  16.416 -0.0784  0.0112  0.2537
27099W        W44623  12.308   6.695  12.086 -0.0017  0.0056 -0.3935
27100W        W44624  11.800   0.037   3.343 -0.3327  0.1498 -0.1599
27101W        W44625  10.285   7.683   3.230  0.2273  0.0300 -0.0650
27102W        W44626  15.862   5.910  15.374  0.2877  0.1160 -0.2352
27103W        W44627  16.596  17.156  17.357 -0.1169 -0.1353  0.1479
27104W        W44628  10.741  15.924  16.584  0.1725 -0.0812 -0.0848
27105W        W44629  12.287   3.626   5.598  0.2418  0.2051 -0.3864
27106W        W44630   9.106  16.205   1.043 -0.0239 -0.1848 -0.2616
27107W        W44631   6.472  14.109   1.951  0.0944 -0.0312 -0.1988
27108W        W44632   1.493  16.083   1.529  0.2383  0.0411 -0.1150
27109W        W44633  13.465   8.529  13.124  0.0374 -0.2011 -0.2677
27110W        W44634  12.428   5.336  13.719  0.2548  0.2992  0.1332
27111W        W44635  13.193  15.221  16.892 -0.1505  0.3202 -0.1382
27112W        W44636  16.210   1.045   1.438  0.0456 -0.1542 -0.1317
27113W        W44637  14.352   3.095   2.785  0.1181 -0.1270  0.0202
27114W        W44638   9.462  11.944  13.763  0.1008 -0.0882  0.1596
27115W        W44639   9.345  11.771   3.597  0.0245  0.0583  0.0455
27116W        W44640  14.574   3.756   3.803  0.0255  0.0426 -0.0104
27117W        W44641  15.911  14.139  13.733 -0.1856 -0.0877 -0.1172
27118W        W44642   7.959  12.871  15.458 -0.1762  0.3017 -0.1648
27119W        W44643  12.334  12.304  16.864  0.2036 -0.0102  0.3320
27120W        W44644   5.081   0.398  12.256 -0.1031 -0.2370  0.1384
27121W        W44645  16.272  16.902  15.056 -0.1031 -0.0031 -0.0018
27122W        W44646   7.659  10.045   3.360  0.2155 -0.3056 -0.2421
27123W        W44647  16.674   3.007  11.921  0.3688  0.1135  0.0151
27124W        W44648  16.163  12.102  12.232  0.0314  0.1115 -0.0113
27125W        W44649  11.032  14.407   1.028  0.0963  0.0067  0.1332
27126W        W44650   0.484   4.069  17.544 -0.0199  0.0624  0.2128
27127W        W44651   0.378  10.768   5.601 -0.0254  0.2969 -0.0568
27128W        W44652  10.088   5.810   3.331  0.2204  0.1608 -0.0141
27129W        W44653   9.559   1.794   1.373 -0.3401 -0.3024  0.0540
27130W        W44654  11.408   0.435   0.794  0.0242  0.1765  0.1437
27131W        W44655   8.204   3.025   1.818  0.0532  0.2195 -0.1606
27132W        W44656   9.302  10.225  14.787 -0.1895 -0.1709 -0.1741
27133W        W44657  10.260   8.408  14.644  0.0224  0.0559  0.3064
27134W        W44658  17.075  13.866  12.240  0.2054  0.1096 -0.4142
27135W        W44659  10.854   2.191   1.102  0.2327  0.1490 -0.1415
27136W        W44660  14.034  10.462  15.721  0.1125 -0.0648  0.1350
27137W        W44661   9.875  15.616   5.220  0.2908 -0.0214  0.0434
27138W        W44662   5.347   0.822   3.962 -0.1369 -0.1210  0.0106
27139W        W44663  13.346   3.453   5.610 -0.0061 -0.2944 -0.2709
27140W        W44664   5.414  15.133   1.707  0.0941 -0.0437  0.2365
27141W        W44665  10.296  13.867   0.803  0.1530  0.0944 -0.2321
27142W        W44666   9.529   0.972  13.091 -0.2038 -0.0448  0.1130
27143W        W44667  12.126  13.890   5.415  0.0997 -0.0949 -0.3509
27144W        W44668   4.898  11.588  13.718  0.0627 -0.2703  0.0645
27145W        W44669  11.731   9.674   1.849  0.1263 -0.2549 -0.2495
27146W        W44670  11.549  12.444  14.234 -0.1821 -0.4773  0.4002
27147W        W44671  15.332  12.959  17.144  0.0153  0.0087  0.1851
27148W        W44672   4.061  11.930  15.319  0.0013 -0.0425  0.1504
27149W        W44673   4.908   1.082  16.902  0.0610 -0.1808 -0.2657
27150W        W44674  14.893   7.211   2.855 -0.0225 -0.1526  0.0652
27151W        W44675  15.102   1.216   5.738  0.0272  0.0674  0.0217
27152W        W44676   3.541   7.159  16.213  0.3057 -0.0190 -0.4212
27153W        W44677   5.236   1.992  12.796  0.0218  0.0232 -0.1169
27154W        W44678   1.383   3.069   1.185 -0.3084 -0.0605 -0.0184
27155W        W44679   5.829   5.739  13.815 -0.1810  0.1024  0.0395
27156W        W44680   7.534   9.952  17.234 -0.1429 -0.0189  0.0698
27157W        W44681   0.589   5.469   1.794 -0.0688 -0.0819 -0.1551
27158W        W44682   8.389   6.247   2.898 -0.1561 -0.1651 -0.1932
27159W        W44683  12.320   2.566  16.872  0.2841  0.0306 -0.1754
27160W        W44684  15.827  10.726  12.916  0.0987 -0.0386 -0.2549
27161W        W44685   2.924   6.957   1.552 -0.3632  0.0124  0.0067
27162W        W44686   7.251  16.810  15.632  0.2511  0.1890  0.2462
27163W        W44687   7.861   2.879  16.108 -0.1435  0.2240  0.0788
27164W        W44688   6.257   6.044   2.839 -0.1260 -0.1285  0.1988
27165W        W44689   6.876  16.456  15.593  0.1373  0.1127 -0.4755
27166W        W44690  14.601  10.310  17.222  0.1024  0.0414 -0.0421
27167W        W44691   8.556   6.175   2.423 -0.2789  0.0018 -0.0426
27168W        W44692   8.719  13.403   5.102  0.1616  0.1297  0.3831
27169W        W44693  10.020  15.631  15.988  0.0052 -0.2425 -0.3307
27170W        W44694  16.159   6.126  14.976 -0.0405 -0.2732 -0.1286
27171W        W44695   1.659  12.722  14.840 -0.4654  0.0057  0.1013
27172W        W44696  16.910  10.334   0.839  0.3811 -0.0431 -0.0560
27173W        W44697   5.698   4.092  16.365  0.0486  0.2858  0.0109
27174W        W44698   8.931  11.202  13.069  0.0698 -0.1516  0.2202
27175W        W44699  15.524   9.789   3.918  0.1461 -0.1691 -0.2268
27176W        W44700  13.932   1.320  12.340 -0.2607 -0.0041  0.4123
27177W        W44701  17.132  15.956  16.991  0.1396 -0.1468 -0.0040
27178W        W44702  16.835   8.945  16.672 -0.0294 -0.1700 -0.0469
27179W        W44703  12.134  16.529  17.250 -0.0832 -0.1276 -0.3697
27180W        W44704   3.639  16.683   0.389 -0.0794 -0.1563  0.2345
27181W        W44705  15.337   7.193  13.750 -0.1644  0.0806  0.0390
27182W        W44706  11.280   8.494  15.426 -0.0534  0.0401 -0.2195
27183W        W44707   8.679  16.323   0.732  0.2132 -0.1183 -0.2963
27184W        W44708  16.793   2.413  15.756  0.2702 -0.3743  0.0478
27185W        W44709   1.053   4.701   4.265  0.0499  0.1351 -0.0616
27186W        W44710  13.622   6.440  16.024 -0.2067  0.1301  0.1356
27187W        W44711   5.913  15.830  12.869  0.0225 -0.2055 -0.1385
27188W        W44712  14.152  11.762  16.840 -0.1492  0.0229  0.2793
27189W        W44713   2.430   9.914  13.547  0.1696 -0.0517 -0.2213
27190W        W44714  12.569  10.640   4.124 -0.1916 -0.1354  0.2301
27191W        W44715   3.919   9.864  14.122 -0.1289 -0.0777 -0.1377
27192W        W44716   9.051   3.138  13.636 -0.3391 -0.1537 -0.1081
27193W        W44717   6.280   1.694   3.400  0.3089  0.1057 -0.0073
27194W        W44718  10.847   7.025  12.702 -0.3514  0.1727  0.1009
27195W        W44719   4.823   8.194  13.807  0.1881 -0.3292  0.0690
27196W        W44720  10.202  16.379   5.855  0.0204 -0.0544 -0.2177
27197W        W44721  16.810   9.811   2.022 -0.0201  0.0389 -0.1797
27198W        W44722  13.296   2.868   3.418  0.0355  0.0449 -0.0419
27199W        W44723   6.548   3.408   5.228 -0.0828  0.3721  0.1492
27200W        W44724   7.150   9.467  15.052 -0.1055 -0.0149 -0.0321
27201W        W44725  15.041  10.735   2.855  0.0584  0.1010 -0.1846
27202W        W44726  15.274   6.126  11.815  0.0156  0.1092 -0.0631
27203W        W44727   8.063  11.243   4.813  0.1003 -0.0768 -0.1250
27204W        W44728   9.142  14.369   4.189 -0.1205  0.0170 -0.0647
27205W        W44729   9.035   4.045   4.952  0.0529 -0.1478  0.1106
27206W        W44730  11.569   4.114  14.281  0.3707 -0.0702  0.0250
27207W        W44731  10.142   1.084   3.062 -0.1840 -0.0185  0.2780
27208W        W44732   6.338  11.052  15.086  0.0676  0.2121 -0.2224
27209W        W44733   1.728  16.745  13.238  0.0324 -0.1086  0.1237
27210W        W44734  10.162   4.183   1.101 -0.0951  0.0027  0.4313
27211W        W44735   3.543  11.319  12.573 -0.0070 -0.1950  0.0723
27212W        W44736  15.822   2.990   2.123  0.1791 -0.1147  0.1226
27213W        W44737   4.019  12.052   4.954  0.1527 -0.1456 -0.2567
27214W        W44738  12.100  16.675   0.072  0.1337  0.2263  0.1837
27215W        W44739   1.361   4.866  16.866  0.3590 -0.2177  0.0155
27216W        W44740   2.249   1.720   4.197  0.1460 -0.1199  0.2061
27217W        W44741   2.523   8.594   2.976  0.0495 -0.2607  0.2050
27218W        W44742  12.339  16.643  13.482 -0.0532 -0.2461 -0.0811
27219W        W44743   3.011   3.259  13.611  0.0759 -0.1874  0.0193
27220W        W44744  11.973  16.087   3.092  0.0782  0.0446  0.1601
27221W        W44745   8.639  10.423   0.415  0.3289 -0.1177  0.1582
27222W        W44746  15.838   6.346   3.095  0.2042 -0.1059 -0.1391
27223W        W44747   7.635   1.650  17.643 -0.1201  0.1057 -0.1465
27224W        W44748  13.819   8.067   0.437 -0.2327  0.0208  0.1850
27225W        W44749  12.135   2.694   4.067 -0.1909  0.0145 -0.2277
27226W        W44750   9.996  15.496  16.457 -0.1599 -0.0230 -0.0221
27227W        W44751   7.179  15.580  13.538  0.1287  0.0089  0.0440
27228W        W44752   8.602  14.035   5.466 -0.0579 -0.0378 -0.0385
27229W        W44753   6.683  10.139  16.151 -0.2253 -0.0832 -0.0052
27230W        W44754   2.080   5.611   3.590  0.0354 -0.1324  0.0888
27231W        W44755   6.243   2.616  15.250 -0.2000  0.0059 -0.1168
27232W        W44756   6.711   4.572   2.492  0.0339  0.2303 -0.0367
27233W        W44757   0.870   3.717  13.151 -0.0026 -0.0365  0.0641
27234W        W44758  11.058  11.574  16.860 -0.0058  0.0791  0.1079
27235W        W44759  16.914   6.755   2.472  0.2444 -0.0133  0.0523
27236W        W44760  11.658  16.541   2.478  0.4172 -0.1612 -0.0410
27237W        W44761   6.621  11.879   3.067 -0.2490  0.0836 -0.3311
27238W        W44762   0.234   3.835  13.379 -0.2447 -0.2284  0.5074
27239W        W44763  16.934  15.549  16.060  0.1291  0.0103  0.4087
27240W        W44764   1.001  15.289   4.136  0.2006  0.0122 -0.2823
27241W        W44765   7.665   7.093   4.356 -0.1517 -0.1361  0.1019
27242W        W44766   5.498  15.675  17.437  0.0757 -0.1102  0.0033
27243W        W44767   9.887   4.908  13.950 -0.2533 -0.1590  0.0753
27244W        W44768  15.882  11.604   5.105  0.3436  0.1841  0.4285
27245W        W44769  10.148   7.743  15.392 -0.1870  0.0587  0.1776
27246W        W44770   8.149   2.752   3.630 -0.1316  0.0246  0.0480
27247W        W44771   1.121   8.544   0.819 -0.2060 -0.0453 -0.0797
27248W        W44772   3.834   8.268  14.022 -0.0161 -0.0007 -0.0441
27249W        W44773   4.911  13.565   1.988 -0.2145 -0.0962 -0.0053
27250W        W44774   4.398  11.904   2.067 -0.1282  0.0002 -0.1208
27251W        W44775   0.151   4.818  12.652 -0.2863  0.0619  0.0986
27252W        W44776   0.721   2.088  13.440 -0.5050 -0.1676  0.1706
27253W        W44777  15.163  17.049  15.147  0.0294  0.2335  0.0191
27254W        W44778  14.799  10.431  14.937  0.2035 -0.1257  0.1183
27255W        W44779   0.924  14.065  13.901  0.2389 -0.1712 -0.2010
27256W        W44780   1.084   0.229  17.556  0.3084  0.0044  0.0077
27257W        W44781   6.543  10.498   2.182  0.2363  0.0658 -0.1653
27258W        W44782   8.787  16.707   4.789 -0.0321  0.3525 -0.0556
27259W        W44783   6.122  14.972   4.408 -0.3336 -0.1520  0.0500
27260W        W44784   8.364  17.060   1.014  0.3094 -0.0094 -0.0127
27261W        W44785   3.315  16.238   0.502 -0.1003  0.2605 -0.1519
27262W        W44786  15.365   0.360  13.397  0.1064  0.2816 -0.0535
27263W        W44787  14.781   1.301  17.303  0.1423  0.2228 -0.0519
27264W        W44788  10.024   8.579   5.593  0.0522 -0.2600  0.0056
27265W        W44789   5.177   6.062  15.855 -0.1937  0.0099 -0.0444
27266W        W44790   0.454   7.368  16.764  0.1051 -0.1269 -0.0522
27267W        W44791   9.012   9.122  17.635 -0.0404 -0.1338 -0.1018
27268W        W44792   3.781  11.116   1.160  0.1718 -0.1393  0.0384
27269W        W44793  13.226  11.335   4.235 -0.2273  0.1651 -0.2280
27270W        W44794  13.794  16.342  16.359 -0.1491 -0.0396 -0.2225
27271W        W44795   2.843  15.417   4.474 -0.1431  0.2816  0.1850
27272W        W44796  10.638  14.592  15.400 -0.0053  0.1385 -0.2003
27273W        W44797  16.591   7.364   0.711 -0.0680  0.3260 -0.1732
27274W        W44798   7.237   0.892   5.000  0.0283 -0.1231  0.0361
27275W        W44799   3.052  15.959  15.272  0.0127 -0.1097 -0.0771
27276W        W44800   7.573   3.990  11.901 -0.1746  0.1492 -0.1184
27277W        W44801  13.004   2.588   3.902  0.1991 -0.1186 -0.1057
27278W        W44802  13.103  12.743   4.234 -0.2375  0.0733  0.1293
27279W        W44803  15.891  17.153   3.160  0.0009 -0.2566 -0.2346
27280W        W44804  14.875   3.837  17.040 -0.1012  0.1179  0.2712
27281W        W44805   1.344  15.548   1.592  0.0216  0.0383 -0.4887
27282W        W44806  16.039  12.690  14.390 -0.0247  0.0962 -0.1081
27283W        W44807   9.514   4.812   1.595 -0.0407 -0.0480 -0.1449
27284W        W44808   0.209   8.866   4.152 -0.1101 -0.0146  0.0850
27285W        W44809  15.635   8.740  12.393  0.0311 -0.1364  0.0389
27286W        W44810  11.701   1.503  12.976 -0.1201  0.3201  0.0682
27287W        W44811   4.605  12.971   5.707 -0.5068  0.1202 -0.0510
27288W        W44812   5.858   0.307  15.333 -0.0182 -0.1442  0.0816
27289W        W44813   1.800   6.910   3.574  0.0336  0.2790  0.1478
27290W        W44814   6.380  12.444   3.740  0.0112 -0.0277 -0.1428
27291W        W44815  11.289  10.732   1.076  0.2218 -0.0419  0.1637
27292W        W44816  11.120   0.079  16.708 -0.1809 -0.0414  0.1373
27293W        W44817   9.048   0.749  15.349  0.1255 -0.0209 -0.2741
27294W        W44818   6.614  16.780  12.485 -0.1812 -0.1289  0.2908
27295W        W44819  12.295  15.024   4.912 -0.1007 -0.1197  0.2285
27296W        W44820   1.920   0.489  13.218 -0.1864  0.3417  0.1684
27297W        W44821   8.853   8.605   4.756 -0.0154 -0.1818  0.0150
27298W        W44822  13.898   5.841  16.969 -0.0027 -0.3893  0.1784
27299W        W44823   5.231  15.453  14.630  0.3560 -0.0341 -0.1723
27300W        W44824   7.985  15.120  12.511 -0.0601  0.0757  0.0175
27301W        W44825  15.147  11.385  16.658 -0.1246 -0.0220 -0.2742
27302W        W44826   1.210   8.209  15.999  0.0918  0.1742 -0.3961
27303W        W44827  15.011   2.872  13.443  0.2966  0.0964  0.2644
27304W        W44828  11.653  11.193   4.819 -0.2705  0.1360 -0.0914
27305W        W44829   6.884   7.059  16.254 -0.1083 -0.2783  0.2894
27306W        W44830   0.126   5.055  13.551  0.0370 -0.2022 -0.3440
27307W        W44831  16.980  10.317  13.057 -0.2331  0.1252  0.3676
27308W        W44832   1.702   0.600  15.341 -0.0708 -0.1344 -0.1271
27309W        W44833   9.957   8.753   2.825 -0.0154 -0.0780 -0.2628
27310W        W44834   2.043   6.113   3.517  0.1980 -0.0482  0.0653
27311W        W44835  15.322   7.755   0.080 -0.2531 -0.3444  0.0343
27312W        W44836   4.226   7.857   0.486 -0.2487 -0.0047 -0.1189
27313W        W44837  10.737   4.607  17.561  0.1256 -0.1985  0.0986
27314W        W44838  12.459  13.594   4.319 -0.2458 -0.0390  0.1151
27315W        W44839  14.022   7.694   3.325  0.2685  0.0514  0.0010
27316W        W44840   1.868   8.552  11.621  0.2510 -0.0345  0.0890
27317W        W44841   3.273  13.080   0.355  0.0378 -0.1796  0.0243
27318W        W44842  10.215   0.617   3.274 -0.1969 -0.2266 -0.0710
27319W        W44843  14.687   3.469  15.668 -0.4272 -0.0115  0.1232
27320W        W44844  10.918   3.994  13.677 -0.1002 -0.1274  0.1752
27321W        W44845  15.677  13.486   5.009  0.0309 -0.1495 -0.0748
27322W        W44846   8.951  10.451   3.905  0.0447  0.1335  0.0218
27323W        W44847   2.006  15.081   4.169 -0.2846  0.4468  0.1674
27324W        W44848   8.026   6.531  14.806  0.0039 -0.2815  0.0426
27325W        W44849   9.359   2.078   4.229 -0.2352  0.0467 -0.0890
27326W        W44850  16.423   0.146  16.332 -0.3720  0.0520 -0.0502
27327W        W44851   0.480  12.514  11.930 -0.2002  0.1382 -0.0817
27328W        W44852   0.243   3.306  11.974 -0.3748  0.3043  0.0015
27329W        W44853  15.513   4.236   2.957 -0.3221 -0.2193  0.0904
27330W        W44854   4.184   5.278  13.632  0.3599 -0.1663  0.1834
27331W        W44855   2.282  10.772  13.021 -0.1857 -0.1114  0.0981
27332W        W44856  10.370   8.009   2.275  0.1693  0.2466 -0.1037
27333W        W44857   1.126   4.135   3.960 -0.2060  0.1217 -0.3461
27334W        W44858   0.801  15.772   5.100  0.2760 -0.0186  0.1070
27335W        W44859   0.891   6.819  17.108 -0.0082 -0.1307 -0.0494
27336W        W44860   6.459   2.498  16.592 -0.3234  0.0592  0.1145
27337W        W44861  11.441  10.017  16.841  0.0575  0.0600  0.0236
27338W        W44862   2.546  14.389   3.685 -0.2940  0.0954 -0.1681
27339W        W44863   2.166  13.810   4.551 -0.1683 -0.0197 -0.1259
27340W        W44864   1.207  12.244   2.518 -0.2096  0.0607  0.1487
27341W        W44865  11.515  14.275   0.549 -0.0072 -0.0788  0.0648
27342W        W44866   1.311   2.747   2.259  0.0438 -0.0409  0.1736
27343W        W44867   4.560  14.175  14.423  0.3707 -0.0395  0.2738
27344W        W44868  16.300   4.776   3.260  0.0113 -0.0434  0.0711
27345W        W44869   2.827   8.980  12.794  0.2345 -0.2093  0.1563
27346W        W44870   4.818  11.153   4.472  0.1623 -0.0542 -0.1996
27347W        W44871   9.761  12.026  15.197  0.2198 -0.2562 -0.0255
27348W        W44872   7.412   0.446  15.489  0.1893  0.1453  0.3551
27349W        W44873   9.515   9.470   5.113 -0.2930  0.0433  0.2616
27350W        W44874   1.349   7.948   3.546 -0.1288  0.0418 -0.0795
27351W        W44875  17.004   7.398  15.218 -0.0942  0.0666  0.2047
27352W        W44876  13.291  16.264  16.605 -0.0496  0.0197 -0.0559
27353W        W44877  12.168   9.104   1.437 -0.1869  0.0483 -0.0603
27354W        W44878   8.230  10.278   2.264  0.0989  0.0686  0.1268
27355W        W44879  15.181  14.495   4.031  0.2077  0.2396 -0.1345
27356W        W44880   6.768   5.354  14.524 -0.3326  0.0163  0.1617
27357W        W44881  16.820  11.270   1.434 -0.2122 -0.3808  0.1483
27358W        W44882   9.858  13.637   0.501 -0.1279  0.2299  0.3780
27359W        W44883   5.002   4.952   3.377 -0.0503 -0.0751  0.1209
27360W        W44884   7.623   0.559   1.130  0.1324  0.1038  0.2048
27361W        W44885  16.012   4.181  17.093  0.3065 -0.2408  0.1271
27362W        W44886  11.934  16.528   3.885 -0.0390 -0.1682  0.2404
27363W        W44887   2.597   9.619   3.363 -0.5988  0.0900  0.1987
27364W        W44888   0.681  11.427  15.028 -0.0879  0.3341 -0.1559
27365W        W44889  12.726   5.461  12.943 -0.0595  0.2576  0.0638
27366W        W44890   3.826   4.474   4.131  0.2296 -0.2786 -0.0642
27367W        W44891  15.075  11.191  13.881 -0.1271  0.0288 -0.1887
27368W        W44892  15.360   3.865  12.624  0.0941 -0.1855 -0.1814
27369W        W44893  15.187   4.415  13.598  0.0772 -0.0178 -0.0175
27370W        W44894  16.168   1.018  14.180  0.2147  0.1861 -0.0375
27371W        W44895   1.604  10.592   5.815  0.1203 -0.3943 -0.2767
27372W        W44896   4.308   2.289   0.675  0.1537  0.2562 -0.1496
27373W        W44897   3.754  16.496   4.590  0.2051  0.0168 -0.4613
27374W        W44898  14.460  16.870  13.585 -0.0059  0.1244 -0.0503
27375W        W44899   2.662   4.002  12.538 -0.0125 -0.0948 -0.0394
27376W        W44900  11.977   7.600   0.306 -0.0660 -0.1673 -0.2553
27377W        W44901   2.070  16.248   0.742 -0.0191 -0.0788  0.5375
27378W        W44902  14.674  11.781  15.420 -0.0863 -0.0067  0.0298
27379W        W44903  12.680   8.273  14.360 -0.0687 -0.0414 -0.1829
27380W        W44904   2.719   6.681  12.446 -0.0939 -0.0250  0.0041
27381W        W44905   0.654   7.992  13.169 -0.1197  0.4954 -0.0699
27382W        W44906   7.451   7.487   5.209 -0.2537 -0.2378  0.0944
27383W        W44907   8.754  16.653  17.052  0.0297  0.1030  0.1944
27384W        W44908   0.971  13.626   1.602  0.2737  0.2076  0.0580
27385W        W44909   1.620   1.505  15.347  0.1220 -0.0535  0.1962
27386W        W44910   6.000  12.975   6.439  0.0240 -0.1097 -0.2901
27387W        W44911   5.967   4.479  16.530 -0.0458 -0.0959 -0.0334
27388W        W44912   5.490   3.249   3.700  0.1481  0.1948 -0.1458
27389W        W44913  13.380   3.273   3.036  0.0535 -0.2057  0.1211
27390W        W44914  13.922  13.351   2.389 -0.1971  0.0615  0.0658
27391W        W44915  13.905  13.697   0.439 -0.2021 -0.1955 -0.1346
27392W        W44916   8.365  14.949   2.581  0.2765  0.0311 -0.2720
27393W        W44917   7.440   2.463   1.937 -0.1202 -0.0492 -0.4118
27394W        W44918   7.776   8.965   0.997  0.0214  0.3568 -0.0145
27395W        W44919  12.769  13.672   3.939  0.1478 -0.1379  0.0133
27396W        W44920   6.236  13.570   3.507 -0.4163  0.2823 -0.0431
27397W        W44921  17.072   1.390  14.983  0.0127  0.1382 -0.0250
27398W        W44922   5.960   8.584  16.470 -0.1929  0.0534  0.0648
27399W        W44923  11.157   8.838  14.817  0.2659 -0.2131  0.0644
27400W        W44924   0.798  10.626  12.370  0.2764  0.0635  0.0742
27401W        W44925   4.747  10.998  17.528 -0.0239  0.2215  0.2921
27402W        W44926  16.825   3.988  16.011  0.0722  0.0386  0.0437
27403W        W44927   3.920   4.984   0.496  0.2838 -0.1391 -0.0774
27404W        W44928   5.901  11.105   1.291  0.0080 -0.1200  0.0360
27405W        W44929  16.347   3.827   2.028 -0.1435 -0.1041 -0.1940
27406W        W44930   9.005   9.807  15.647 -0.0118 -0.0753 -0.2583
27407W        W44931  12.598  16.109   3.238  0.0092 -0.0524 -0.1315
27408W        W44932   1.670   2.256  17.008  0.0057 -0.2596  0.0426
27409W        W44933  11.989   7.892  12.478  0.0644  0.0630  0.2163
27410W        W44934  16.952  11.259  15.976 -0.0606 -0.4174  0.0733
27411W        W44935  16.438  11.967   2.630 -0.1404  0.1522  0.0659
27412W        W44936   8.135   7.930   4.475 -0.0121 -0.0406  0.1275
27413W        W44937  11.357   9.626   6.346 -0.3143  0.3332  0.1417
27414W        W44938   7.790  13.212   3.041  0.1106 -0.2009 -0.0165
27415W        W44939  16.357   2.211   4.223  0.5081  0.1448  0.2673
27416W        W44940   7.379   1.881   0.639  0.4170  0.1164  0.3837
27417W        W44941  12.007   8.921  12.894 -0.0974 -0.1966 -0.2324
27418W        W44942   2.953   1.074  15.352 -0.0053 -0.1165 -0.3042
27419W        W44943   0.761   6.045   4.380 -0.0831 -0.0510  0.0819
27420W        W44944   0.084   3.006   1.911 -0.1058 -0.2169 -0.0921
27421W        W44945   8.985   8.138   4.517  0.0818  0.0703 -0.2727
27422W        W44946   1.677  13.313  14.895  0.2580 -0.2134 -0.2933
27423W        W44947  13.982  13.236  12.909 -0.2634 -0.2294 -0.2142
27424W        W44948   6.668   0.814   2.049 -0.1211  0.0476 -0.0973
27425W        W44949   5.944  16.289  15.315  0.1053 -0.3765 -0.0275
27426W        W44950   3.284  15.333   4.729 -0.3702  0.1100 -0.1966
27427W        W44951  16.867   7.085   2.889  0.0466  0.1061 -0.1748
27428W        W44952  15.581  10.956   0.652 -0.1467  0.2036  0.0492
27429W        W44953  11.966   3.833   0.565 -0.4089  0.2074 -0.3594
27430W        W44954  15.226   8.098  14.096  0.1603  0.0126  0.1825
27431W        W44955  11.198   9.622  14.104 -0.0641  0.0608 -0.0763
27432W        W44956  12.819   7.327  16.571  0.0986 -0.0916  0.2420
27433W        W44957   9.311   6.082  17.036  0.1529 -0.0634 -0.2295
27434W        W44958   8.375  12.067   4.526 -0.2587  0.0104 -0.0890
27435W        W44959  10.765   8.135  16.494  0.2836  0.1003 -0.0047
27436W        W44960  13.039   3.928  14.711  0.2531 -0.1171 -0.0604
27437W        W44961   8.483  15.884   5.761 -0.0017 -0.0716 -0.3273
27438W        W44962   4.938  14.629  17.407 -0.0444  0.0761 -0.3835
27439W        W44963  14.237  17.154   4.907  0.0392  0.0790  0.1832
27440W        W44964   0.163   1.125  16.756  0.0635  0.0608  0.1043
27441W        W44965   8.797   4.711  12.697  0.0901 -0.0786  0.1552
27442W        W44966   5.047  11.259   4.915 -0.2677  0.2060 -0.1337
27443W        W44967   3.099  17.070  16.724 -0.1267 -0.0520  0.0320
27444W        W44968   0.072   8.623   3.721  0.2727 -0.3668  0.1276
27445W        W44969   0.785   4.301   2.430  0.3299 -0.2233 -0.0252
27446W        W44970  11.213   1.298   0.768 -0.3294 -0.0297 -0.0715
27447W        W44971   7.489   2.592   2.898  0.2231 -0.0836  0.1772
27448W        W44972  11.455  16.638  13.533 -0.1884 -0.0374 -0.1771
27449W        W44973  10.246   1.376   5.476 -0.2324  0.2151 -0.1584
27450W        W44974  16.295   9.475  11.019  0.3003 -0.3091 -0.0151
27451W        W44975  10.434   6.982   1.959  0.0794 -0.2349  0.1356
27452W        W44976  12.725   5.664  16.774  0.1609 -0.0896 -0.1451
27453W        W44977  11.045  12.928  14.672  0.0961  0.0127  0.2963
27454W        W44978   1.763  11.573  16.699 -0.1700 -0.1366  0.2323
27455W        W44979   1.367  16.284  15.509  0.2936 -0.1957 -0.4771
27456W        W44980  16.411   2.350   3.249 -0.1684 -0.1059 -0.0711
27457W        W44981   6.888  16.251   2.839  0.0819 -0.1759 -0.0071
27458W        W44982  11.521   0.473  15.716 -0.0560 -0.3441 -0.0196
27459W        W44983   7.836  16.194  16.506  0.0678 -0.0303  0.0446
27460W        W44984  11.555  12.853   4.741  0.0302  0.0154 -0.1528
27461W        W44985   6.235  10.710   1.305  0.0514  0.3696  0.0899
27462W        W44986  17.132   6.181   4.170  0.0262 -0.0107  0.3307
27463W        W44987  11.524  14.574   0.073 -0.0026 -0.3405 -0.1566
27464W        W44988   0.522   9.684  17.590  0.1477 -0.3861 -0.0939
27465W        W44989  16.916   2.635   0.089  0.0101 -0.1769 -0.1267
27466W        W44990  12.691   6.792   0.738  0.2850 -0.0833  0.3003
27467W        W44991   5.301   0.802  14.135 -0.2288  0.0889  0.2465
27468W        W44992   1.636   0.549   2.581 -0.1245 -0.0542 -0.0659
27469W        W44993  13.112   4.652   4.836 -0.1424 -0.1674  0.0354
27470W        W44994   0.223  13.591   2.499  0.0129  0.0235 -0.0341
27471W        W44995   1.944  10.813  12.037  0.0396  0.0799 -0.0409
27472W        W44996  17.033   1.477   0.582  0.0293 -0.0251 -0.0047
27473W        W44997  13.203   1.044   2.811  0.2355  0.0469 -0.1274
27474W        W44998   6.844   6.486   0.859 -0.3297  0.1361 -0.3514
27475W        W44999  16.904  13.267   4.079 -0.0119  0.0485 -0.1295
27476W        W45000   1.774   1.471   1.499  0.2372  0.0468  0.0668
27477W        W45001  12.895  16.334  16.895  0.1004 -0.0718  0.0143
27478W        W45002  16.459  16.698   5.453  0.1325 -0.0033  0.1647
27479W        W45003  13.803   4.513   3.537 -0.1580  0.1227 -0.0886
27480W        W45004  12.098  12.331   0.208  0.0937  0.0995 -0.2660
27481W        W45005  16.811   3.657   1.917 -0.1886 -0.0574 -0.3230
27482W        W45006   7.202   1.939   0.150 -0.4171  0.3334 -0.0883
27483W        W45007   3.101   3.199  12.444 -0.0164  0.3801 -0.4241
27484W        W45008   4.383   5.028   4.235  0.1668 -0.2572 -0.4506
27485W        W45009   2.944  12.400  13.996  0.1631 -0.1982 -0.1697
27486W        W45010   1.863   4.678   4.602  0.1216  0.1147  0.1808
27487W        W45011   6.843   7.051   1.667 -0.1679 -0.2911  0.2348
27488W        W45012  16.589   2.590   2.125  0.1120 -0.1628 -0.2753
27489W        W45013  10.638  11.906   3.206  0.2028 -0.1290  0.3208
27490W        W45014   4.462  13.890   0.029 -0.1118  0.0435  0.2048
27491W        W45015   4.341   2.530   3.046 -0.0679 -0.0939  0.0401
27492W        W45016   5.533   4.423   0.930 -0.0745 -0.4236 -0.2194
27493W        W45017   4.515  14.811   2.621 -0.1789  0.0804 -0.3683
27494W        W45018  16.975  16.174  13.777 -0.0326  0.3742  0.1114
27495W        W45019   0.259  15.961   1.181 -0.0640  0.0846 -0.1570
27496W        W45020  10.266   1.397   0.386 -0.2300 -0.1099  0.0699
27497W        W45021  15.706  14.361   0.788  0.1608 -0.0326  0.0172
27498W        W45022   9.475  14.652   4.069  0.0355 -0.0002 -0.1528
27499W        W45023   3.028  14.678   3.027  0.1197  0.0538 -0.2147
27500W        W45024   1.428   1.095  14.002  0.0911  0.2533 -0.1198
27501W        W45025   5.811  14.490  12.082 -0.0456  0.0059  0.0054
27502W        W45026   6.824   4.425   5.004 -0.2653  0.2096  0.1911
27503W        W45027   5.306   5.524   6.503  0.2929 -0.1407  0.1263
27504W        W45028   4.693   4.772  12.180  0.3277 -0.2012 -0.3675
27505W        W45029   9.650  14.278  14.400  0.0522  0.1740 -0.0072
27506W        W45030  14.085  11.394   0.732 -0.2035  0.1926  0.1802
27507W        W45031   8.610   3.165  13.958 -0.0440 -0.2168 -0.2931
27508W        W45032  12.735  10.829  17.638  0.0521 -0.0369 -0.0668
27509W        W45033   2.500   2.600   4.240  0.1271  0.0131 -0.0539
27510W        W45034   6.023  14.076   0.952 -0.1630 -0.0703 -0.0231
27511W        W45035  10.816   5.555  12.701  0.1799  0.1096  0.1265
27512W        W45036   6.328  13.079   0.068 -0.1009  0.2302 -0.1348
27513W        W45037   7.036  15.157  16.161 -0.0155  0.0020 -0.2108
27514W        W45038  15.842   4.884  12.425 -0.0975 -0.1582  0.1514
27515W        W45039  17.196  16.621   1.575  0.0091  0.1051  0.4025
27516W        W45040   7.746  15.809  16.237  0.4302  0.0566  0.0305
27517W        W45041  15.834  10.168   4.105  0.4206 -0.1533  0.0622
27518W        W45042   3.760  13.078   4.024 -0.1334 -0.1974 -0.0343
27519W        W45043   8.107  16.335  15.513 -0.0753 -0.1840 -0.0954
27520W        W45044   9.479   9.746  12.759  0.3292  0.0973  0.2518
27521W        W45045   9.371   4.454   5.733  0.1322 -0.1866  0.2809
27522W        W45046  14.333   9.951  12.083  0.0808  0.1682 -0.2827
27523W        W45047   2.237   6.483   4.247  0.1690  0.1066  0.1742
27524W        W45048  16.675  12.302   4.165 -0.0571  0.3603 -0.1089
27525W        W45049  15.136   8.487   0.694 -0.2240  0.0206 -0.2584
27526W        W45050   2.268   2.701  14.098  0.0689 -0.0692 -0.1919
27527W        W45051   5.268   8.562   0.771  0.1244  0.0194 -0.3940
27528W        W45052   2.291   7.164   0.204 -0.2320  0.2160  0.1363
27529W        W45053   5.988  11.905   0.698 -0.1966  0.1419  0.0483
27530W        W45054  13.896  14.342  12.765  0.1148  0.0360  0.0274
27531W        W45055  17.203  13.409  17.429  0.0131 -0.0903 -0.0471
27532W        W45056   9.099  17.196   1.519 -0.2790  0.0594 -0.0506
27533W        W45057  12.395   8.999  16.172 -0.1226 -0.0209 -0.2123
27534W        W45058  10.408  15.190  14.048 -0.0114 -0.2770  0.0159
27535W        W45059   0.118  16.566  13.798  0.0457 -0.2102 -0.0420
27536W        W45060   0.575   7.057   2.872 -0.1877 -0.0871  0.0052
27537W        W45061   7.696   2.318   0.495  0.0451 -0.0508  0.1629
27538W        W45062  16.613   1.660   0.369  0.0205 -0.1295 -0.1732
27539W        W45063   8.281   0.167   1.425 -0.0358  0.1983  0.0544
27540W        W45064  15.693  16.030  16.675 -0.0043  0.1556 -0.0852
27541W        W45065   6.799   8.102  14.863 -0.0903  0.1035  0.1045
27542W        W45066  14.610  12.512  16.926 -0.0174 -0.3499 -0.1710
27543W        W45067   7.849  12.179  12.365  0.1392 -0.2126 -0.0571
27544W        W45068  16.648   9.352   5.090 -0.2271 -0.0279 -0.2276
27545W        W45069   0.656   5.711   2.901 -0.0392 -0.0563  0.0183
27546W        W45070   9.912   7.720   1.378 -0.1681  0.1822  0.1621
27547W        W45071   0.240   1.944   0.824 -0.1370  0.1004  0.0980
27548W        W45072   7.719  11.178   3.208 -0.1390  0.2653  0.1667
27549W        W45073  12.434   8.226  15.036  0.4012 -0.0613 -0.1050
27550W        W45074  14.469  12.036   3.942 -0.0371 -0.3221  0.0201
27551W        W45075   1.990   8.175  15.370 -0.1567 -0.0757  0.1471
27552W        W45076   6.348   0.635   2.417  0.2108  0.0232  0.0329
27553W        W45077  10.839   8.257  13.240  0.1070  0.1524 -0.0243
27554W        W45078   4.235  14.932  13.426 -0.3286 -0.0719 -0.1180
27555W        W45079   7.813   1.843   0.455 -0.1153 -0.2680 -0.1068
27556W        W45080   4.404  15.276   3.922 -0.1693  0.0388 -0.0063
27557W        W45081  16.712   6.785  16.545  0.1694  0.1381 -0.0475
27558W        W45082   2.806   3.141  16.755 -0.1889 -0.0501 -0.1383
27559W        W45083  13.899   9.365  14.992 -0.1404 -0.0768 -0.5715
27560W        W45084  17.014   6.784   0.315  0.0643  0.0049 -0.2299
27561W        W45085   5.110  16.747  14.214 -0.1621  0.3484  0.0838
27562W        W45086  13.141   2.965   1.703 -0.1286 -0.1568 -0.0440
27563W        W45087   8.402   6.516   5.192  0.2535  0.0550  0.0863
27564W        W45088   8.029  14.647  15.187  0.0418 -0.1059  0.1177
27565W        W45089   3.067   6.186   1.494  0.3282 -0.1095 -0.1097
27566W        W45090   5.590   5.768   3.516 -0.3604  0.0345 -0.0438
27567W        W45091   1.287   4.591   4.923 -0.0986  0.0209 -0.0215
27568W        W45092   9.644   3.786  15.445 -0.1853  0.0957 -0.2326
27569W        W45093   3.934  14.134   3.101  0.0529 -0.1771  0.1188
27570W        W45094   0.360   9.031  11.946 -0.1376  0.1883  0.1883
27571W        W45095   4.635  14.405  12.986  0.3027 -0.1752 -0.0198
27572W        W45096   5.531  14.927  17.225  0.4122  0.0359 -0.2357
27573W        W45097   1.510   1.362  16.745  0.1815  0.0315 -0.0685
27574W        W45098  11.724   7.799   3.373  0.2200  0.2713  0.1786
27575W        W45099   4.526  16.815  15.670  0.0896  0.1329 -0.1863
27576W        W45100  12.649   3.594   2.351 -0.1966  0.1243 -0.0824
27577W        W45101   6.589   4.310  17.609  0.0976  0.1112 -0.0237
27578W        W45102   0.395  10.844  13.359  0.0193 -0.0573 -0.3072
27579W        W45103   8.483  16.654  12.489 -0.0344  0.4496 -0.2598
27580W        W45104   8.426  16.059   3.240 -0.1729 -0.0134 -0.0120
27581W        W45105   2.984  16.910   3.253 -0.0107  0.0000  0.1174
27582W        W45106  13.522  10.305   5.053  0.0901  0.3140  0.1272
27583W        W45107   1.314  15.239   4.675 -0.1101  0.0167 -0.3699
27584W        W45108  16.626   9.923   0.768  0.0254  0.3162  0.0139
27585W        W45109  10.627  14.238  14.445  0.1952 -0.1086 -0.2147
27586W        W45110   2.834   2.729   2.213 -0.0864 -0.0909 -0.2462
27587W        W45111  16.129   4.322  16.636  0.2752  0.0525 -0.0352
27588W        W45112   0.158   0.674  15.956 -0.1355 -0.0133 -0.1730
27589W        W45113  10.299  10.943  15.670  0.2370 -0.0312 -0.0024
27590W        W45114  12.760  15.189  16.076 -0.1952  0.2592  0.0863
27591W        W45115   9.234  10.470   1.901 -0.2061 -0.2113 -0.1879
27592W        W45116  10.447   3.978   3.842  0.1498  0.1322 -0.2323
27593W        W45117  10.461  11.495   3.043 -0.1607 -0.0001 -0.1692
27594W        W45118  11.122  17.146  15.330 -0.2342  0.2626 -0.2058
27595W        W45119  10.745  13.595   4.000 -0.2039  0.2017 -0.2387
27596W        W45120  14.306   4.515  17.478 -0.1499  0.1960 -0.2797
27597W        W45121  13.810  10.076   0.710  0.0443  0.0284  0.0613
27598W        W45122  10.510   5.561   5.441  0.1722 -0.0772 -0.3664
27599W        W45123   3.165   0.123   2.396  0.1952 -0.3410 -0.2276
27600W        W45124  17.022   3.467   4.467 -0.2896 -0.0055 -0.0610
27601W        W45125   3.698  14.930  14.838 -0.0098 -0.1200  0.1576
27602W        W45126   9.074   1.981   3.315  0.2433 -0.4788  0.2575
27603W        W45127  15.797   8.934   0.861  0.1208  0.0390  0.2169
27604W        W45128  10.071  11.839  16.047  0.0304 -0.0694 -0.3364
27605W        W45129   1.418  15.103   1.144 -0.0952  0.2387  0.2676
27606W        W45130   8.017  15.254   2.410  0.2007 -0.1996  0.2111
27607W        W45131   4.111  15.027   3.167 -0.1038  0.0694 -0.0734
27608W        W45132   0.934  12.818   2.688 -0.3008 -0.2476  0.0622
27609W        W45133  10.520   1.577  16.760 -0.2848 -0.2156 -0.0871
27610W        W45134   6.455   3.919  14.376  0.0472 -0.3239 -0.1826
27611W        W45135   5.261  15.262  13.017  0.2997  0.1650  0.0364
27612W        W45136  11.609   9.774  14.604 -0.3971 -0.0093  0.1638
27613W        W45137   4.459   7.293  16.275 -0.2235 -0.1019 -0.1185
27614W        W45138   3.660  13.370   0.237  0.0735 -0.1470 -0.0840
27615W        W45139   4.252   4.106  15.714  0.1083  0.1932  0.0897
27616W        W45140   6.981   9.113  12.286  0.1090  0.2353  0.2805
27617W        W45141  11.744  10.915  15.274  0.3302 -0.2512  0.0557
27618W        W45142   7.100  10.061   3.031  0.0265 -0.0811  0.1612
27619W        W45143  12.519  14.379  16.983  0.2344 -0.0190 -0.1820
27620W        W45144  13.743   6.771  14.743  0.0440 -0.4308 -0.0789
27621W        W45145  15.746   8.668  15.312 -0.1236 -0.1682  0.4275
27622W        W45146  16.299   7.482  17.312 -0.1651  0.0479 -0.3311
27623W        W45147   8.278   8.792  11.455  0.1006 -0.2903  0.0672
27624W        W45148   5.558  16.519   0.072  0.1954  0.1019  0.2153
27625W        W45149  15.796   5.549   2.994 -0.0803  0.0353 -0.1322
27626W        W45150   4.987  11.159  14.511 -0.0314  0.0336 -0.1100
27627W        W45151  11.154   1.397  14.181  0.3366 -0.1054  0.0415
27628W        W45152  11.139  13.346  12.944 -0.0077  0.0207 -0.0122
27629W        W45153   9.125   9.308  14.746 -0.1353  0.0478  0.2095
27630W        W45154  16.895  14.129  16.379 -0.0772 -0.0891 -0.1027
27631W        W45155  13.357  10.313  16.216 -0.0006 -0.1017 -0.1127
27632W        W45156   3.884  14.606   3.347 -0.0846 -0.0287  0.0865
27633W        W45157   1.411  16.934   5.142 -0.2149 -0.0803  0.0351
27634W        W45158  14.366   7.911   5.063 -0.1050  0.1201  0.4324
27635W        W45159  16.111   4.103  13.433  0.1371  0.1806 -0.0984
27636W        W45160  16.398  10.849  14.226 -0.2949 -0.1936  0.3373
27637W        W45161  12.191   4.632   3.097  0.3252  0.1656 -0.2391
27638W        W45162   6.947  11.732  13.784 -0.0796 -0.0182  0.0400
27639W        W45163   5.837  11.362   4.237 -0.1196  0.3142 -0.1330
27640W        W45164  16.209   6.086   3.531  0.2456  0.1441  0.0123
27641W        W45165  13.613  11.706  14.462  0.1931 -0.1520  0.1403
27642W        W45166   6.706  12.480   1.479  0.0908 -0.2268  0.2844
27643W        W45167   5.497  16.951   1.404  0.3118  0.0009 -0.0649
27644W        W45168   8.773  15.752  17.134 -0.0103  0.1450 -0.0113
27645W        W45169   8.159  13.231  12.587 -0.0623  0.3173 -0.1352
27646W        W45170  15.200   3.187   2.860  0.2454  0.3159  0.0355
27647W        W45171  13.742   7.887  13.748 -0.0401  0.0947  0.1906
27648W        W45172   8.290   5.161  16.343  0.4349  0.1485  0.0912
27649W        W45173   0.922   9.971  16.022  0.2171  0.0770  0.0230
27650W        W45174   0.889   3.769  17.298  0.0236  0.1067 -0.1959
27651W        W45175   4.008  10.951   3.830  0.0647 -0.0115 -0.1536
27652W        W45176   9.411   2.847   2.971 -0.0686 -0.3337  0.0593
27653W        W45177   3.966   1.359  14.666 -0.0178 -0.2634 -0.2854
27654W        W45178  14.624   3.397  14.465  0.0149 -0.3775 -0.0380
27655W        W45179  13.195   5.576  15.542  0.0677  0.2536 -0.2855
27656W        W45180  12.435   1.637  14.297 -0.2124  0.3255 -0.1785
27657W        W45181  14.379   9.017   0.300  0.0276 -0.2607  0.0674
27658W        W45182   2.961   7.000   5.137 -0.2257 -0.0705 -0.2468
27659W        W45183   8.141   3.970  12.690  0.0087 -0.0385  0.1430
27660W        W45184   0.850   7.182  13.675 -0.0403  0.1802 -0.2931
27661W        W45185  11.859   7.579  12.113 -0.1379  0.0807  0.0859
27662W        W45186   3.089  12.432  14.432 -0.0018  0.2640  0.0230
27663W        W45187   1.313   0.515  15.754 -0.2200 -0.1850 -0.1511
27664W        W45188  11.169  11.989   0.843 -0.0437  0.0404  0.0815
27665W        W45189   4.898   4.883   2.198  0.0052  0.0506 -0.2479
27666W        W45190  15.961  11.162  15.469  0.2795 -0.2236 -0.2245
27667W        W45191  11.970   5.623  14.556 -0.0097 -0.0059  0.0843
27668W        W45192   6.346   8.404   0.553  0.0599 -0.1376 -0.1881
27669W        W45193  13.898  12.685   4.903  0.1086 -0.0508  0.0541
27670W        W45194  15.060  10.256  17.638 -0.1140 -0.0069 -0.0614
27671W        W45195  14.981  12.183   2.532  0.1672 -0.0029 -0.1377
27672W        W45196   4.022   9.123   4.550 -0.0319  0.1051 -0.0158
27673W        W45197   3.769   7.735   1.227  0.1213 -0.0432  0.0442
27674W        W45198  15.394   5.301  14.124  0.0699  0.0727 -0.0746
27675W        W45199   3.987  16.987   4.702  0.1792  0.1218  0.0539
27676W        W45200  15.350   3.299   2.068  0.2063  0.2080 -0.0870
27677W        W45201   8.829  16.799  11.757  0.2083 -0.1193  0.1009
27678W        W45202  12.388   0.846   0.894 -0.1184 -0.0598  0.3548
27679W        W45203  11.070   2.009  15.912 -0.4175 -0.3155 -0.6046
27680W        W45204  13.989   2.826   1.797 -0.1855  0.1795 -0.0147
27681W        W45205   1.051   7.772   2.326 -0.4404 -0.2430  0.1358
27682W        W45206   7.029   3.303   2.946 -0.2162  0.1559  0.1564
27683W        W45207   9.148  11.359   0.288 -0.0501 -0.2719 -0.1253
27684W        W45208   4.944   0.489  12.749  0.0232  0.0507 -0.1229
27685W        W45209  14.211   9.751   3.429  0.0274  0.0788 -0.0525
27686W        W45210  13.875   2.411  15.657 -0.1706  0.0290  0.1112
27687W        W45211   5.530   1.036   0.691 -0.0250 -0.1986  0.1415
27688W        W45212   4.724  10.979  14.927 -0.0627 -0.1641  0.0545
27689W        W45213  16.589  10.223   3.226  0.2692 -0.1452  0.0615
27690W        W45214   5.035   5.564  14.383  0.0888  0.0100 -0.2139
27691W        W45215  16.424   6.066   4.467  0.3693  0.3574  0.0615
27692W        W45216   9.600   8.268  17.186 -0.0723  0.2909  0.1505
27693W        W45217  15.342   7.982   4.876 -0.2175  0.1398 -0.0399
27694W        W45218   9.287  11.107   0.753  0.1579  0.0528  0.1363
27695W        W45219   9.402  16.124   0.486  0.0575  0.1199 -0.2186
27696W        W45220   8.613   5.325  15.098 -0.2689  0.2486  0.0938
27697W        W45221   6.323   8.587   6.025  0.0699  0.1287  0.1631
27698W        W45222  16.999   0.357   2.396 -0.1920 -0.2697  0.2698
27699W        W45223   9.650  10.244   1.022 -0.1494  0.1189  0.2703
27700W        W45224  10.980   6.619   2.905 -0.1883 -0.0626  0.2205
27701W        W45225   6.025   2.364   5.484 -0.2298  0.2576  0.0093
27702W        W45226  14.409  11.541   4.738  0.0815  0.0485  0.2160
27703W        W45227  11.425  11.755  17.562 -0.0027 -0.3476  0.0473
27704W        W45228  10.058  11.402  16.226 -0.0581  0.3951 -0.2681
27705W        W45229  12.463   8.027   1.183  0.0005  0.2050 -0.2093
27706W        W45230   1.344   1.740   4.654  0.1065 -0.0668  0.2831
27707W        W45231   8.785  12.959   5.349 -0.0400  0.0913 -0.0352
27708W        W45232   5.211   4.678   1.896 -0.1311 -0.0476  0.5276
27709W        W45233   4.028   1.518   0.844  0.1113  0.0462 -0.0192
27710W        W45234  12.349   1.533  13.801 -0.1426  0.1493 -0.1207
27711W        W45235  15.333   2.588   5.637  0.0104 -0.1071  0.0235
27712W        W45236  10.323   5.951  13.425 -0.1213 -0.0500 -0.0676
27713W        W45237   4.692   7.403  14.397  0.0759 -0.2169  0.1498
27714W        W45238  13.611   8.146  12.718  0.2388 -0.1678  0.1786
27715W        W45239   1.504   2.379  13.264  0.1932 -0.1195 -0.4295
27716W        W45240   7.127  11.079  16.059  0.0526 -0.0907 -0.1719
27717W        W45241   5.997   6.624   3.450 -0.1416 -0.0023 -0.1705
27718W        W45242  10.962  14.281   2.628 -0.1405 -0.2210  0.2251
27719W        W45243   7.570   7.584   1.402  0.1622 -0.2049 -0.0312
27720W        W45244  16.810   0.279  15.382 -0.0100 -0.0482 -0.3506
27721W        W45245   3.163   5.368   4.434  0.1144 -0.0321 -0.1653
27722W        W45246  10.903   4.261   3.768 -0.2639  0.1433  0.1874
27723W        W45247  12.553   9.668   4.529 -0.0725 -0.4672 -0.1659
27724W        W45248  11.873   0.352  16.346 -0.2001  0.0613 -0.0159
27725W        W45249   7.096   7.482   0.730  0.0020 -0.0653 -0.0789
27726W        W45250  14.977   3.186  13.076  0.1269  0.0934  0.2253
27727W        W45251  11.751   1.351  16.123  0.1976  0.0093 -0.0140
27728W        W45252  10.445   8.277  16.063  0.3258  0.3695  0.0821
27729W        W45253   5.723  14.888  15.732 -0.3141 -0.0248 -0.0842
27730W        W45254   4.308  16.511   2.480  0.2585  0.3572  0.1078
27731W        W45255   1.878   6.999  15.798  0.0122 -0.1978  0.0028
27732W        W45256   2.864  14.432  17.380 -0.2369 -0.0518  0.0310
27733W        W45257   0.976  16.684   5.550 -0.1897  0.1508 -0.1090
27734W        W45258   9.971  10.621  14.228  0.0296  0.3625  0.2962
27735W        W45259   2.509  16.318   0.017  0.0721  0.0540  0.2244
27736W        W45260   3.433   8.527  14.232  0.0838 -0.1700  0.1931
27737W        W45261   2.825  13.406   3.778 -0.2121 -0.1216  0.3575
27738W        W45262   6.253   4.144  12.501  0.1950 -0.0140 -0.1944
27739W        W45263  16.788  13.390   2.936  0.1917 -0.3183  0.0143
27740W        W45264  14.999  15.545  15.881  0.0477 -0.1514 -0.3796
27741W        W45265  17.093  10.119   0.433  0.0150 -0.0180 -0.1154
27742W        W45266  16.167   3.223  13.532  0.2656 -0.1068  0.0500
27743W        W45267  14.092   0.444   1.928 -0.1224 -0.1321 -0.2045
27744W        W45268   4.753  13.221  15.991  0.1043 -0.0435 -0.1713
27745W        W45269   2.074   7.679   0.589  0.0098 -0.2105  0.2976
27746W        W45270  15.157  12.900  15.266 -0.0009  0.0787  0.0082
27747W        W45271   1.294   2.446   5.198  0.0177 -0.0986 -0.2463
27748W        W45272   2.517   5.429   4.893  0.2613  0.1462  0.0367
27749W        W45273   1.581   6.368   3.331  0.1384  0.4249 -0.0788
27750W        W45274   9.567   0.496  15.148 -0.2861  0.0287 -0.0731
27751W        W45275   8.656  13.454  17.579 -0.1660  0.0344 -0.0229
27752W        W45276   7.475  15.197  13.842  0.0375 -0.0001  0.0565
27753W        W45277  14.785   1.059  15.445  0.2411 -0.0610  0.2152
27754W        W45278  11.297   3.050  15.621 -0.2089  0.0509 -0.3035
27755W        W45279  13.525   4.117  17.550  0.2648  0.2103  0.2362
27756W        W45280  14.680   6.065  12.432  0.1655  0.3894 -0.1773
27757W        W45281  16.417   5.627   1.326  0.2099 -0.1142  0.0610
27758W        W45282  10.707   1.289   0.537  0.1669  0.1686 -0.0318
27759W        W45283  15.382  15.163   1.730 -0.2106  0.0235 -0.0552
27760W        W45284  12.504   0.223   4.932  0.3280  0.0452  0.0921
27761W        W45285   0.852   7.828  12.020  0.1531  0.2447  0.2831
27762W        W45286  15.962   6.847  12.104  0.0764 -0.1814 -0.0632
27763W        W45287  12.838   3.271  12.956  0.1928  0.0102 -0.4131
27764W        W45288   3.435   7.502  13.692  0.2361  0.0152 -0.1842
27765W        W45289   3.266   4.045   3.358  0.1295 -0.1910  0.1419
27766W        W45290  13.060  12.638  13.770 -0.0859 -0.0425 -0.1390
27767W        W45291  12.030  13.694   1.607 -0.0009  0.0392  0.0697
27768W        W45292   2.614   3.761  14.460  0.1170  0.0969  0.0266
27769W        W45293   8.330   5.708   1.006 -0.1439  0.0866 -0.1904
27770W        W45294  12.275   6.665  15.950  0.1319 -0.1598 -0.0778
27771W        W45295   2.072   5.635   4.987  0.0346  0.1729  0.0708
27772W        W45296  16.971   1.594   1.808  0.0416  0.0290  0.1583
27773W        W45297   0.906   6.871  14.631 -0.0590 -0.3281  0.2521
27774W        W45298   4.886  15.051   2.088 -0.1692  0.0623 -0.2829
27775W        W45299   5.170   6.053   1.295  0.1708 -0.1544 -0.2962
27776W        W45300  13.386  10.220   4.416 -0.2569 -0.2286  0.5671
27777W        W45301   8.514   0.367  16.106  0.2156 -0.0546 -0.0807
27778W        W45302   2.335   6.293  12.355  0.0334 -0.1216  0.1063
27779W        W45303   5.568  14.319   5.507 -0.2135  0.1361  0.1943
27780W        W45304  15.205  12.521  16.099  0.2831 -0.0260  0.0124
27781W        W45305   6.414   4.668  16.022 -0.5569 -0.1373 -0.4276
27782W        W45306   8.880   2.496  14.649 -0.1785  0.0485  0.0722
27783W        W45307  15.118   7.677  17.133 -0.0372 -0.0767 -0.2120
27784W        W45308   7.158   8.587   0.164 -0.2010  0.0038 -0.1194
27785W        W45309  16.791  13.716   3.895  0.2371 -0.1481  0.0719
27786W        W45310  15.315  11.749   0.897 -0.0565  0.3867  0.1376
27787W        W45311   4.999  15.770  15.871  0.1774 -0.3167  0.1210
27788W        W45312  15.255  10.046   1.509  0.0156  0.2746 -0.1453
27789W        W45313   3.851   0.234  15.360  0.1124  0.1711  0.0537
27790W        W45314  13.583   7.476  15.401  0.2333  0.3452  0.2212
27791W        W45315   4.617  13.621  13.680 -0.0231 -0.3214  0.3751
27792W        W45316   5.801   0.633  11.443 -0.0301  0.1733  0.2789
27793W        W45317   0.024  12.984  16.213  0.2110 -0.2322  0.1560
27794W        W45318   7.764   4.582   4.077  0.1694 -0.0783  0.5519
27795W        W45319   4.247   0.114  14.956  0.1581 -0.0285 -0.2189
27796W        W45320  12.812   8.637   5.427 -0.0623 -0.1008  0.3053
27797W        W45321  12.458  16.782   2.567 -0.0300 -0.1031  0.2918
27798W        W45322  14.368   0.841   0.700 -0.0395  0.0954 -0.0177
27799W        W45323  10.914   3.892  15.438 -0.0825 -0.1209 -0.0860
27800W        W45324   5.627  13.411  14.036 -0.3333 -0.0353 -0.1427
27801W        W45325   5.142  10.828   2.430 -0.1479  0.0979 -0.1786
27802W        W45326  15.307  16.412   5.139 -0.0525 -0.2080  0.0719
27803W        W45327  17.081  15.286  16.419  0.0049 -0.0329  0.0412
27804W        W45328  11.246   9.253   3.845 -0.2729 -0.1305  0.1866
27805W        W45329  14.338   9.898   0.384  0.0104  0.2051  0.0639
27806W        W45330  12.750   2.792  17.408 -0.2432  0.0667 -0.2192
27807W        W45331  14.970  12.230  17.519  0.0924 -0.0756 -0.1786
27808W        W45332  11.251  11.217   4.412  0.0272  0.3036 -0.0876
27809W        W45333  11.396  10.023  15.017  0.2000  0.1811  0.0553
27810W        W45334  12.022  12.834   4.981  0.1220 -0.0036  0.1998
27811W        W45335   8.957  13.520  17.081 -0.0801 -0.1179  0.1688
27812W        W45336  11.957   0.266  15.466  0.1806  0.1552 -0.0526
27813W        W45337  16.858   5.137   0.131  0.0398 -0.2579 -0.0868
27814W        W45338  10.419   6.739   0.266  0.2502 -0.0106  0.1404
27815W        W45339   3.471  15.480   3.285 -0.0818  0.0843  0.0335
27816W        W45340   2.415   9.699   0.168  0.0985  0.3425 -0.1157
27817W        W45341  10.884   1.845  12.669  0.1857  0.3905  0.0068
27818W        W45342  16.925   0.447  17.419 -0.0306 -0.1240 -0.0006
27819W        W45343   0.044   4.324   3.156 -0.0284 -0.5403 -0.1672
27820W        W45344  15.082  14.250  16.356 -0.0620 -0.3153  0.2011
27821W        W45345   9.066  13.599   6.075  0.2714  0.2063 -0.0873
27822W        W45346   9.495   5.802  12.477 -0.2649  0.0937 -0.0227
27823W        W45347   9.362   2.786  14.564  0.0497  0.1420 -0.1694
27824W        W45348  13.043   1.549   3.740 -0.0048  0.0071 -0.1638
27825W        W45349  11.392  13.636  15.012 -0.1996  0.1395 -0.2024
27826W        W45350   2.700   2.160  15.097  0.2953 -0.1082 -0.0626
27827W        W45351   1.154   7.509   3.920 -0.0416 -0.0806  0.3324
27828W        W45352  15.845   7.200   4.944  0.0081 -0.0812  0.3199
27829W        W45353  16.601   6.665  15.584 -0.0287  0.2391 -0.0683
27830W        W45354  15.185  11.122  12.370 -0.0753  0.4343  0.1767
27831W        W45355   7.271   5.670  15.202  0.0027  0.0109  0.1115
27832W        W45356  13.270  14.742   4.689  0.1981  0.1721 -0.0093
27833W        W45357   4.530   4.822   5.525  0.2660  0.0704 -0.0229
27834W        W45358   5.976  16.822  16.776  0.4418  0.1120 -0.1619
27835W        W45359   9.602  16.439  16.635 -0.1840  0.0180  0.2114
27836W        W45360  15.912  17.168  14.180 -0.1753 -0.2288 -0.0850
27837W        W45361   4.005  11.865   2.911  0.0045 -0.0270 -0.1786
27838W        W45362   7.611  15.934  13.311  0.1573  0.1938  0.0345
27839W        W45363  14.524   5.644  17.546 -0.1113 -0.2312 -0.0238
27840W        W45364  11.549   8.254   0.921 -0.0002 -0.3479  0.1462
27841W        W45365  10.546  11.447   1.056  0.3524  0.0288  0.0516
27842W        W45366  17.094  10.399   5.022  0.1633 -0.1253  0.1206
27843W        W45367  14.065   5.819   3.283  0.0266 -0.3187  0.0642
27844W        W45368  10.121   5.461   0.537 -0.1797 -0.1894  0.2742
27845W        W45369   1.857   1.292  13.699 -0.0073 -0.1720 -0.0972
27846W        W45370   6.258   7.352   4.265  0.1154  0.0221  0.3498
27847W        W45371   4.959   1.186  14.150  0.1090 -0.0110 -0.1295
27848W        W45372   2.915  17.070  13.998 -0.0304  0.1310  0.1912
27849W        W45373  12.414   0.682  14.218  0.4238 -0.3613 -0.2616
27850W        W45374  14.318   7.016  13.798 -0.2026 -0.1893  0.0778
27851W        W45375   6.892   2.954  15.264  0.0551 -0.0098  0.0561
27852W        W45376   9.157   6.657  13.878 -0.1838  0.0201 -0.2258
27853W        W45377   7.400   3.911  14.656 -0.0182 -0.1027  0.3585
27854W        W45378   1.437   8.496  16.499  0.3556 -0.0673  0.0966
27855W        W45379  10.972  13.893   4.723  0.0387 -0.3817  0.0706
27856W        W45380  16.596   0.104   0.488  0.0239 -0.2996 -0.0478
27857W        W45381  13.608  15.836   1.947  0.0476 -0.1700  0.0233
27858W        W45382   1.628  13.366  13.097  0.4377  0.1732 -0.0195
27859W        W45383  14.517   8.383   2.500 -0.0434  0.2532  0.0628
27860W        W45384  15.407  14.526   3.561  0.0836 -0.1189 -0.0258
27861W        W45385   5.495   1.190  15.693  0.1761  0.0887 -0.3285
27862W        W45386   1.260  13.751   3.444 -0.0314 -0.4626 -0.0066
27863W        W45387   2.227   1.292   4.473 -0.3442  0.1060 -0.0218
27864W        W45388   0.633   0.811   2.346  0.4214 -0.2681 -0.0408
27865W        W45389  10.743   5.726   6.313 -0.3378  0.2205  0.1780
27866W        W45390   5.457   6.602  13.902 -0.2392 -0.1239 -0.0280
27867W        W45391  10.973  12.922  17.597 -0.0959  0.0866 -0.1327
27868W        W45392   9.176   5.373  13.364 -0.2435 -0.0123 -0.1722
27869W        W45393  13.303   0.539   0.566 -0.1896 -0.0515  0.1264
27870W        W45394  10.277  10.050   1.865  0.0135  0.1647 -0.0507
27871W        W45395  13.043   5.186   5.307  0.0120  0.0295 -0.0862
27872W        W45396  16.589   9.230  17.495 -0.1645  0.0395  0.1469
27873W        W45397   1.952   0.459   2.030 -0.0363 -0.0670  0.1304
27874W        W45398  15.596   6.734  13.168  0.0378  0.2681  0.0592
27875W        W45399   7.291  13.242   2.598 -0.0495 -0.0431  0.3394
27876W        W45400   9.442  12.722  16.090 -0.0285 -0.2367 -0.4183
27877W        W45401  10.896  13.302  13.421 -0.1009 -0.2390 -0.0023
27878W        W45402  12.389  15.588  15.179 -0.0515 -0.0737  0.1272
27879W        W45403   3.744   6.603   1.708  0.3986  0.1251 -0.3744
27880W        W45404   1.329   5.219   0.130  0.0236  0.1126  0.0115
27881W        W45405  14.320   4.594   5.015 -0.1459  0.1399 -0.1572
27882W        W45406   7.130   8.282   3.809  0.1329 -0.2833  0.2695
27883W        W45407   9.108  16.930   4.231 -0.0797  0.1527  0.0454
27884W        W45408  15.674   5.383   4.268 -0.1689  0.0280  0.0346
27885W        W45409   3.878  15.623  15.153 -0.4441 -0.1214  0.0545
27886W        W45410   3.071  14.833  14.007 -0.0121  0.2129  0.2042
27887W        W45411   2.663  15.670  15.440  0.0782  0.0752  0.2052
27888W        W45412  13.650   4.164  15.378  0.0247  0.1068 -0.0107
27889W        W45413  14.368   5.704  12.309 -0.1732 -0.1130 -0.0562
27890W        W45414  16.253  12.893  12.892 -0.0684  0.2137  0.1331
27891W        W45415   7.327   7.894   0.961 -0.1926  0.0348 -0.0363
27892W        W45416  12.019  15.550  17.086 -0.0194  0.0029 -0.1875
27893W        W45417  14.799   3.440   2.732  0.1642  0.1523 -0.1430
27894W        W45418  12.271   8.669   5.106 -0.0185 -0.3034 -0.2405
27895W        W45419  12.257   4.701   1.557  0.2221 -0.0688  0.2564
27896W        W45420  13.544  13.840   0.077  0.0412 -0.1560 -0.0694
27897W        W45421   3.467  13.145  15.521  0.0480 -0.3346  0.0496
27898W        W45422  12.548  15.657  11.851 -0.2210  0.0505 -0.0344
27899W        W45423   5.595  15.124   4.447 -0.1089 -0.0067  0.3347
27900W        W45424   8.862  11.030  17.640  0.0594  0.1646 -0.1977
27901W        W45425  13.192  14.647   0.272 -0.1499  0.2274  0.1525
27902W        W45426  14.980  10.856  13.197  0.0229  0.0111 -0.0605
27903W        W45427  11.172   8.734   4.910  0.0065 -0.1185 -0.0844
27904W        W45428  14.972   4.551  12.668  0.0998 -0.2025  0.0744
27905W        W45429  16.533  14.377   2.963 -0.1008 -0.1101 -0.0442
27906W        W45430   7.024   6.543  16.164  0.0302 -0.2185  0.0400
27907W        W45431  14.632   5.089  14.545  0.0200 -0.2103 -0.1331
27908W        W45432   2.597  11.820   1.500 -0.2143 -0.1300 -0.0731
27909W        W45433  12.280   4.340  16.294 -0.2396 -0.1132  0.2391
27910W        W45434   2.569  11.851  17.652 -0.1180 -0.0009 -0.0805
27911W        W45435   3.409   5.085  14.315  0.0093  0.1710  0.2198
27912W        W45436   5.005  14.498  16.655 -0.0744  0.1736 -0.0204
27913W        W45437   9.005   4.984  11.976 -0.0905 -0.3183 -0.2169
27914W        W45438  11.858  13.873   2.240 -0.3227  0.2196  0.2259
27915W        W45439   8.042   7.842   0.168  0.0165  0.0909  0.0056
27916W        W45440   5.045   6.195   3.353  0.2428 -0.1928 -0.1184
27917W        W45441   0.246  13.954  16.268  0.2794  0.0130 -0.0859
27918W        W45442   8.828  15.844   0.011  0.3027  0.2763  0.0007
27919W        W45443  10.506   8.953   3.918 -0.0759 -0.1896 -0.0872
27920W        W45444   1.161  13.341   4.954 -0.4488  0.2828 -0.3564
27921W        W45445  12.643  14.915   3.364  0.0933  0.0193 -0.0313
27922W        W45446  15.386   7.194   3.576 -0.1897  0.0434  0.2017
27923W        W45447   9.832   7.914   0.488 -0.2231  0.2730  0.0270
27924W        W45448   8.853  11.037   0.976 -0.2138 -0.2574  0.0089
27925W        W45449  14.322   7.028  10.734  0.1161  0.1260 -0.2287
27926W        W45450  14.349   5.927   1.758 -0.1181  0.1569 -0.1257
27927W        W45451   8.493   7.450   0.393 -0.0430  0.0819 -0.1213
27928W        W45452   5.115  10.863   5.256 -0.1628  0.1381 -0.3639
27929W        W45453   5.268   4.760  17.343 -0.1424  0.0036 -0.0730
27930W        W45454   3.170   3.509   3.363  0.1347 -0.3433  0.0114
27931W        W45455  11.479   6.839   0.773 -0.0775 -0.1633  0.0531
27932W        W45456  14.394   9.720   5.075 -0.1365  0.2717  0.0184
27933W        W45457  12.199   1.531  14.812  0.1561  0.0576 -0.1351
27934W        W45458   8.153   5.452  15.063 -0.0892  0.0511 -0.1034
27935W        W45459   3.984   5.404  16.912  0.1305 -0.2827  0.2344
27936W        W45460   0.876  13.992   5.202 -0.1244  0.0259  0.2946
27937W        W45461   0.087   5.439  15.548  0.1554  0.2598 -0.1207
27938W        W45462   6.996  15.668   0.819 -0.3018  0.1997 -0.0628
27939W        W45463   3.499   8.860  16.300  0.0865 -0.1728 -0.1185
27940W        W45464   4.903   7.147  12.786  0.0332  0.0373 -0.3176
27941W        W45465   0.561   8.811   2.888 -0.0456  0.2615  0.0422
27942W        W45466  15.282   7.083   0.258 -0.2556  0.0143 -0.2667
27943W        W45467   1.000   7.459   3.471  0.2021  0.2092 -0.1063
27944W        W45468  15.475  14.885   0.708  0.2458 -0.2095 -0.2550
27945W        W45469  10.120   7.685   0.113  0.0212 -0.1504  0.0497
27946W        W45470   5.297   8.219   2.278  0.2144 -0.1481 -0.0918
27947W        W45471   2.980   1.960   2.947  0.1557  0.3400 -0.1532
27948W        W45472  10.297  12.312  16.107  0.1756  0.1175 -0.0749
27949W        W45473  15.885  11.804   3.552 -0.1277 -0.1216  0.2415
27950W        W45474   9.987   0.094   1.150  0.0952  0.0985 -0.3057
27951W        W45475   8.178  13.589   2.979  0.1599 -0.0950  0.3088
27952W        W45476   1.106   9.064   1.040 -0.1604 -0.2787 -0.1114
27953W        W45477   9.285   8.330  12.807 -0.1202 -0.3200 -0.1845
27954W        W45478   9.780   2.895   5.132  0.3008 -0.0433  0.0469
27955W        W45479  14.791  16.398  14.186 -0.1714  0.1436  0.1014
27956W        W45480   0.339   5.610   0.044  0.1998  0.0189 -0.1557
27957W        W45481  12.827   1.501  14.916 -0.4584  0.0037  0.0464
27958W        W45482   9.263  14.510   2.005 -0.2876 -0.0824  0.0833
27959W        W45483  15.209  15.392  15.361  0.3188 -0.1116  0.1718
27960W        W45484   8.704   3.304   3.337 -0.0293  0.2126  0.0196
27961W        W45485   2.921  13.794  12.599 -0.1102  0.0314 -0.0880
27962W        W45486   8.282  11.087   1.209 -0.3408 -0.1573  0.0733
27963W        W45487   3.629  15.668  17.448  0.0408  0.1071 -0.1220
27964W        W45488  11.286  16.253   1.762  0.1445  0.1562 -0.0777
27965W        W45489   1.892  14.350  16.693  0.0753  0.1848 -0.1346
27966W        W45490   4.290   8.668  13.713 -0.0675 -0.1304  0.1165
27967W        W45491   2.628   5.270   4.399 -0.1140 -0.2212 -0.1410
27968W        W45492  12.095  14.345   1.254  0.0713 -0.2780  0.0775
27969W        W45493  14.501   7.455   4.664  0.0616  0.3273 -0.1770
27970W        W45494   5.185   9.466  17.559  0.0081 -0.0160  0.0556
27971W        W45495   5.869   9.702   0.700 -0.2081  0.0171  0.0565
27972W        W45496   4.955  15.175  15.783 -0.3587 -0.0068 -0.1921
27973W        W45497   2.298   0.435   4.684  0.3118 -0.1249 -0.0762
27974W        W45498   5.773  14.142   5.957  0.2420 -0.1817 -0.2070
27975W        W45499  17.173  13.306  14.396 -0.0419  0.1513  0.1415
27976W        W45500   1.397   0.546   4.789  0.0282  0.2979  0.3605
27977W        W45501   0.405   1.306  14.380  0.1646 -0.1375 -0.2116
27978W        W45502  16.638  13.231   4.695  0.0763  0.2248 -0.2885
27979W        W45503  12.942   9.218   5.651  0.3785 -0.0882 -0.1853
27980W        W45504   6.216  15.320   5.061 -0.2618  0.1221 -0.0228
27981W        W45505  12.260  15.149  14.267 -0.2921  0.0113  0.0644
27982W        W45506   6.546  15.636  17.539 -0.3743  0.0307  0.0473
27983W        W45507  14.308  10.008   4.409 -0.0333 -0.1510  0.3463
27984W        W45508  10.483   3.511  16.807  0.1345 -0.4693 -0.0058
27985W        W45509  14.180   1.275  17.285 -0.2382  0.1884 -0.2126
27986W        W45510  17.150   7.667   2.742 -0.2212 -0.1066 -0.0190
27987W        W45511   2.965   4.241   4.121 -0.1131  0.1088  0.1017
27988W        W45512   8.222   5.020   0.003  0.1212 -0.3883 -0.0997
27989W        W45513  14.843  16.174   0.688  0.4061  0.0412 -0.1642
27990W        W45514   1.497   4.658  13.570 -0.1812  0.2577 -0.1998
27991W        W45515  10.718   9.301  15.208 -0.2225  0.3001 -0.7088
27992W        W45516  12.148  12.283   0.762  0.0112 -0.0222  0.1356
27993W        W45517  13.879  16.325   5.497 -0.2048 -0.0148 -0.0268
27994W        W45518  16.836   4.361   0.864 -0.0394 -0.2584  0.0693
27995W        W45519   9.305   1.454  15.988  0.0591 -0.1230  0.1108
27996W        W45520  10.863   9.109   1.789 -0.1915  0.2093  0.2135
27997W        W45521  16.692   7.350   0.071  0.0810 -0.2803 -0.2142
27998W        W45522   7.451   6.097   1.051  0.0794 -0.1518  0.2198
27999W        W45523   9.035   9.191   3.173 -0.2231 -0.0997 -0.2045
28000W        W45524  15.483   4.910   4.495 -0.3283  0.2309 -0.0508
28001W        W45525   8.427  14.160   0.490  0.1945 -0.0694 -0.1089
28002W        W45526   1.257   1.927   3.257 -0.2208  0.3415 -0.0303
28003W        W45527   0.434   7.942   4.644  0.0751  0.1856  0.0601
28004W        W45528  14.995  14.830   3.622 -0.2417 -0.0382 -0.4026
28005W        W45529  11.925   7.738  16.629  0.2838  0.1982  0.1196
28006W        W45530   7.843  10.441   4.664  0.1684  0.1046  0.0978
28007W        W45531   4.366   3.188   3.808  0.0811 -0.1364  0.4095
28008W        W45532   4.220   7.908   2.801  0.0853 -0.2796 -0.2639
28009W        W45533  14.214  16.584   2.882 -0.2522  0.1010 -0.0918
28010W        W45534   3.410  15.502  12.325  0.0669 -0.1824 -0.1196
28011W        W45535   5.580   9.263  13.610 -0.1093 -0.0329  0.1264
28012W        W45536   0.058  12.425   1.786 -0.1694 -0.0883 -0.1125
28013W        W45537  10.374  11.033   3.432 -0.1086 -0.1371  0.0119
28014W        W45538   5.811  15.605   3.860  0.0820 -0.0579  0.4292
28015W        W45539  16.320  17.144   1.397 -0.0010  0.1721  0.2110
28016W        W45540  16.719   0.910  12.083  0.1872  0.2116 -0.2170
28017W        W45541   2.827   9.956  13.227 -0.1006  0.1228 -0.1998
28018W        W45542  13.025   8.975  14.886 -0.0666  0.2878 -0.0186
28019W        W45543   0.447   9.561   3.681  0.1897  0.0810 -0.1299
28020W        W45544   3.092  10.474   4.564  0.3018 -0.0147 -0.0196
28021W        W45545  10.547  16.312   1.802 -0.3442  0.1002 -0.2109
28022W        W45546   6.158  17.203   1.822  0.3805  0.1456  0.0301
28023W        W45547  14.972   9.041  13.022  0.0406 -0.1873  0.0954
28024W        W45548   3.036   6.927  16.340 -0.1207 -0.3230  0.0804
28025W        W45549  11.227   1.755  13.854 -0.3278  0.1648 -0.2669
28026W        W45550   2.735  10.237  14.428 -0.0794  0.0327  0.3230
28027W        W45551   8.782  15.645  12.693  0.0816  0.0424  0.0486
28028W        W45552   8.358  10.217   1.133  0.1455 -0.0584  0.3220
28029W        W45553   7.995  17.186  13.812  0.4771  0.1298 -0.2564
28030W        W45554  11.510  10.800  17.033 -0.1727  0.3205  0.1100
28031W        W45555   1.205   6.064  16.990  0.1234  0.0122  0.0004
28032W        W45556  13.481  14.173  12.989  0.0980 -0.4720  0.0300
28033W        W45557   6.578  16.682  12.983 -0.0877 -0.0049  0.1076
28034W        W45558  11.898  12.523   3.505 -0.0158 -0.1562  0.3619
28035W        W45559  13.267   2.007  12.658  0.1645  0.0106  0.2015
28036W        W45560   6.711  17.128   3.510  0.0122  0.2617  0.0811
28037W        W45561  10.982   0.546  16.539  0.2425 -0.2195  0.3038
28038W        W45562   4.210   8.396  17.270 -0.0442 -0.3424 -0.0131
28039W        W45563  10.491  10.510   5.106 -0.4214 -0.0543 -0.2143
28040W        W45564   8.081   5.542   3.386 -0.3042 -0.1874  0.0727
28041W        W45565   3.457   2.877  15.164 -0.2200  0.0813  0.0696
28042W        W45566   3.825  10.209   4.708  0.1922 -0.1204 -0.1586
28043W        W45567   2.782  16.254   4.753 -0.1751 -0.3264  0.2517
28044W        W45568   4.211  12.282   1.724  0.0213  0.2515  0.3843
28045W        W45569   4.709   9.225   0.137 -0.4145  0.1027  0.0805
28046W        W45570   2.776   8.958  14.463  0.1951  0.0948  0.2044
28047W        W45571   8.271   1.445  13.998  0.3623 -0.1808  0.2022
28048W        W45572  12.888   0.877   1.204  0.2342 -0.1588  0.3142
28049W        W45573  11.394   9.114  12.722  0.1791 -0.0337 -0.3741
28050W        W45574  16.416  13.335  11.731  0.0669  0.1488  0.0536
28051W        W45575   2.171   1.838   4.712 -0.0552 -0.1059 -0.1698
28052W        W45576  11.637  13.860  16.355 -0.0224 -0.1215  0.0209
28053W        W45577   8.714   7.579   2.906  0.0707  0.0276 -0.2822
28054W        W45578  15.677   3.771   3.228  0.1733  0.3059  0.0983
28055W        W45579   5.103  12.299  13.079  0.0907  0.1183  0.0234
28056W        W45580   1.912   9.511  17.096 -0.1740 -0.0215 -0.0572
28057W        W45581   0.194   9.410  17.284 -0.0078 -0.3370  0.1041
28058W        W45582  15.364   1.238   0.881 -0.1924 -0.0541  0.1724
28059W        W45583   4.627  10.167  17.161  0.1085 -0.0585  0.0091
28060W        W45584   9.327  15.608   5.400 -0.2696  0.2238  0.1529
28061W        W45585  14.562   5.153   1.270  0.1120 -0.4903 -0.1564
28062W        W45586   9.151  13.551  12.517 -0.0039  0.1030 -0.1030
28063W        W45587  12.264  10.587   3.759 -0.3662 -0.1850 -0.1488
28064W        W45588  11.258  10.061  14.279 -0.1123  0.3397  0.0681
28065W        W45589   6.286   4.839   3.165 -0.1294 -0.1051 -0.1208
28066W        W45590   8.565  10.488   2.566  0.3699 -0.0290 -0.0814
28067W        W45591   5.080  15.714  13.387  0.0617  0.0044  0.0408
28068W        W45592  16.162   6.606   0.118  0.0321  0.2349 -0.0877
28069W        W45593  16.081   1.199  15.919  0.3018 -0.0432 -0.1061
28070W        W45594   5.271  10.088   4.671  0.1166 -0.0643  0.2120
28071W        W45595  16.627   3.838  14.387 -0.1010  0.1641 -0.1429
28072W        W45596  14.138  15.318  14.592 -0.2391  0.1559  0.1832
28073W        W45597   7.169  12.757   2.067  0.2708  0.0200 -0.0394
28074W        W45598   0.167   5.427   2.203  0.4071 -0.0591 -0.0258
28075W        W45599  14.445   4.529   2.299  0.1920 -0.0170  0.1485
28076W        W45600   3.828   0.398  14.889 -0.0751 -0.2564 -0.0336
28077W        W45601   4.994   5.577  13.212 -0.3754 -0.1903  0.1154
28078W        W45602  11.456  13.302   2.065  0.1796  0.0451 -0.0628
28079W        W45603  16.282  13.033   1.533 -0.0136  0.1149  0.0569
28080W        W45604   2.578   3.075   3.808  0.3882 -0.1224  0.0717
28081W        W45605  14.174  14.301  17.348 -0.0030  0.1277  0.2041
28082W        W45606   1.469   6.699  15.357 -0.1272 -0.0947 -0.0247
28083W        W45607   9.979  14.322  15.806  0.1311  0.0245 -0.1504
28084W        W45608  12.394  11.435  17.078 -0.0019 -0.0583  0.2117
28085W        W45609  16.188  14.802  14.709  0.2134  0.0473 -0.0563
28086W        W45610  11.609   0.900   3.336 -0.0672  0.2140 -0.0630
28087W        W45611   9.420   2.199  17.449 -0.2343  0.2006 -0.3062
28088W        W45612   7.953   5.659  17.066 -0.1039  0.1444  0.4019
28089W        W45613  15.485   2.764  14.968  0.1843 -0.0073 -0.0451
28090W        W45614   2.735  15.767  14.517  0.1300 -0.0187 -0.0277
28091W        W45615   4.845   1.464   0.448 -0.1818  0.0379 -0.1008
28092W        W45616  13.201  16.126  11.355 -0.0701 -0.0388 -0.0402
28093W        W45617  15.012  16.477  14.606 -0.1631  0.1748 -0.1928
28094W        W45618   4.317  15.002  16.898 -0.2336 -0.1458 -0.1027
28095W        W45619   4.935   9.369  15.318  0.0110  0.1431  0.1431
28096W        W45620   4.874   4.384  16.433 -0.2511  0.0960  0.1940
28097W        W45621  10.126  11.607   0.239  0.3978 -0.1782 -0.0631
28098W        W45622  12.415   9.396   3.194 -0.0477 -0.1247  0.1910
28099W        W45623   2.264  10.183  15.569 -0.4361 -0.0759 -0.2904
28100W        W45624   4.056   9.127  12.992  0.1645  0.2374  0.1534
28101W        W45625   1.156   6.394  16.470 -0.0433 -0.0435 -0.0884
28102W        W45626   3.148  10.824   2.718 -0.0261 -0.1415  0.1768
28103W        W45627   1.811   5.311  12.747 -0.0921  0.1951  0.2850
28104W        W45628  12.280   8.220   4.867 -0.0358  0.1646 -0.1127
28105W        W45629  12.295  11.130  17.457 -0.0303  0.0968 -0.2168
28106W        W45630  16.560   0.013  14.739  0.0112 -0.0167 -0.2554
28107W        W45631   8.645   7.351   1.109  0.2087 -0.2027  0.1054
28108W        W45632   5.384   9.735   2.166  0.3086  0.2576 -0.0100
28109W        W45633  14.285   7.824  16.980  0.1043 -0.0302  0.0107
28110W        W45634  15.462   8.535   1.620 -0.0913  0.2086  0.0558
28111W        W45635  14.533   2.047   4.732  0.0301  0.0303  0.1937
28112W        W45636  15.492   1.203  17.293  0.3182 -0.1682 -0.1565
28113W        W45637  13.952  13.132   5.197 -0.1437 -0.1780 -0.1793
28114W        W45638   0.194   6.877  11.915 -0.0093 -0.1183  0.2602
28115W        W45639   7.559  11.181  16.286 -0.1900 -0.1456  0.1098
28116W        W45640   0.248  14.798   3.969  0.1560  0.0629  0.2315
28117W        W45641   3.460  13.586  16.584  0.1977  0.2003 -0.0049
28118W        W45642   2.053   9.387   5.337  0.4685  0.0477 -0.2181
28119W        W45643  14.020  14.163   4.925  0.0960  0.1189 -0.0663
28120W        W45644  13.872   5.019   3.560 -0.1932 -0.0414 -0.3031
28121W        W45645   7.465   7.227  16.162 -0.2883 -0.3019  0.1411
28122W        W45646   5.606   9.233  17.164 -0.1582 -0.0478 -0.1994
28123W        W45647   3.861  14.742  17.202 -0.0331  0.3074  0.0393
28124W        W45648   9.059   6.927  13.255 -0.0977 -0.1000 -0.1881
28125W        W45649  10.411   5.858   5.840  0.0767  0.0318 -0.0228
28126W        W45650   3.531  15.310  16.509  0.1512 -0.1647  0.0644
28127W        W45651  15.598   1.892  17.502 -0.0438 -0.0690  0.0501
28128W        W45652  15.696   5.726   6.093  0.0199 -0.0052 -0.1696
28129W        W45653  15.206   5.501  12.880 -0.0571 -0.0641 -0.0054
28130W        W45654   5.465  12.035  15.460  0.0434  0.1021  0.0919
28131W        W45655   2.025  15.758   0.002 -0.1121 -0.2720 -0.0595
28132W        W45656  14.093  13.793  15.156 -0.0225  0.0460 -0.0293
28133W        W45657   1.630   5.556  17.434 -0.2457  0.1384  0.2484
28134W        W45658  16.183   9.319   2.271  0.1679  0.4299  0.2757
28135W        W45659  14.726   4.108  16.196  0.2593 -0.2150  0.2228
28136W        W45660  11.696   9.676  13.927 -0.1753 -0.1005 -0.0277
28137W        W45661   1.787  13.948   5.012 -0.1119 -0.0591 -0.3653
28138W        W45662  14.442   4.180  15.031 -0.1576 -0.0228 -0.0041
28139W        W45663  12.288  13.317   3.295 -0.3245  0.2515 -0.0029
28140W        W45664  15.789   0.795  12.167 -0.0419  0.0908  0.0536
28141W        W45665   7.075   0.094  15.721 -0.0742 -0.1166  0.1114
28142W        W45666  11.368  13.707   2.449  0.0405  0.0157  0.0333
28143W        W45667  13.206   8.457   5.130  0.1515 -0.0309  0.1071
28144W        W45668  14.338  12.760   1.100  0.0089  0.0437  0.0120
28145W        W45669  11.509   3.952  16.689 -0.1123  0.0068  0.2668
28146W        W45670   6.949   5.244   1.912  0.0175  0.2347  0.0542
28147W        W45671  12.657   5.480  15.801  0.0087 -0.0848 -0.1446
28148W        W45672   0.393   6.042  16.025  0.0496  0.1331 -0.1808
28149W        W45673   1.034   2.494   6.135 -0.3607  0.1196 -0.0335
28150W        W45674   1.512  15.003  17.275 -0.0255  0.3900 -0.0493
28151W        W45675  13.264   7.142   5.240 -0.1252  0.1688  0.2668
28152W        W45676  15.517  15.161   1.163  0.1851  0.0278 -0.1421
28153W        W45677  15.015  11.032   0.569 -0.3277  0.0962  0.0109
28154W        W45678   2.053  16.798  14.899 -0.0799  0.3304  0.0342
28155W        W45679  15.502   9.917  15.811  0.3927 -0.0318 -0.1388
28156W        W45680   7.048  16.570  12.726  0.0526  0.0883 -0.1696
28157W        W45681  14.954   1.560  12.244  0.2715  0.1630  0.3788
28158W        W45682  12.964  13.386   4.346 -0.1211  0.1478  0.0879
28159W        W45683   5.517  11.200  16.858 -0.0032 -0.3230  0.0731
28160W        W45684  14.541   7.122  17.412 -0.0153 -0.2676 -0.0970
28161W        W45685  12.733  12.818   0.390  0.0700 -0.0144 -0.0161
28162W        W45686   1.805  17.227   4.169 -0.0692 -0.1277 -0.0842
28163W        W45687   8.294   3.723   5.667 -0.1914  0.2163  0.0323
28164W        W45688  10.894   2.249   5.345  0.0498 -0.2467 -0.2118
28165W        W45689   0.127  10.802  17.166  0.1646  0.1402  0.2348
28166W        W45690   1.001   7.980  14.695  0.1470  0.0632  0.1172
28167W        W45691   8.987  16.945  12.194  0.1173  0.3631 -0.0054
28168W        W45692  15.299   0.710  13.731 -0.0896  0.1603 -0.0636
28169W        W45693  11.207   5.038  13.840 -0.2216 -0.1164 -0.3591
28170W        W45694   3.982   5.166   0.981  0.1153 -0.3262  0.0158
28171W        W45695   2.537  15.486   4.872  0.1960 -0.1922 -0.1746
28172W        W45696  13.491  16.827  17.635 -0.4150 -0.1730  0.1339
28173W        W45697   2.812   8.680   1.756  0.1410 -0.0718 -0.3643
28174W        W45698  15.255  13.813   4.691 -0.1361  0.3112  0.0964
28175W        W45699  13.531  12.061  17.430  0.1666 -0.3831 -0.5413
28176W        W45700   8.564  12.376  12.814  0.0725 -0.2424  0.2871
28177W        W45701  16.104  10.337  13.094 -0.0895 -0.2678 -0.1760
28178W        W45702   7.049  17.040   1.041  0.0143  0.3989 -0.2808
28179W        W45703  15.123  11.633  11.496  0.1375  0.0786  0.2181
28180W        W45704   8.898   3.046  16.379 -0.0481  0.0399  0.0728
28181W        W45705   7.747   9.669   1.540 -0.1132 -0.1329 -0.2004
28182W        W45706   7.142   1.561   4.085  0.2489  0.2122  0.0363
28183W        W45707  13.267  15.529  14.594  0.0731  0.2017 -0.0322
28184W        W45708   1.998   8.903   3.145 -0.0862  0.1087  0.2292
28185W        W45709   5.393   8.270   4.145  0.1094 -0.0083 -0.0090
28186W        W45710  15.448   3.629  15.345 -0.1689 -0.1486  0.1494
28187W        W45711  14.108   6.925   1.550 -0.1659  0.0435  0.1814
28188W        W45712  14.693   4.308  14.513 -0.0763 -0.4152  0.4057
28189W        W45713   6.636   1.394   2.751  0.2209  0.1056 -0.0735
28190W        W45714   6.205   9.421  15.985  0.2028  0.2626 -0.0900
28191W        W45715   3.464   3.833   0.621 -0.2675  0.1369 -0.2398
28192W        W45716   5.734   2.734  15.267 -0.1734  0.3097  0.0332
28193W        W45717   9.747   7.973   3.034  0.4184 -0.2338 -0.0889
28194W        W45718  10.728   9.598   4.903  0.0166 -0.0879 -0.0120
28195W        W45719   0.477   4.745  13.552 -0.0285  0.2045 -0.2275
28196W        W45720   8.260   0.901  17.537 -0.0571 -0.1583  0.1324
28197W        W45721  10.692  16.515   5.711  0.1901  0.1447  0.0692
28198W        W45722  10.370   2.004   4.243  0.1944 -0.1423  0.1603
28199W        W45723  13.368   6.709  14.438  0.4311  0.0051 -0.0201
28200W        W45724  14.009  13.106  17.462  0.1912  0.1669  0.0842
28201W        W45725  13.287  13.462  16.060 -0.0276 -0.1830  0.1082
28202W        W45726  14.428   9.128  15.861 -0.0932  0.1394  0.2111
28203W        W45727   4.299   1.563   5.040 -0.1009  0.2235  0.2481
28204W        W45728   3.742   2.966   1.015 -0.1360  0.0281 -0.1008
28205W        W45729  15.552  11.950  14.884 -0.1333  0.1733  0.0306
28206W        W45730  15.356  11.013  16.411  0.0946  0.0724 -0.2651
28207W        W45731  11.005   7.601  15.712 -0.1387  0.0777 -0.2199
28208W        W45732   1.957   4.017  12.623 -0.0934  0.0880 -0.0041
28209W        W45733  10.635   5.220   3.861  0.1501 -0.0215  0.0217
28210W        W45734   0.604  15.732  13.836 -0.0010  0.2717 -0.1590
28211W        W45735  16.394  16.938  13.969  0.1191 -0.1293  0.2059
28212W        W45736  10.734  16.945  16.574 -0.1906 -0.2227  0.3422
28213W        W45737  13.112  10.464   0.034 -0.0813 -0.0921 -0.1038
28214W        W45738  15.938  13.079  15.658 -0.1343 -0.0962  0.5672
28215W        W45739   3.736   8.944  14.376 -0.4712 -0.1932  0.0419
28216W        W45740  10.762   6.235  13.350 -0.1018  0.4794 -0.1284
28217W        W45741   2.271   5.888  14.355 -0.1753 -0.1738 -0.1547
28218W        W45742   6.776   9.429  14.539 -0.2718  0.2085 -0.3227
28219W        W45743   3.714   6.839   1.251  0.3662  0.1623  0.1783
28220W        W45744   4.106   4.757  15.798  0.0047  0.3210 -0.1714
28221W        W45745  12.156  14.385  13.694  0.1056 -0.2271  0.0474
28222W        W45746   7.389   3.590  15.874  0.0944 -0.0720  0.1199
28223W        W45747  17.102  12.558   2.887  0.0148  0.0124  0.0919
28224W        W45748   1.737  14.739   3.007  0.2435 -0.1532 -0.0488
28225W        W45749  16.070  10.219   2.007 -0.1876 -0.0609  0.0411
28226W        W45750  15.915  13.718  17.201 -0.1643  0.0140 -0.1093
28227W        W45751   1.448  16.543   2.841  0.0282  0.1877 -0.5328
28228W        W45752  16.470  16.873   4.535 -0.1518 -0.0743  0.1401
28229W        W45753  17.197  17.153   1.366 -0.0446 -0.4558  0.1548
28230W        W45754  13.097   7.291   0.214  0.0552 -0.1899  0.1522
28231W        W45755   8.885   2.278   2.004 -0.1694  0.2662 -0.0969
28232W        W45756   7.584  17.245   4.743  0.1479  0.0282  0.1475
28233W        W45757   1.957   5.601  11.982 -0.3323 -0.3522  0.0454
28234W        W45758  16.695  16.999   2.350 -0.2095 -0.1818  0.1276
28235W        W45759   2.082   4.284   2.065 -0.0629 -0.0859 -0.0574
28236W        W45760   6.266   3.351  17.342 -0.1110  0.0217  0.3481
28237W        W45761   9.783  10.191  12.234  0.0184  0.2504 -0.1213
28238W        W45762  16.582   3.029  15.007  0.1127  0.1553 -0.0330
28239W        W45763   5.868  11.337   0.700  0.0949  0.0055  0.0587
28240W        W45764   3.020   1.318   0.518  0.2261 -0.0785  0.1061
28241W        W45765  14.324   6.222  16.794  0.0651 -0.0897 -0.0650
28242W        W45766  13.854   8.214   1.866 -0.0307 -0.0978  0.2197
28243W        W45767  14.164  16.401   1.951 -0.2202  0.1982  0.3542
28244W        W45768  11.536  11.600  12.917  0.2749 -0.0267  0.1513
28245W        W45769  11.894  16.297  13.353  0.1058 -0.1933  0.1801
28246W        W45770   3.060  12.339   5.016 -0.1321 -0.0392  0.2766
28247W        W45771   3.299  16.182   3.853 -0.2204  0.1514  0.4612
28248W        W45772  11.054  15.893  15.638  0.2035  0.2414 -0.0614
28249W        W45773  15.787  16.647  12.206 -0.2247 -0.1745  0.3395
28250W        W45774  14.262   7.073   5.381  0.0639  0.1375  0.1000
28251W        W45775   5.676   2.416  16.274  0.0215  0.1291  0.1393
28252W        W45776  15.598   3.780  15.824  0.1756  0.4834  0.3134
28253W        W45777  12.434  10.416  14.165  0.3935  0.1150 -0.0360
28254W        W45778  13.583   1.845  17.138  0.0679 -0.1232  0.3800
28255W        W45779  16.174   7.669   3.052  0.0297 -0.1494 -0.1270
28256W        W45780   8.334   0.551   0.231 -0.0739  0.1278  0.2301
28257W        W45781   1.594  14.721   4.761  0.3141 -0.1876 -0.1896
28258W        W45782   8.894   8.546   0.623  0.0092  0.0233 -0.1623
28259W        W45783   9.468   1.789   5.596  0.4419  0.2596  0.4995
28260W        W45784  14.441  12.318  10.932  0.0901  0.4612  0.0240
28261W        W45785   8.957  10.860   4.270  0.1674  0.1166  0.0501
28262W        W45786   7.553   4.989   1.216  0.0395  0.2642  0.0055
28263W        W45787   2.411   7.367   4.475  0.1003 -0.2345  0.1532
28264W        W45788   5.255   9.323  13.187 -0.1186 -0.1859 -0.0833
28265W        W45789  16.702  14.269   0.634  0.0596  0.2740 -0.0603
28266W        W45790  14.070  16.918  16.763  0.1262  0.2015  0.1891
28267W        W45791  12.568   7.515   2.259 -0.0464 -0.0376  0.2261
28268W        W45792   3.009  10.054  16.801  0.1282 -0.0981  0.1664
28269W        W45793  12.325  15.903  16.434  0.3005 -0.0815 -0.1062
28270W        W45794  16.314   0.177   3.215  0.0761  0.1697 -0.0125
28271W        W45795   2.244  13.197   2.547  0.1072 -0.1472  0.0209
28272W        W45796  16.028   2.910   0.707  0.1590  0.2181  0.1098
28273W        W45797  13.673   8.954   2.548  0.0731  0.0848 -0.0552
28274W        W45798   4.270   5.259   1.810 -0.0454  0.0166 -0.3221
28275W        W45799   3.661  12.228   0.616 -0.1324  0.0793 -0.0023
28276W        W45800   0.844  15.725  15.190  0.0498 -0.1112 -0.1776
28277W        W45801  13.453  13.987  16.796  0.0331  0.1529  0.0698
28278W        W45802  15.773  11.404  13.607 -0.0686 -0.0928 -0.0353
28279W        W45803  16.736  10.661   3.179  0.0363  0.4011  0.0811
28280W        W45804   4.059   3.592   3.852  0.1434  0.0019  0.0489
28281W        W45805  14.529   2.950   5.282 -0.2552 -0.0697 -0.2075
28282W        W45806   4.793   7.270  17.508  0.2351 -0.3244 -0.0856
28283W        W45807  16.779  11.926  16.524 -0.0691 -0.0059 -0.3829
28284W        W45808   2.993   4.192   2.606  0.1846 -0.1563  0.1147
28285W        W45809   1.897  15.093  15.614 -0.1145  0.2678  0.1430
28286W        W45810   2.314   5.017  12.585  0.3281  0.0974 -0.3171
28287W        W45811   6.285  14.638   2.102 -0.1813 -0.0764  0.0746
28288W        W45812   7.323   2.499  13.529  0.2898  0.3820  0.2387
28289W        W45813  15.591   9.309  12.264 -0.0822  0.2139  0.1158
28290W        W45814   1.532   5.601   5.058 -0.0792 -0.0552 -0.1325
28291W        W45815  16.467   2.955  16.332  0.0257 -0.2018 -0.0478
28292W        W45816   5.431   9.149  12.282  0.1588  0.2091 -0.1259
28293W        W45817   9.620  10.683  16.061 -0.1656  0.0989  0.3401
28294W        W45818  13.763  14.802   4.772 -0.1770  0.0340  0.1068
28295W        W45819   1.539   9.297  14.060  0.1601  0.2801  0.1143
28296W        W45820  10.198  10.433  12.079  0.1421  0.0367  0.1274
28297W        W45821  10.263   6.732  14.399 -0.2155  0.0492  0.1572
28298W        W45822   2.859  15.063   4.800 -0.1979  0.2608  0.1206
28299W        W45823   2.659  12.282  13.436 -0.2628 -0.1252  0.1822
28300W        W45824  10.621  11.593   2.004 -0.0313 -0.1311 -0.2562
28301W        W45825   0.497  14.150  17.230  0.1564 -0.4331  0.0368
28302W        W45826   1.757  16.158   1.127 -0.0274  0.1939 -0.3155
28303W        W45827   6.792  16.314  12.398  0.1928  0.2098  0.1633
28304W        W45828   2.462   0.645   0.531 -0.0756 -0.0369 -0.2433
28305W        W45829   2.682  13.538  15.487  0.2327  0.1744 -0.4624
28306W        W45830   3.569   0.257  17.546  0.0805  0.1569 -0.0562
28307W        W45831  10.943   9.444  11.860  0.3985  0.0089 -0.0459
28308W        W45832   2.741   2.226  14.485 -0.0598  0.0053 -0.2104
28309W        W45833  15.979  14.336  14.228 -0.0957  0.1483 -0.1135
28310W        W45834  15.593  12.142  13.889 -0.3464 -0.1783  0.0994
28311W        W45835   2.236   3.527   2.323  0.1487  0.0054  0.1825
28312W        W45836  13.365  15.526   2.837 -0.2673 -0.0000 -0.0273
28313W        W45837  10.409  13.446  17.004 -0.0426  0.2521  0.2269
28314W        W45838   3.457   7.874  14.042  0.0337  0.1016  0.1874
28315W        W45839   1.458   7.152   1.229 -0.0319  0.0421  0.1121
28316W        W45840   7.009  10.213   1.162  0.3669  0.0976 -0.3473
28317W        W45841   0.081   8.375   3.296 -0.0085 -0.0144 -0.1804
28318W        W45842  11.714   5.134  13.846 -0.0934 -0.2199  0.0809
28319W        W45843   8.662   8.707   3.750  0.0850  0.0337  0.1842
28320W        W45844   8.893   4.214   6.071 -0.2304 -0.1774  0.0060
28321W        W45845   1.255   6.939  12.040  0.0131 -0.0042  0.1086
28322W        W45846   3.162  16.778  17.128 -0.1832  0.1155  0.0792
28323W        W45847   5.790  11.583  13.363 -0.2131  0.2993  0.0133
28324W        W45848  14.837   0.087  16.547  0.1140  0.0069 -0.1401
28325W        W45849  15.548  13.268   0.369 -0.1299  0.1624  0.0200
28326W        W45850   6.269   7.461  17.616  0.0108 -0.0209  0.1300
28327W        W45851   1.554  14.324  15.728  0.0455  0.1488 -0.0148
28328W        W45852  14.406  12.996  12.086  0.4047  0.1533 -0.0825
28329W        W45853   4.113   4.548   4.546 -0.0544  0.3385  0.5438
28330W        W45854   7.580  10.417  16.957  0.1853 -0.1093  0.0258
28331W        W45855   1.322  11.229  16.721 -0.0473 -0.2919 -0.0149
28332W        W45856   6.207   1.998   2.096  0.2723 -0.0191 -0.0408
28333W        W45857   6.660   1.971   1.835 -0.1536 -0.0022  0.2603
28334W        W45858  12.149   1.134  15.355  0.2423  0.2125  0.2114
28335W        W45859   7.959  16.871   4.538 -0.1917  0.3228 -0.2422
28336W        W45860  10.907  16.123  17.553  0.3065 -0.1793 -0.0736
28337W        W45861   2.691   1.973   5.387  0.1227 -0.0173 -0.0108
28338W        W45862   9.438   2.845  12.519  0.2906  0.0638  0.0811
28339W        W45863  11.076   3.197  13.291  0.0560  0.3308  0.1750
28340W        W45864  15.033   4.046   2.032 -0.0957 -0.1083  0.2130
28341W        W45865  10.437  15.929  13.258 -0.0263 -0.0373 -0.1734
28342W        W45866   4.302  13.309   2.649  0.0532 -0.2189 -0.1064
28343W        W45867   8.021  16.533   0.329  0.1200 -0.2641 -0.0827
28344W        W45868  12.962   0.283  13.310  0.1090 -0.0388  0.0057
28345W        W45869  12.247   1.668   4.037 -0.0984 -0.1102 -0.3760
28346W        W45870  13.113   7.359  15.234 -0.0278 -0.1059  0.1644
28347W        W45871  11.973  15.482  14.772  0.0259  0.0995 -0.1447
28348W        W45872   6.761   2.006  15.717 -0.2381  0.0064  0.3385
28349W        W45873   8.760  16.006  16.349  0.0270 -0.0126  0.2390
28350W        W45874   6.565  15.051   2.270  0.0581  0.0890  0.1910
28351W        W45875   9.838  13.855   3.113  0.2458 -0.0525 -0.1158
28352W        W45876   0.895   9.748  13.496  0.1139 -0.1556  0.1525
28353W        W45877  14.783  16.974   1.017 -0.0273  0.2171 -0.2236
28354W        W45878   2.827   7.876  14.388 -0.2306  0.2433  0.0394
28355W        W45879  13.433  16.669   2.109  0.3212 -0.1101 -0.0410
28356W        W45880   0.149   3.555   2.493 -0.0530 -0.4266 -0.2557
28357W        W45881  11.937   6.858  17.155 -0.0422  0.2411  0.1057
28358W        W45882   9.208   2.294   3.686 -0.1534 -0.1700  0.1554
28359W        W45883  10.013   2.397   3.413  0.2000  0.3352  0.3124
28360W        W45884   0.735  13.112   4.955 -0.1210  0.1028 -0.2708
28361W        W45885  10.321   4.725  14.175  0.0504  0.0260  0.1244
28362W        W45886   0.022   5.847  14.143 -0.0090  0.2583 -0.5229
28363W        W45887  12.790   3.563  13.377 -0.0132  0.2316 -0.1036
28364W        W45888   8.257   0.497  13.169  0.0797  0.1336  0.1048
28365W        W45889   5.573   6.230   1.050  0.0839 -0.1197  0.0129
28366W        W45890  11.402   3.608  15.062  0.4438 -0.2476 -0.2039
28367W        W45891  14.985   8.710  16.199 -0.0143 -0.1805  0.1264
28368W        W45892   5.478   6.645   1.839  0.1470  0.0350  0.2160
28369W        W45893  15.647  13.233   2.207  0.2592 -0.1800  0.1629
28370W        W45894   6.468   3.338  16.849  0.0366 -0.0800 -0.2354
28371W        W45895   9.484   4.150   2.160 -0.3594  0.0536 -0.0466
28372W        W45896  15.085  12.932   5.176 -0.1283 -0.0374 -0.2174
28373W        W45897  16.790  12.831   3.934  0.2614 -0.1038 -0.0065
28374W        W45898   7.740   1.360  13.829  0.0771  0.1584  0.1651
28375W        W45899   8.880  15.357  17.440  0.0031  0.2161 -0.2141
28376W        W45900  11.838   4.949  15.972 -0.3466  0.0303  0.1643
28377W        W45901  14.374   8.887   4.594 -0.0216 -0.3274  0.0449
28378W        W45902  16.589   8.137  14.263 -0.3104  0.2452 -0.0173
28379W        W45903   3.358  12.688  17.272  0.0524  0.1632 -0.1864
28380W        W45904   1.949   5.904   2.681 -0.3991  0.0518  0.1289
28381W        W45905  16.201  10.422  17.555  0.2223  0.1276 -0.0939
28382W        W45906   6.257   7.567  14.153  0.0435 -0.1451 -0.0349
28383W        W45907   4.240  16.398   3.014 -0.0579  0.2212  0.0706
28384W        W45908   5.368   4.906   3.697  0.2639 -0.0649  0.2211
28385W        W45909   3.925   8.231   1.233  0.0038 -0.1662  0.1923
28386W        W45910  12.221   7.860   5.293 -0.1612  0.0864  0.2590
28387W        W45911  14.401   6.530  15.653  0.0680  0.0911 -0.3454
28388W        W45912  15.370  14.625   1.103  0.0865 -0.0627  0.2367
28389W        W45913  14.287   2.998  14.815 -0.0492 -0.2882 -0.2047
28390W        W45914  10.873  13.457  14.770  0.0567 -0.0318 -0.1537
28391W        W45915  16.016  16.220   4.158  0.1113  0.3283  0.0065
28392W        W45916  11.170   7.397  12.892 -0.0706 -0.0012 -0.3353
28393W        W45917  12.951  11.004   1.712 -0.0080  0.0779 -0.1496
28394W        W45918  10.904   1.195  15.275  0.2977  0.1117  0.2002
28395W        W45919   5.390  11.320   6.771 -0.0471  0.2465  0.1111
28396W        W45920   1.822   0.377  13.714 -0.1097 -0.0397  0.0821
28397W        W45921  10.825  15.311   3.229  0.1209 -0.0138  0.0690
28398W        W45922   6.996  15.836  17.608 -0.1900 -0.1025  0.1019
28399W        W45923   7.114   5.098  12.743  0.1458 -0.1984  0.0311
28400W        W45924   3.171   9.657   4.188  0.1008  0.1523 -0.2766
28401W        W45925   1.789   5.099  17.413  0.3578 -0.1312  0.2525
28402W        W45926  12.649  16.682   0.722  0.3086  0.1212  0.0492
28403W        W45927  12.607   3.866  16.372 -0.3396 -0.1138 -0.1682
28404W        W45928  15.231   6.368  13.094 -0.0837 -0.1912  0.0743
28405W        W45929   2.992   8.166   0.258 -0.1333 -0.1255 -0.0265
28406W        W45930  16.406  14.163  12.430 -0.4596 -0.1337 -0.1034
28407W        W45931  11.085   3.155   3.310 -0.1683  0.0176  0.1108
28408W        W45932   7.433   8.603   4.645  0.1423  0.2347  0.3731
28409W        W45933  16.540  15.626  11.983  0.0174  0.0936 -0.1077
28410W        W45934   0.794  12.039   3.982 -0.1010 -0.3661  0.1675
28411W        W45935   1.404   2.432  14.976  0.0920 -0.1561  0.1977
28412W        W45936  17.094   4.575   2.560 -0.1222  0.0404  0.0913
28413W        W45937   4.769  10.085   3.292  0.1961  0.2729 -0.2107
28414W        W45938  12.456   5.825   5.112 -0.0867  0.1974  0.0910
28415W        W45939   0.045  11.702   3.557 -0.3211  0.0428 -0.4433
28416W        W45940   3.125   3.886   4.736 -0.1968  0.1685 -0.0138
28417W        W45941  12.898   9.583  13.608 -0.0505 -0.0604  0.1620
28418W        W45942   6.204  10.113  13.113  0.1414 -0.3013 -0.0881
28419W        W45943  12.353   9.494   0.319  0.1285  0.1564 -0.2087
28420W        W45944   8.909  15.246  12.510 -0.0301 -0.4115 -0.0054
28421W        W45945  14.623  11.463  13.010 -0.0883 -0.2182 -0.2642
28422W        W45946   5.571   9.161   2.738 -0.1159 -0.0789  0.1732
28423W        W45947   3.737   8.899   3.631 -0.0992 -0.1965 -0.2728
28424W        W45948   2.215   3.393   4.607 -0.2142  0.1257 -0.2191
28425W        W45949   3.682   0.998   0.864  0.4047 -0.0091  0.1050
28426W        W45950  14.144  12.661  12.730  0.1850  0.1713  0.2838
28427W        W45951   7.427   4.671   5.701  0.2594  0.0757 -0.0080
28428W        W45952   5.454   0.686  13.656  0.0098  0.3383  0.2212
28429W        W45953   4.420   3.774   0.337  0.0860  0.0222 -0.0818
28430W        W45954   2.700  15.009  14.794 -0.0244  0.0570 -0.2460
28431W        W45955   8.650   1.228  13.714 -0.1556  0.2292 -0.0934
28432W        W45956   3.493   1.113  14.577 -0.0167 -0.0182  0.2442
28433W        W45957  16.888  14.416   1.736  0.0149 -0.0299  0.1647
28434W        W45958   0.872   3.087  13.748  0.2890  0.0518 -0.1710
28435W        W45959   9.468   3.698  15.921 -0.3226  0.1306  0.4670
28436W        W45960   7.447   3.516  16.434 -0.2233 -0.0358 -0.0355
28437W        W45961   4.694  10.179  14.401  0.2884 -0.1112 -0.1262
28438W        W45962  15.450   4.385   0.749 -0.0118  0.1780  0.1249
28439W        W45963  11.897   7.459  15.969  0.2138  0.3812 -0.0965
28440W        W45964   2.679  15.025   1.410  0.3979 -0.0844  0.2819
28441W        W45965  14.097  17.025  17.623  0.0951 -0.1983 -0.1414
28442W        W45966   9.545  10.993  14.150 -0.0090  0.3092 -0.0472
28443W        W45967   8.761  16.915   2.365 -0.0518 -0.1498  0.0173
28444W        W45968   1.956  11.930  14.621 -0.0067  0.0679 -0.3143
28445W        W45969  15.255   0.127   1.441 -0.2021  0.0220  0.0693
28446W        W45970   8.729  16.924  14.185 -0.0920  0.0018 -0.0625
28447W        W45971  12.228   6.125   2.305  0.4986 -0.2114  0.0794
28448W        W45972   5.146   5.712   3.215  0.3632  0.1725 -0.0687
28449W        W45973   3.539   4.908   1.315 -0.0157 -0.2339 -0.2372
28450W        W45974   8.889   1.973  13.439 -0.0197 -0.0082 -0.0603
28451W        W45975   6.204   4.314  17.284  0.0805 -0.0962 -0.1096
28452W        W45976   0.156  10.888   4.333  0.0979 -0.0773 -0.0836
28453W        W45977  15.898   0.652   1.567  0.1949  0.0324 -0.5414
28454W        W45978  12.148   7.269   2.563 -0.0441  0.0680  0.0504
28455W        W45979   2.215   1.993  14.776  0.2302  0.0285 -0.0159
28456W        W45980   8.270   3.420  15.784 -0.2551 -0.0674 -0.1171
28457W        W45981   6.667  13.663  16.563  0.0822 -0.0331  0.2137
28458W        W45982  10.498  15.797   1.762  0.1916  0.2789 -0.1532
28459W        W45983  13.781  12.715   2.012  0.2776  0.0182  0.1998
28460W        W45984   3.596  13.992  14.486  0.0738 -0.0394  0.1602
28461W        W45985   0.528   3.337   5.179 -0.2325  0.1744  0.3282
28462W        W45986  15.937  10.987   2.865  0.1187  0.3784  0.0439
28463W        W45987   7.806  15.318  14.140  0.1409 -0.1612  0.0641
28464W        W45988  12.807   0.928  17.527  0.0382 -0.1198  0.0348
28465W        W45989  15.965  14.627  16.248 -0.2768 -0.2328  0.0625
28466W        W45990  10.832  10.126  15.938 -0.4012 -0.0680  0.1940
28467W        W45991  12.770   1.896   6.000  0.2174 -0.1132  0.1647
28468W        W45992   5.843   9.274  17.621  0.5549  0.0683  0.0865
28469W        W45993   5.015  10.397  14.841 -0.2339 -0.2621  0.1113
28470W        W45994  15.910   9.407   0.665  0.1159 -0.1044 -0.0987
28471W        W45995  14.617  11.945  14.916 -0.4300 -0.1447 -0.0298
28472W        W45996   3.208  13.107   2.208  0.0143  0.0908 -0.0506
28473W        W45997  14.714   4.200   0.967 -0.1348 -0.1282 -0.1375
28474W        W45998   6.923  10.748   1.994 -0.0688 -0.4711 -0.0954
28475W        W45999  12.600   7.859  12.628 -0.3013 -0.5140 -0.3499
28476W        W46000  12.442   0.224  17.324  0.0129 -0.0353  0.0097
28477W        W46001  11.437   9.890   4.387 -0.3703  0.2784  0.0279
28478W        W46002   0.024   3.379   4.076  0.0030  0.2205  0.0198
28479W        W46003   7.098   4.699   5.245  0.0728 -0.3789  0.1810
28480W        W46004  16.473  15.931  13.757 -0.0039 -0.2894  0.0537
28481W        W46005   8.606   5.522   5.190  0.0114  0.1982 -0.0155
28482W        W46006   2.652  13.344   1.226  0.1260 -0.2827 -0.6063
28483W        W46007   1.517  10.540   3.461  0.2967 -0.1308 -0.0431
28484W        W46008   9.799   4.333   1.794 -0.3177  0.2888  0.0234
28485W        W46009   4.739  11.443   2.485  0.2279  0.1590 -0.0718
28486W        W46010   9.558   0.586   0.435  0.0557  0.4015 -0.0560
28487W        W46011   0.154   0.706   4.208  0.0132  0.0701 -0.0796
28488W        W46012  14.879   9.292   0.709  0.1628  0.0724  0.0999
28489W        W46013  13.565  12.574   1.592  0.1015 -0.0824 -0.1253
28490W        W46014   5.517   7.299  14.765  0.1035 -0.0437  0.1660
28491W        W46015   5.092  10.814   4.200 -0.0657  0.4393 -0.0865
28492W        W46016  14.565  12.531  17.433 -0.1446  0.2311 -0.0623
28493W        W46017  16.207  12.252   2.291  0.1390  0.1344  0.3369
28494W        W46018  17.201  13.571   1.196 -0.0892 -0.2336  0.1716
28495W        W46019   8.695   5.621   2.310  0.1747  0.2161  0.0797
28496W        W46020   4.213   7.820  14.335  0.2536  0.1613  0.1365
28497W        W46021  11.807   6.380  14.250  0.0917 -0.2386 -0.2297
28498W        W46022   9.899  15.914   4.305 -0.0452  0.0308 -0.0073
28499W        W46023   3.033  15.854   4.567 -0.3625 -0.0610  0.0535
28500W        W46024   2.342   7.587   6.011  0.0701 -0.0397 -0.1284
28501W        W46025  10.867   7.057  16.444 -0.0756  0.2302  0.0592
28502W        W46026   6.133   3.085  12.964 -0.0144 -0.1357  0.1141
28503W        W46027   9.299  10.179   1.475 -0.2246 -0.0243 -0.1376
28504W        W46028   1.866  13.245   1.552  0.0036 -0.3093 -0.0860
28505W        W46029  13.683  17.031  14.032  0.0458  0.1849  0.4008
28506W        W46030  17.092   5.744   0.417  0.2901  0.1137  0.3823
28507W        W46031   3.470   3.320   0.470 -0.1553 -0.0173  0.0343
28508W        W46032   3.805  14.625   2.159 -0.2163  0.0076  0.1142
28509W        W46033  10.046  16.727   4.005 -0.0331  0.0974 -0.0673
28510W        W46034  11.021  15.536   2.000 -0.2339 -0.1645 -0.1397
28511W        W46035   5.053  11.264   4.016  0.1103  0.1713 -0.3491
28512W        W46036   5.179  16.531   5.039  0.0817 -0.2311  0.0292
28513W        W46037   2.038   7.984  13.119 -0.2557 -0.0548  0.0175
28514W        W46038   4.038  13.806   0.646 -0.0190  0.0341  0.0296
28515W        W46039   4.500   2.575  15.109  0.3079  0.3903 -0.2743
28516W        W46040  16.518   5.644   5.978  0.1236  0.1055  0.0169
28517W        W46041   9.946   8.235  15.857  0.1278 -0.0716 -0.1163
28518W        W46042   0.079  12.820   0.545 -0.0810 -0.3146  0.0322
28519W        W46043   5.568   7.104  13.823  0.0055  0.0460 -0.0419
28520W        W46044   0.535  14.480   4.354 -0.0463  0.2605  0.5366
28521W        W46045   7.294   4.916   2.263 -0.2404  0.2237 -0.0098
28522W        W46046  14.609   8.288  13.987  0.0640  0.3252 -0.0309
28523W        W46047  10.458   3.420  14.569  0.0370 -0.1433 -0.1097
28524W        W46048  14.519   5.552   2.197 -0.3584 -0.0975 -0.0179
28525W        W46049  16.530  10.092  13.128  0.2270  0.1058  0.0020
28526W        W46050  12.268   1.906   1.644  0.1253  0.3756  0.0625
28527W        W46051   0.376   3.666   3.794  0.1332 -0.0167 -0.0930
28528W        W46052   7.337   4.031  15.407 -0.0402  0.0972 -0.0898
28529W        W46053   3.289   2.035  14.464  0.1681  0.4759  0.1378
28530W        W46054  12.081   5.992   3.323 -0.1082 -0.0098 -0.1069
28531W        W46055   5.959  10.889   2.834 -0.0355  0.3245  0.2362
28532W        W46056  17.204  15.146   2.761 -0.1165 -0.0466 -0.1394
28533W        W46057   0.208   8.255  17.094  0.1364  0.2571  0.2678
28534W        W46058  11.230  13.740   0.568 -0.0390 -0.3706  0.0717
28535W        W46059  13.670   6.080   3.578 -0.0861 -0.4796 -0.2454
28536W        W46060   8.082   9.031   4.416 -0.1868 -0.0307  0.1168
28537W        W46061   2.925   8.868  12.163 -0.1894  0.1853  0.1596
28538W        W46062  15.150  15.671   3.212 -0.0807  0.1096  0.2794
28539W        W46063  16.662   3.513  16.649 -0.1997 -0.3030 -0.1220
28540W        W46064   0.496   0.107  14.024  0.0601 -0.0331 -0.0417
28541W        W46065   4.780   3.988   2.212 -0.0159  0.1218  0.1985
28542W        W46066   1.239   4.611  13.150  0.0039 -0.3002 -0.0051
28543W        W46067  10.255   9.280  15.033 -0.0648 -0.2173  0.1857
28544W        W46068   6.705  17.089   5.354 -0.0805 -0.0448  0.0650
28545W        W46069   2.726  11.532  11.384  0.0147 -0.4679  0.0739
28546W        W46070   7.184   4.315   1.483 -0.2096 -0.1418  0.1154
28547W        W46071   5.692   1.510  14.557 -0.0237  0.2405  0.2912
28548W        W46072  15.394   9.465   5.273 -0.1410 -0.0366 -0.3105
28549W        W46073  11.392  14.166  15.873 -0.2360  0.1077 -0.1114
28550W        W46074   0.258   5.814  16.751  0.1992 -0.1308 -0.1300
28551W        W46075   4.325  17.149   2.035 -0.0338 -0.1780  0.0433
28552W        W46076  11.511  12.750  13.828 -0.4578 -0.0461 -0.3189
28553W        W46077  12.064   1.978   0.231  0.0925  0.4113  0.2159
28554W        W46078  17.144  13.986   4.114  0.0350  0.1680 -0.0686
28555W        W46079   5.745  16.000   0.092 -0.0687 -0.1248  0.0258
28556W        W46080   0.725  11.982  13.980 -0.4501 -0.0294 -0.0386
28557W        W46081  11.901   1.068   5.879 -0.0891 -0.0792 -0.1571
28558W        W46082   8.438  15.814   5.153  0.0518  0.0272 -0.0435
28559W        W46083   3.256  17.116  17.469 -0.1333 -0.0207  0.0353
28560W        W46084   1.355   6.511  13.919 -0.0519  0.1109 -0.4397
28561W        W46085   0.011  12.062  16.578 -0.1055 -0.1368  0.0874
28562W        W46086   1.086  14.052   1.320 -0.1368  0.0252  0.1555
28563W        W46087   9.803   5.041   3.477 -0.6476 -0.0878 -0.1666
28564W        W46088   3.254   7.310   3.430 -0.0783  0.1945 -0.0425
28565W        W46089   3.518   1.775   2.923 -0.2425 -0.2525  0.3401
28566W        W46090   5.308   7.694  15.036  0.0497 -0.0563 -0.1342
28567W        W46091   0.975  12.378  15.368 -0.0440  0.6048  0.1314
28568W        W46092  11.864   2.511   0.232  0.1432  0.1589  0.1171
28569W        W46093  14.679   1.498  14.459 -0.1983 -0.0096  0.3066
28570W        W46094  15.875   7.750   0.792  0.3647 -0.0965 -0.0101
28571W        W46095  15.616   7.353   5.422 -0.0797 -0.0560  0.0112
28572W        W46096  13.979   7.281  11.616  0.1602 -0.1202 -0.3215
28573W        W46097   1.263  10.815  12.509 -0.2982 -0.3779  0.0235
28574W        W46098   5.216   2.111  14.399 -0.2231  0.1211 -0.3406
28575W        W46099   3.357   0.546  12.182 -0.0543 -0.0854 -0.2478
28576W        W46100   9.111   4.029   2.561 -0.0120  0.0026  0.2745
28577W        W46101   8.810   6.014   3.560  0.0996 -0.2050 -0.0696
28578W        W46102   4.020   9.057   5.356 -0.1271  0.2532 -0.3324
28579W        W46103   0.935  17.071  16.800  0.1202  0.0134 -0.1802
28580W        W46104   1.017   9.896   4.642  0.0743 -0.0542  0.0610
28581W        W46105   2.402   3.245   2.718 -0.1943 -0.3391  0.1219
28582W        W46106   1.187  15.745  16.824  0.0471  0.1909 -0.3632
28583W        W46107  12.381   2.778   2.546  0.1307 -0.1278  0.2618
28584W        W46108   5.221  13.434   1.180  0.1134  0.4012 -0.4024
28585W        W46109   5.848  13.803   4.401 -0.1506 -0.1742  0.0374
28586W        W46110  16.910  15.842   5.217  0.1342  0.2670  0.0211
28587W        W46111   2.644   0.438   0.924  0.1151 -0.0480 -0.1222
28588W        W46112   7.728   3.206  13.392 -0.0805 -0.1057  0.1635
28589W        W46113  17.105  12.132   4.482  0.0745 -0.0402 -0.1503
28590W        W46114   0.109  10.668   0.242  0.2696  0.0570  0.0168
28591W        W46115   3.395   2.493  13.214 -0.1214  0.1911  0.0846
28592W        W46116  14.643  15.409   5.083 -0.2189  0.1413 -0.1765
28593W        W46117   3.637   0.650  16.618  0.2749 -0.0079 -0.2915
28594W        W46118  12.951   1.636  13.070  0.2986  0.2188  0.1107
28595W        W46119   5.504   0.388   0.025  0.0870  0.2233  0.2310
28596W        W46120  14.367  17.244   5.498  0.1023  0.0169 -0.0256
28597W        W46121  11.236   2.503   2.851  0.1156 -0.0503 -0.0537
28598W        W46122  12.344   9.934  12.107  0.0037 -0.1653 -0.2329
28599W        W46123  11.673  11.397   1.783 -0.1015  0.2078  0.1471
28600W        W46124   2.907  16.968  12.360  0.3256 -0.2365  0.1050
28601W        W46125  15.646  11.432  16.567 -0.0244  0.0244  0.2030
28602W        W46126  16.390  12.567  13.239  0.2335  0.0719 -0.2593
28603W        W46127  14.375   7.878   1.214 -0.0782  0.0254  0.0958
28604W        W46128   7.972  10.132   3.858 -0.0739 -0.0477  0.2814
28605W        W46129   0.742  11.543   4.006  0.2380  0.1995 -0.0638
28606W        W46130   1.673   6.830   4.082 -0.0656  0.1827  0.0627
28607W        W46131  11.321  15.492   3.443 -0.1373 -0.0229 -0.2364
28608W        W46132   1.956   5.577  14.686 -0.0913  0.1375 -0.0563
28609W        W46133   6.645   9.211   3.383  0.1162  0.2089 -0.0484
28610W        W46134   7.124  12.065  16.445  0.0884 -0.1819 -0.1435
28611W        W46135  11.763  12.726   0.838 -0.1138 -0.1989  0.1557
28612W        W46136   8.509   3.323   1.289  0.0101 -0.0781 -0.3107
28613W        W46137  12.709   9.585  12.328 -0.1319  0.2276  0.1644
28614W        W46138   2.028   3.392  15.155 -0.0481 -0.1349  0.1910
28615W        W46139  11.287  10.179   0.763 -0.1865 -0.0438  0.1556
28616W        W46140  15.878  14.369   3.638 -0.3067  0.1829 -0.1955
28617W        W46141   3.494   5.386  15.927  0.2255 -0.1123  0.0612
28618W        W46142   4.377   0.254  13.567  0.0709 -0.3269  0.2542
28619W        W46143   7.640   7.697  15.934  0.0273  0.0701 -0.1919
28620W        W46144  16.550   4.347   4.466 -0.0505 -0.0083 -0.1301
28621W        W46145   5.075   3.011  16.911  0.2605 -0.0520  0.0452
28622W        W46146  15.910  10.967   4.537 -0.1557 -0.0722 -0.1521
28623W        W46147  11.338   5.734  15.876 -0.1467  0.0228  0.1052
28624W        W46148  13.962   8.076   4.491 -0.0279 -0.0874  0.0511
28625W        W46149  16.340   5.512  11.892  0.3643 -0.1442  0.1325
28626W        W46150   2.911   6.315  16.387 -0.1804 -0.0612  0.0007
28627W        W46151  12.064   2.137  16.078  0.1162  0.0179 -0.0452
28628W        W46152   1.717  16.329  17.343 -0.2045  0.1126 -0.1771
28629W        W46153   7.254   1.208   3.382 -0.2928  0.0137 -0.0738
28630W        W46154   3.224  14.056  17.353  0.0766  0.2789 -0.0945
28631W        W46155   9.095   8.552  16.934  0.1721 -0.0210  0.0307
28632W        W46156  14.640   3.779  12.194  0.3544 -0.0814 -0.1380
28633W        W46157   6.322   4.633  12.711 -0.0979  0.1593 -0.0961
28634W        W46158  11.823   8.993  12.427  0.0109 -0.1652  0.1064
28635W        W46159  15.157  16.417  11.967  0.0813 -0.2692 -0.0693
28636W        W46160  11.783   0.367  13.544  0.0332 -0.0360  0.2310
28637W        W46161  10.214   2.422  16.212 -0.0998  0.0647 -0.0488
28638W        W46162   6.939  12.218  11.390  0.0057  0.1158 -0.1735
28639W        W46163   9.729   0.366   4.456 -0.1528  0.0232 -0.0414
28640W        W46164  16.444   6.728  17.009 -0.3468 -0.1881 -0.2123
28641W        W46165  13.583  11.981   2.511 -0.2349 -0.3585  0.0408
28642W        W46166   7.356   4.311   4.892  0.5641 -0.0525 -0.1723
28643W        W46167   4.336   9.692  15.861  0.1850  0.3876 -0.0581
28644W        W46168  16.683   4.612  13.749 -0.0639 -0.0482 -0.0256
28645W        W46169   1.452  11.535  17.151  0.0293  0.2622 -0.0919
28646W        W46170  13.281  11.556   0.384  0.1435 -0.1370 -0.1759
28647W        W46171   1.613   4.302  12.279 -0.1193  0.1806 -0.2852
28648W        W46172   7.300   7.333   3.771  0.0741 -0.0480  0.0824
28649W        W46173   4.037  12.473  13.499 -0.2691  0.0860  0.0849
28650W        W46174   9.479   9.435   4.552  0.0873  0.0035 -0.0526
28651W        W46175  10.069  12.513   0.830 -0.2400  0.0933  0.2735
28652W        W46176   9.858   3.613  12.257 -0.2871  0.0485 -0.1644
28653W        W46177  12.924   6.847  16.361 -0.2041  0.0733  0.1470
28654W        W46178   1.452  15.965  12.421 -0.1521  0.2225  0.2072
28655W        W46179   1.174   2.296  16.052 -0.2070 -0.1517  0.2573
28656W        W46180   9.274   4.258  14.238 -0.1020 -0.1862 -0.0506
28657W        W46181   2.817   7.119  15.891  0.2656 -0.2007  0.2692
28658W        W46182  16.490   3.020  17.418  0.3515  0.2462  0.2172
28659W        W46183  17.007   3.206   2.766  0.2619  0.0840  0.0103
28660W        W46184   9.801   3.840   5.584  0.1343 -0.0007 -0.1860
28661W        W46185  15.806   6.732   4.695 -0.1639  0.0130  0.0094
28662W        W46186  13.639  15.657   3.398 -0.0305  0.2881 -0.3722
28663W        W46187   6.393  10.108  15.332  0.1130 -0.0235 -0.1572
28664W        W46188  16.577   6.447  15.111  0.2044  0.0320 -0.0478
28665W        W46189  14.516   3.669  16.683 -0.2484  0.0632 -0.3616
28666W        W46190  13.908  15.298   1.159  0.0470 -0.0042  0.0489
28667W        W46191   8.134  11.142  13.426  0.0174  0.1488 -0.0818
28668W        W46192   7.991  12.352  12.836 -0.0383 -0.0138 -0.0016
28669W        W46193  10.688   0.099  15.743  0.1803  0.2369  0.2854
28670W        W46194  14.393   9.605  12.553 -0.3195  0.3068 -0.1090
28671W        W46195  15.647   2.167  16.769  0.1012  0.1668  0.2719
28672W        W46196  15.028  12.849   3.900  0.1217 -0.0375  0.0490
28673W        W46197  16.535  13.744  16.653  0.0750  0.0533  0.4161
28674W        W46198   5.919  12.201   1.147 -0.1536 -0.0293  0.0470
28675W        W46199   5.880  17.239  17.044  0.3215 -0.1208  0.3124
28676W        W46200   0.315  12.746  13.958 -0.0150 -0.0825  0.0006
28677W        W46201  12.390   5.558  15.341 -0.1331  0.1108 -0.0713
28678W        W46202   0.436   0.727   4.732  0.0980  0.0274  0.3158
28679W        W46203   8.615  14.937  13.526 -0.0144 -0.0801  0.0557
28680W        W46204   2.453   5.373  15.963  0.0302 -0.0215 -0.0173
28681W        W46205   3.218  14.757   4.992 -0.1936  0.1638  0.0385
28682W        W46206   3.970  10.569   0.831 -0.1284  0.0456  0.1144
28683W        W46207  14.078  12.057   2.703 -0.1323  0.1188 -0.1145
28684W        W46208  11.258  15.459  13.950  0.2147 -0.2730  0.0018
28685W        W46209   0.126   6.095  12.516  0.1678  0.1571 -0.0531
28686W        W46210   7.264   1.865   4.754  0.1449 -0.4879 -0.0475
28687W        W46211   8.313   0.262  14.649 -0.0508  0.0393 -0.1541
28688W        W46212   1.638   8.906   1.953 -0.2747  0.0217 -0.3609
28689W        W46213  11.678   7.959   0.527  0.1112 -0.1505 -0.2255
28690W        W46214   2.048   0.972  14.547 -0.4427  0.0539  0.0336
28691W        W46215  12.215  14.364   5.499  0.3055 -0.2763  0.1687
28692W        W46216   8.193  16.779   2.561  0.0625  0.0373  0.0559
28693W        W46217   8.350   2.184  13.333 -0.2985 -0.1695  0.0175
28694W        W46218   1.828   7.864  14.430  0.0025 -0.0960  0.0163
28695W        W46219   7.838  16.902  13.430  0.1604 -0.2002  0.0536
28696W        W46220  11.430   8.233   6.183  0.0521 -0.3095 -0.1408
28697W        W46221   3.704  16.969   1.371 -0.1881 -0.1310 -0.0266
28698W        W46222   2.585   5.155  13.035 -0.0458 -0.0508 -0.2697
28699W        W46223   2.231   8.963  14.833 -0.1085 -0.4660 -0.0786
28700W        W46224  11.926   4.388  15.929  0.1615 -0.2124  0.2144
28701W        W46225   9.263   4.863   3.745  0.2886 -0.3707 -0.2456
28702W        W46226  16.844   2.670   1.198 -0.2012  0.2861 -0.0697
28703W        W46227   8.732   4.527   4.264 -0.2401  0.1707  0.0171
28704W        W46228   7.383   7.976   5.295  0.0331  0.4299 -0.2700
28705W        W46229   4.464   6.685   4.038 -0.0753 -0.0471  0.0447
28706W        W46230   0.221  10.075  16.703  0.1391 -0.0281 -0.1006
28707W        W46231  17.143   0.370   5.502 -0.3393 -0.0605 -0.3857
28708W        W46232   4.199  15.269  14.749  0.0223 -0.2408  0.1457
28709W        W46233   7.268   7.767  12.969 -0.1276  0.1845 -0.1804
28710W        W46234  16.337  14.719  14.269  0.2392  0.1063  0.3112
28711W        W46235   3.356  14.736   2.663  0.0516  0.1216 -0.1113
28712W        W46236   4.754   4.455   0.868 -0.1513  0.1645 -0.0166
28713W        W46237   5.422  15.560   0.269  0.2339 -0.2122 -0.0912
28714W        W46238   7.352   9.256   3.809  0.1596 -0.0550  0.0335
28715W        W46239   5.514  14.261   0.577 -0.3110  0.0041 -0.1150
28716W        W46240  10.543   8.929  13.685  0.0919 -0.1842 -0.3229
28717W        W46241   4.741   0.166  14.963 -0.0795  0.0395 -0.0627
28718W        W46242  11.120   8.494  11.899  0.0316  0.0487 -0.0894
28719W        W46243   4.760   6.039  14.345  0.1056  0.0327  0.0707
28720W        W46244  15.250   6.808  11.242  0.1048  0.1347 -0.0501
28721W        W46245  15.304   5.331  14.986 -0.1641 -0.1093 -0.3066
28722W        W46246  16.325  16.618  15.560  0.2761  0.0619 -0.3909
28723W        W46247   3.166   9.111  15.074 -0.1080 -0.0305  0.1635
28724W        W46248   9.522  12.174  15.604  0.1136  0.1419  0.0316
28725W        W46249   7.964   3.917   0.842 -0.0951  0.0970  0.0215
28726W        W46250   5.028   8.060   4.419 -0.3120  0.3691 -0.3538
28727W        W46251  12.230   3.251   2.553  0.1386  0.1373  0.0748
28728W        W46252  12.173   2.244  14.471 -0.1643  0.1397 -0.2871
28729W        W46253  12.139  12.883  13.291  0.0173  0.0910  0.2066
28730W        W46254  16.963   4.291  17.134  0.1973  0.2747 -0.0211
28731W        W46255   6.129  11.576   3.749 -0.0263 -0.0406 -0.3295
28732W        W46256  10.177  11.752  15.178 -0.1396 -0.1503 -0.2516
28733W        W46257   2.805   9.914  14.003 -0.0313 -0.0428  0.1116
28734W        W46258   8.522   5.111   4.339 -0.0202  0.0890  0.1859
28735W        W46259   9.201   9.630  17.647 -0.2138 -0.0385  0.0026
28736W        W46260  11.078  11.718  15.679 -0.0703  0.0167  0.1033
28737W        W46261   2.770  12.172   3.855  0.0770 -0.3097  0.1202
28738W        W46262   5.711   7.841   5.445  0.6773  0.0005  0.2119
28739W        W46263   8.861   0.864   3.700 -0.1131  0.1031 -0.2073
28740W        W46264  13.370   4.655  17.460 -0.1039 -0.0406 -0.2623
28741W        W46265   7.406   0.825  15.133 -0.4914  0.3842  0.1783
28742W        W46266  11.602   9.489  16.129  0.0578  0.1263 -0.0158
28743W        W46267  14.900   6.807  13.116 -0.1077 -0.0846 -0.1142
28744W        W46268  12.042   5.109  13.383  0.3297  0.1258 -0.2294
28745W        W46269   8.602   9.533   0.621 -0.3048  0.0624 -0.1324
28746W        W46270  16.465  15.787   4.322 -0.1914  0.0192 -0.1116
28747W        W46271   4.947  12.865   0.106 -0.1155 -0.1573  0.1128
28748W        W46272  12.129   0.569   1.927  0.0849  0.0463  0.0414
28749W        W46273   5.444  12.444   3.372 -0.0985 -0.0085 -0.2133
28750W        W46274   5.210   7.698  16.856 -0.2411  0.0341 -0.0162
28751W        W46275   6.502   6.821   3.498 -0.1545 -0.2239 -0.0742
28752W        W46276  17.033  15.898   1.360  0.0637  0.1420  0.2386
28753W        W46277   3.366   5.836  15.690 -0.1105  0.1195  0.0003
28754W        W46278   4.675   1.148  11.971 -0.0520  0.2773  0.2351
28755W        W46279   1.782  15.465   1.276 -0.1414 -0.2215  0.2175
28756W        W46280   6.576  10.111   3.184 -0.0650  0.1308 -0.1675
28757W        W46281  10.943   3.736   2.901  0.0304  0.4160  0.4062
28758W        W46282  10.361   5.096  14.709  0.2342 -0.0287 -0.1515
28759W        W46283   5.921  10.888   4.407 -0.3305  0.1668 -0.0315
28760W        W46284  12.256  16.623   5.266 -0.0013 -0.2090  0.2706
28761W        W46285   3.705   1.046   5.469 -0.2609  0.1141 -0.1646
28762W        W46286  11.447   5.018   6.013 -0.1346 -0.0980 -0.1431
28763W        W46287  15.688   3.348   2.893  0.0927 -0.0501 -0.1286
28764W        W46288   2.118   8.272   0.751  0.1941  0.4234 -0.0768
28765W        W46289  13.876   2.198  13.401  0.2498  0.0512 -0.0375
28766W        W46290   2.246  13.767   5.263 -0.2102  0.0529  0.3037
28767W        W46291   0.908   5.335  17.047 -0.1597  0.1547 -0.1186
28768W        W46292   9.857  17.150   4.221  0.1914  0.1452 -0.0190
28769W        W46293  12.498  16.395   0.297  0.2443 -0.0497  0.3381
28770W        W46294   4.642   1.433  12.456  0.0788 -0.2901 -0.3518
28771W        W46295  11.579   2.584  12.856 -0.2350 -0.2207 -0.0171
28772W        W46296  13.387  16.517   3.975  0.1608  0.3897 -0.0366
28773W        W46297   8.437  12.501   2.252 -0.0429 -0.0091  0.0625
28774W        W46298   3.261   6.955  15.773 -0.0796  0.0960  0.0835
28775W        W46299   8.816   7.168   0.652  0.2102 -0.2715  0.2761
28776W        W46300  14.273   2.122  15.585 -0.2156  0.1858 -0.2779
28777W        W46301   9.033   6.520  12.968  0.0679 -0.2233 -0.1941
28778W        W46302   6.872   2.799   4.620 -0.1309  0.2269 -0.0805
28779W        W46303  10.731  13.826   3.589 -0.0014 -0.0687 -0.0770
28780W        W46304   2.496   7.818  14.802  0.1528 -0.2410  0.0679
28781W        W46305   9.737  10.506   3.263  0.0748 -0.2221  0.3567
28782W        W46306   0.793   9.649  12.056  0.0630 -0.2954 -0.1053
28783W        W46307   0.576  16.792   2.111  0.1348  0.0002  0.1298
28784W        W46308  10.323  14.402   1.421  0.3467  0.0946  0.0850
28785W        W46309   2.668  13.947  15.819 -0.1198 -0.0088 -0.0501
28786W        W46310  14.360  10.596   3.043  0.0322 -0.1904  0.2924
28787W        W46311   7.737  16.440  15.079 -0.0937 -0.1274 -0.0148
28788W        W46312  13.365   0.679  12.949  0.2264 -0.2420  0.0298
28789W        W46313   2.276   6.732  16.794 -0.0438  0.0617 -0.0182
28790W        W46314  10.789   3.205  17.050 -0.0594 -0.3574  0.0124
28791W        W46315  11.349   0.157   1.218  0.1067 -0.2761 -0.3548
28792W        W46316   5.905   0.986   2.318 -0.1832  0.3273 -0.1530
28793W        W46317   2.513  12.956  17.318  0.4123 -0.0828 -0.0561
28794W        W46318   9.148   3.684  15.514  0.0176  0.0098  0.3624
28795W        W46319  12.306  16.385  15.802  0.1226 -0.3926 -0.2845
28796W        W46320   6.241  13.848  12.337  0.0214 -0.1943 -0.2252
28797W        W46321   8.632   7.912  13.920 -0.1351  0.0759 -0.1235
28798W        W46322   7.929  12.175   4.372  0.3166 -0.0257  0.1494
28799W        W46323  10.987   9.629  15.542  0.3699 -0.0745 -0.0885
28800W        W46324   7.218   1.682  17.404  0.0848 -0.0025 -0.0216
28801W        W46325   3.790  15.892   3.847  0.0739 -0.1844  0.3721
28802W        W46326  11.695   8.634  17.316 -0.0915  0.1112 -0.2556
28803W        W46327  16.336   4.948  13.994  0.0842 -0.4793 -0.0893
28804W        W46328   3.297  17.155  14.410  0.0751  0.0986  0.0879
28805W        W46329  12.535   4.773   1.093  0.0612  0.0537  0.0646
28806W        W46330   8.194   5.197  17.200  0.0768  0.2837 -0.1326
28807W        W46331   1.546  11.579  12.052  0.3910  0.2568 -0.0512
28808W        W46332  16.716  16.321   5.215  0.1293  0.0629  0.1327
28809W        W46333   3.002  13.168  15.323 -0.0983 -0.0545  0.3857
28810W        W46334   1.690  13.606  14.082 -0.2252 -0.0228  0.0202
28811W        W46335  13.485   2.751  12.329  0.1981  0.3257 -0.2480
28812W        W46336  13.954   4.952  12.055 -0.1299 -0.0362 -0.2075
28813W        W46337   9.532   7.997   6.631 -0.2244 -0.0300  0.2878
28814W        W46338  13.654   3.130  12.708 -0.0145  0.0836 -0.0581
28815W        W46339   6.789  15.448  15.705 -0.0031 -0.0505  0.0786
28816W        W46340  11.045   8.488   3.062  0.2030 -0.0495 -0.1518
28817W        W46341   8.981   9.119   3.727 -0.2390 -0.2004  0.1236
28818W        W46342  16.760  16.708  14.830  0.0871  0.0504  0.2071
28819W        W46343   9.308   0.881  14.395  0.0487 -0.2070 -0.0009
28820W        W46344   3.835   2.385   0.738  0.1410 -0.2952  0.1117
28821W        W46345  10.193   5.341  17.031  0.3356  0.2204 -0.0491
28822W        W46346  11.843   6.880  13.833  0.0293 -0.0301  0.0324
28823W        W46347   5.617   5.398   0.765 -0.0310  0.2043  0.0094
28824W        W46348  17.211  16.317  15.476 -0.1221 -0.0724 -0.2667
28825W        W46349   7.012   7.910  17.552  0.3844  0.1585  0.0158
28826W        W46350   6.019  10.501   5.277  0.0805 -0.0661  0.0586
28827W        W46351   7.457   4.257   5.393  0.2139 -0.1588 -0.2325
28828W        W46352  11.056  14.097   1.886 -0.0900 -0.1662 -0.2971
28829W        W46353  14.478   8.017  14.957  0.1975  0.0199 -0.1648
28830W        W46354   3.664   8.293   1.671 -0.3016  0.2311  0.1495
28831W        W46355   0.792  11.909  15.299  0.0167  0.2140  0.1707
28832W        W46356  14.965   3.578  17.474  0.0440 -0.1187  0.0120
28833W        W46357   9.453  11.108  14.846  0.4184  0.1633 -0.0288
28834W        W46358   3.768   2.405  15.917 -0.0044  0.2451  0.1526
28835W        W46359   4.200   6.664   0.713 -0.4269  0.0074  0.4938
28836W        W46360  14.635  13.022  15.261 -0.1803 -0.1149  0.0944
28837W        W46361   0.294  16.587  17.500  0.5622 -0.1007  0.0909
28838W        W46362   9.117   5.581  12.669 -0.1541 -0.2037 -0.1264
28839W        W46363   9.577   5.755  14.035 -0.1490 -0.1555 -0.0679
28840W        W46364  11.751  11.858   3.442  0.0224 -0.0708 -0.0803
28841W        W46365   8.016   1.678   4.661  0.2716 -0.0830 -0.0066
28842W        W46366  13.413   7.631  14.507  0.0798 -0.0312  0.0731
28843W        W46367   2.855  12.727   5.515 -0.0363  0.0491  0.1401
28844W        W46368   6.275   2.009   1.284  0.0103 -0.2255 -0.2072
28845W        W46369   3.379   8.495   5.468  0.0268  0.0296  0.0037
28846W        W46370  10.225   3.527   0.858 -0.0283  0.0415 -0.1660
28847W        W46371   7.702   0.203  13.434 -0.0845  0.0474  0.2328
28848W        W46372   2.354   5.992   4.137 -0.0376  0.1928 -0.2251
28849W        W46373  10.872   9.655   5.923 -0.1722 -0.0845 -0.1493
28850W        W46374   2.610   0.258   3.913  0.1757 -0.0452 -0.0813
28851W        W46375   0.825  17.213  12.689  0.0178 -0.0352 -0.1687
28852W        W46376  10.458  12.154  12.024  0.0060  0.3055 -0.3422
28853W        W46377  11.679   4.332  13.397 -0.0743 -0.1057 -0.0399
28854W        W46378   2.034  10.315   4.369 -0.0220  0.1859  0.0775
28855W        W46379   6.783   1.734  12.996 -0.1420 -0.0022  0.0594
28856W        W46380  15.992  13.970  15.915  0.0101  0.1864 -0.0240
28857W        W46381   1.989   2.567  16.716 -0.1162  0.0172 -0.2022
28858W        W46382   3.390   8.492   2.426 -0.2715  0.0280 -0.1618
28859W        W46383  11.849   4.828  12.655  0.1488  0.0703 -0.1511
28860W        W46384   3.909  16.233   1.418 -0.0176  0.0194  0.0362
28861W        W46385   9.420   0.883   0.795 -0.0028  0.0045  0.1008
28862W        W46386   4.524   8.410   3.695 -0.0324 -0.3652 -0.0153
28863W        W46387  13.025  10.473   4.148 -0.1165 -0.0474 -0.0557
28864W        W46388   0.708   1.766  15.101 -0.2426  0.2259 -0.3155
28865W        W46389  10.899   5.907  15.654 -0.1352 -0.2073  0.2396
28866W        W46390  16.723  15.303  12.891 -0.1053  0.0848  0.2741
28867W        W46391   7.840  12.719   2.629 -0.1925  0.0024 -0.3205
28868W        W46392   5.113   7.897  13.493  0.2776 -0.1935  0.2691
28869W        W46393   1.625   9.582  11.478 -0.1329  0.1108  0.1118
28870W        W46394   4.143   9.210   0.257 -0.0382  0.0872  0.0723
28871W        W46395  16.360  15.101   0.669  0.0697  0.2267 -0.2011
28872W        W46396   4.454   8.528   4.235 -0.1269 -0.0222  0.2594
28873W        W46397   5.669  11.959   1.556 -0.0378  0.0898  0.1387
28874W        W46398  16.288   5.381  13.545 -0.0771 -0.1858 -0.2097
28875W        W46399   7.130   0.884  16.245  0.0316  0.2544 -0.5139
28876W        W46400   4.216  13.863  15.692  0.3556 -0.1738 -0.2171
28877W        W46401   3.531  10.322  13.771 -0.2777  0.1241  0.2008
28878W        W46402   3.318  15.623   1.250 -0.1124 -0.1074 -0.1596
28879W        W46403   4.933   8.312   3.368 -0.0953  0.0629 -0.2764
28880W        W46404  17.248   3.341  13.458  0.0151  0.4036  0.1389
28881W        W46405  13.823   0.073  17.095 -0.0727 -0.0218 -0.1488
28882W        W46406   8.837   2.233   0.513 -0.2281  0.1144 -0.1902
28883W        W46407   3.572   8.345  15.418  0.2395 -0.2693  0.4436
28884W        W46408   2.092  14.493  13.054  0.2459 -0.3106  0.1207
28885W        W46409  14.038  12.089  15.130 -0.0703 -0.1971 -0.4069
28886W        W46410   9.805  15.880   6.038  0.2228 -0.4215  0.5171
28887W        W46411  12.114   1.087  13.916  0.1891 -0.2613  0.1843
28888W        W46412  14.135   7.512  15.525  0.1177  0.0296 -0.0505
28889W        W46413   4.983   1.750   1.183 -0.4263  0.2193  0.0855
28890W        W46414   8.550   8.601  16.185 -0.1999 -0.1877  0.1269
28891W        W46415   5.934  15.096   0.879 -0.0399 -0.1722 -0.4392
28892W        W46416  10.396   3.927   4.859  0.2936  0.0183  0.0794
28893W        W46417   0.098   9.203   5.366 -0.2211  0.0892 -0.0816
28894W        W46418   5.633   4.555   0.390  0.0633 -0.1360  0.0341
28895W        W46419  15.798  15.274  17.052 -0.0189 -0.2714 -0.3433
28896W        W46420  15.348  11.118   2.629  0.0113 -0.1771  0.2996
28897W        W46421   7.211  10.179   5.372  0.0707  0.0153 -0.1097
28898W        W46422   6.601   7.080   4.571 -0.2605  0.1190 -0.2353
28899W        W46423   5.140  11.440  14.946 -0.1150  0.0794 -0.0504
28900W        W46424  13.719   3.390   4.825  0.0844 -0.3958 -0.1821
28901W        W46425   2.714  15.991  12.156 -0.0496 -0.1620 -0.2396
28902W        W46426   2.769   8.211   1.753  0.0063 -0.0190  0.1442
28903W        W46427   6.922  10.854  15.100 -0.1082  0.0282  0.1275
28904W        W46428   8.317  11.875  15.385 -0.1293 -0.0085 -0.1693
28905W        W46429   4.433  15.473  17.551  0.2026  0.2250 -0.1609
28906W        W46430  10.920  12.318   3.932 -0.0928  0.0268 -0.0373
28907W        W46431  16.822  16.596  17.480 -0.0952  0.0976  0.2401
28908W        W46432   7.271   2.065   2.231 -0.0440 -0.1951 -0.3565
28909W        W46433   4.549  12.804   0.360  0.0176 -0.1718  0.2122
28910W        W46434  11.801   2.591  13.559  0.0815  0.2178 -0.0491
28911W        W46435   1.555   0.473   0.789 -0.0665  0.2375  0.1933
28912W        W46436  13.091  11.269  14.495 -0.2050 -0.2527  0.2200
28913W        W46437  10.096   8.139   4.510  0.0714 -0.0825  0.0109
28914W        W46438  13.137   0.329   1.839  0.1047  0.1352  0.1427
28915W        W46439   4.954   8.682   2.059  0.1602 -0.0175 -0.0286
28916W        W46440  12.042  14.627  17.136  0.0849 -0.0963  0.3641
28917W        W46441  14.218  16.135  15.577 -0.1583 -0.1507 -0.0799
28918W        W46442  13.606  10.646  15.948 -0.0263 -0.1968  0.0756
28919W        W46443  13.457   1.258  13.961 -0.0507 -0.2909  0.0443
28920W        W46444   7.107  15.720   5.384  0.0442  0.1868 -0.1052
28921W        W46445   1.579  10.360   2.143 -0.3540  0.3236 -0.1147
28922W        W46446  10.940   5.099   3.120  0.1501 -0.0293  0.0195
28923W        W46447  12.997  12.733   5.119 -0.0223  0.1009 -0.1604
28924W        W46448   6.197   0.585  13.763 -0.2727 -0.3855  0.0240
28925W        W46449   4.454  14.898  13.010 -0.0736 -0.0127 -0.0816
28926W        W46450  16.446  13.361   5.262 -0.0845  0.0569 -0.2481
28927W        W46451   4.122   8.602  14.338 -0.0128  0.0718 -0.0606
28928W        W46452   9.060  10.886   5.594 -0.1172 -0.2234  0.1325
28929W        W46453   2.209  15.865   3.216  0.1314 -0.0225  0.2562
28930W        W46454  10.639   3.186   5.986 -0.0330  0.0448  0.3015
28931W        W46455  14.140   5.943   3.807  0.0366  0.0717 -0.2075
28932W        W46456  10.337  12.339   4.412  0.1014 -0.1594 -0.1922
28933W        W46457  16.503   4.903   4.530  0.2190  0.0823  0.0972
28934W        W46458  13.772   2.922   4.966  0.0762 -0.0212  0.2175
28935W        W46459  12.911   3.547   3.031  0.0280 -0.0793 -0.1791
28936W        W46460   8.300  12.919   5.819  0.0329 -0.1334  0.2703
28937W        W46461  11.370   7.655  16.632  0.0547  0.0552 -0.1384
28938W        W46462  10.176   7.679   4.354  0.0737 -0.0068 -0.0558
28939W        W46463   5.087   1.369  12.264  0.0316 -0.0551 -0.0462
28940W        W46464  16.203   9.167   3.225  0.1319 -0.0842 -0.0676
28941W        W46465  15.130   6.993   1.395 -0.1214 -0.3152  0.2686
28942W        W46466  14.895   5.110  15.974 -0.0195  0.0413  0.1102
28943W        W46467   0.567  12.232  14.412  0.0424 -0.3520 -0.4670
28944W        W46468   1.999   1.541  17.646 -0.4022  0.0487  0.2545
28945W        W46469   7.410   1.734  14.173  0.4010  0.1457 -0.0776
28946W        W46470  11.443   0.524  16.210  0.0859  0.0928 -0.2725
28947W        W46471   3.271  14.490   2.214  0.1689 -0.0334  0.0914
28948W        W46472   5.262  12.817   4.868  0.2841  0.4458 -0.0265
28949W        W46473   4.968  11.865   0.412 -0.1601 -0.0168 -0.1233
28950W        W46474   3.756   5.045  13.584  0.0557  0.0377  0.0948
28951W        W46475   2.181  13.243   2.043 -0.1433  0.2518  0.0307
28952W        W46476   7.962  12.472  15.865  0.0894  0.0064 -0.0431
28953W        W46477  15.925  12.768   2.352  0.0868 -0.1532 -0.2599
28954W        W46478  12.458  14.412   3.786  0.1947 -0.1187 -0.0958
28955W        W46479   3.003   3.943  14.100  0.1147  0.0719  0.0836
28956W        W46480  10.553   7.755   4.703  0.4624  0.3012  0.0744
28957W        W46481   7.867   3.556  12.865  0.0028  0.1924  0.2029
28958W        W46482  15.475  16.252  13.438 -0.0118  0.0560 -0.2648
28959W        W46483   9.960   9.675  16.059 -0.0712  0.0129  0.2256
28960W        W46484  13.952  12.306   4.343 -0.4936 -0.0874  0.0527
28961W        W46485  13.028  11.276   4.710 -0.0462 -0.4797 -0.1765
28962W        W46486   1.480   7.599  16.957 -0.1306 -0.1088  0.0049
28963W        W46487  12.744  10.557  13.386 -0.0733  0.1372 -0.3232
28964W        W46488  12.807  16.060   4.361 -0.5040 -0.3411 -0.0795
28965W        W46489  11.170   0.690   1.181  0.1239  0.0421 -0.0133
28966W        W46490  15.711  10.268  17.450 -0.1061  0.0302  0.1953
28967W        W46491  11.869   0.262  12.510 -0.0474 -0.0505  0.0200
28968W        W46492   4.728  11.018   3.763 -0.1286 -0.0212  0.0486
28969W        W46493   1.729   2.617   4.893 -0.3435  0.0706  0.0234
28970W        W46494   7.310  11.580  15.987 -0.0210  0.0563 -0.3191
28971W        W46495  16.727   7.169  15.962  0.4652  0.1076  0.2546
28972W        W46496  10.291   6.515  13.445 -0.1842  0.0171 -0.3065
28973W        W46497   6.947   5.535   1.518  0.0822  0.0400  0.0639
28974W        W46498  14.472   8.373  12.641  0.1567 -0.3243  0.0276
28975W        W46499   0.038  13.949  14.498  0.0485  0.1174 -0.4992
28976W        W46500   0.413   5.319  17.255  0.3706 -0.2545  0.4046
28977W        W46501   8.239  10.040   0.381 -0.1578  0.1483 -0.0360
28978W        W46502   3.625   7.068   2.928  0.0530 -0.1105  0.1699
28979W        W46503  13.036   1.723  15.380 -0.0026  0.0499  0.0457
28980W        W46504   4.054  17.195  17.292 -0.2005  0.2211 -0.1934
28981W        W46505  10.741   5.168  16.264 -0.1933 -0.1578 -0.1229
28982W        W46506   5.819  15.986  17.227 -0.1446  0.0105  0.0629
28983W        W46507   0.303   3.343  13.940  0.1056 -0.2924  0.2058
28984W        W46508   7.246   0.951  12.885  0.0777  0.0230  0.1274
28985W        W46509  13.318  14.448  16.973 -0.0968  0.0520  0.1308
28986W        W46510  12.759   6.297   5.644  0.0529 -0.1228 -0.0230
28987W        W46511  12.697  12.163  14.319  0.1172 -0.3603  0.0303
28988W        W46512   2.525   4.504  16.085  0.0338 -0.2896 -0.1406
28989W        W46513   6.716  10.641  17.453 -0.2025 -0.0768 -0.2833
28990W        W46514   7.321   3.863   2.394 -0.1192  0.0729 -0.0795
28991W        W46515  17.150   6.505  16.796  0.0796  0.0479 -0.1274
28992W        W46516   1.364   2.570   3.365 -0.0101 -0.2416  0.1065
28993W        W46517  16.928   3.720  13.307 -0.2233 -0.0699 -0.0002
28994W        W46518   4.163  13.385   5.423 -0.2162 -0.3876  0.0478
28995W        W46519   6.515   3.935   1.768  0.0027  0.1351 -0.0671
28996W        W46520  14.246  16.621  16.449 -0.1425 -0.1258  0.2645
28997W        W46521   2.092   9.839   5.130 -0.2014 -0.0875 -0.0740
28998W        W46522  11.977   7.287   0.961  0.1582 -0.2914  0.0737
28999W        W46523  16.321  15.491  17.091  0.0257  0.0357  0.1713
29000W        W46524  16.984   0.201   0.790 -0.2865 -0.0034 -0.0285
29001W        W46525  12.751   6.583  14.036  0.1682  0.0814  0.0877
29002W        W46526  14.763   9.850   4.223 -0.0449  0.1161  0.1329
29003W        W46527   0.920   2.465   3.568  0.1504 -0.1337  0.0797
29004W        W46528   6.858  14.791  13.618  0.2683  0.1500  0.0580
29005W        W46529   7.717  10.889  16.859  0.3132  0.2119 -0.1864
29006W        W46530   7.883   5.907  15.774  0.0198 -0.2846  0.0080
29007W        W46531  11.964  15.059   2.256  0.2624  0.2326 -0.2789
29008W        W46532  10.644   0.671   0.852  0.4364 -0.1461  0.0049
29009W        W46533   5.832   8.753   5.260  0.1000 -0.0905 -0.1344
29010W        W46534   8.479   1.551   5.644 -0.0768  0.1213  0.0624
29011W        W46535   7.360   6.648   4.523 -0.0124 -0.0263  0.0282
29012W        W46536  11.295   2.954   2.917  0.1742 -0.1325  0.1753
29013W        W46537   9.333   1.501   3.601  0.2144 -0.0141  0.2961
29014W        W46538   6.351  14.008  14.077  0.1524  0.0421 -0.2401
29015W        W46539   4.196  12.100  14.308 -0.1769  0.2452  0.1098
29016W        W46540   8.567  10.536  14.058  0.2367  0.2655  0.3761
29017W        W46541  17.049   7.095  11.573  0.0414  0.0960 -0.2048
29018W        W46542   0.577  12.158  16.164  0.1508  0.2123 -0.0280
29019W        W46543  14.795   6.487  12.729 -0.1208 -0.2962  0.0019
29020W        W46544   7.785   8.837   4.874  0.0810 -0.1338 -0.1671
29021W        W46545   1.732   2.277   2.240  0.0601  0.3446 -0.1436
29022W        W46546   8.150   0.766  16.142 -0.2644 -0.2895 -0.0190
29023W        W46547   9.938  12.804   2.959 -0.2489 -0.0189 -0.0357
29024W        W46548  17.176  14.468  14.588  0.0990 -0.0928 -0.0626
29025W        W46549  16.295   8.492  16.606 -0.1722 -0.8113  0.0828
29026W        W46550  13.759  10.953  16.620 -0.2505 -0.3208  0.3999
29027W        W46551  15.894   0.794  13.813 -0.2743 -0.0412 -0.1471
29028W        W46552   2.028  12.811  17.453 -0.1407  0.4284  0.1533
29029W        W46553  15.468  12.000   2.496  0.1342 -0.0601 -0.0538
29030W        W46554   5.961  10.949  16.858 -0.1756  0.0897  0.1801
29031W        W46555  10.787   2.027   1.608  0.0740  0.0096 -0.4553
29032W        W46556   2.955   2.184  17.222  0.0311  0.1571 -0.0469
29033W        W46557   4.916   2.797  15.209 -0.0279  0.0673 -0.1665
29034W        W46558  12.237   1.088  16.084  0.0219  0.0470  0.3565
29035W        W46559   6.535   2.471   6.728  0.1525  0.1185  0.1188
29036W        W46560   7.628   1.113   5.254  0.1338 -0.1732 -0.2871
29037W        W46561  13.823  15.068   2.083  0.1527  0.2518 -0.0413
29038W        W46562  15.266  15.137  16.947 -0.1818  0.0191 -0.1443
29039W        W46563   1.518  10.115   4.626  0.0951 -0.1952 -0.3408
29040W        W46564  13.530   9.642   2.189  0.2238 -0.0331 -0.1355
29041W        W46565   4.885   0.879   5.678  0.0752  0.3415 -0.0885
29042W        W46566  14.804   4.851   3.224 -0.1712 -0.0972  0.1099
29043W        W46567  16.189  17.026   0.585  0.2008 -0.1875  0.2321
29044W        W46568   5.487   5.171   4.284 -0.1359 -0.0312  0.0881
29045W        W46569  12.417   1.593  15.277  0.0353 -0.1323 -0.0471
29046W        W46570   5.704  16.307  12.825  0.0723  0.1031 -0.1054
29047W        W46571  16.311  10.851   4.820 -0.1609 -0.0711  0.0455
29048W        W46572   0.846   5.295  17.570 -0.3367  0.0129  0.0990
29049W        W46573  11.067  12.086   4.897  0.0340  0.2547  0.0114
29050W        W46574   8.017   1.526  13.004  0.0692  0.2529  0.1092
29051W        W46575   0.035  14.335   5.149 -0.1200  0.2610  0.1021
29052W        W46576   0.553   3.996  14.700  0.0940  0.0469  0.1431
29053W        W46577   2.841  12.272   0.693  0.0598 -0.1093  0.1266
29054W        W46578   8.844   7.561  15.145 -0.0114 -0.2082  0.0886
29055W        W46579   1.667   0.108   3.678  0.1402 -0.1802 -0.0242
29056W        W46580  12.224  11.843  17.257 -0.1883 -0.1514 -0.2774
29057W        W46581  10.809   3.475  13.760  0.1198  0.2081  0.1296
29058W        W46582   1.618   2.431  15.781  0.0092 -0.1803 -0.0159
29059W        W46583   8.321  12.534   5.511  0.0701  0.1755  0.1132
29060W        W46584  14.665  13.020  17.239 -0.1266 -0.0543 -0.1229
29061W        W46585  16.295   9.712   0.406  0.0235  0.6010  0.0314
29062W        W46586   4.922   9.709   2.974  0.0395 -0.1791  0.3473
29063W        W46587   4.902  15.352   0.189  0.0047  0.1217  0.0842
29064W        W46588  10.361   1.292   4.807  0.1660  0.0355 -0.2195
29065W        W46589  15.184   6.274  14.125  0.3950 -0.2126  0.0598
29066W        W46590   7.328  13.837  16.713  0.0962  0.0687 -0.1214
29067W        W46591   1.323   2.916   5.372  0.0354  0.0625 -0.0327
29068W        W46592  14.736  12.702   3.401  0.1867  0.0416 -0.2326
29069W        W46593   4.872  13.694   0.275 -0.1537 -0.0148 -0.3803
29070W        W46594   6.397  15.297  17.215 -0.1686  0.0318 -0.0177
29071W        W46595   4.606   3.501  13.374 -0.0525 -0.0197  0.2732
29072W        W46596   9.364   2.486   2.633  0.0290 -0.0596  0.3237
29073W        W46597   3.561  16.126   4.295 -0.0256  0.2620  0.1047
29074W        W46598   4.943  11.692   1.801 -0.0407 -0.1762 -0.0635
29075W        W46599   0.686   0.292  15.158 -0.0508 -0.1335 -0.0697
29076W        W46600   3.893   7.414   4.250 -0.4121 -0.3687 -0.0215
29077W        W46601  10.856   3.784  16.589 -0.3133 -0.3084 -0.2899
29078W        W46602  15.775  13.278   2.764 -0.1975  0.3936 -0.0693
29079W        W46603  11.213  14.253   5.475  0.1425  0.0303  0.1026
29080W        W46604  13.246  12.963   1.431  0.1564 -0.0296  0.0791
29081W        W46605  17.077   5.556  17.560 -0.1904  0.0546 -0.0661
29082W        W46606  15.369   2.912   0.309 -0.1193  0.0149 -0.1439
29083W        W46607  11.493   4.836  16.822 -0.1171 -0.1772 -0.2811
29084W        W46608   9.670   5.404  17.524  0.5104 -0.1074 -0.1979
29085W        W46609   0.168  11.690  13.880  0.2412 -0.3012  0.1595
29086W        W46610   0.373   6.186  17.574  0.2859 -0.0805 -0.2015
29087W        W46611  12.170  14.174  14.700  0.2215  0.3186  0.0658
29088W        W46612   0.071   5.441   1.689 -0.0516  0.2343  0.0637
29089W        W46613  16.706  12.655  17.409 -0.2268 -0.0471 -0.1739
29090W        W46614   8.937   2.781  12.950 -0.1048 -0.0383  0.3102
29091W        W46615   3.239   9.213   4.751 -0.1274 -0.0681 -0.0199
29092W        W46616   4.369   6.093  13.024  0.1544  0.3198  0.2680
29093W        W46617   9.702   2.525   2.255  0.0723 -0.1309  0.0645
29094W        W46618   5.422  13.472  15.539  0.0976 -0.3098 -0.0317
29095W        W46619  14.531  16.448  13.323 -0.1009 -0.0916  0.0393
29096W        W46620  14.435   2.085   1.020  0.3337 -0.2201 -0.0933
29097W        W46621  13.301   9.136  11.783  0.0322  0.1161  0.0537
29098W        W46622  10.368  15.764   4.311 -0.1266 -0.0777 -0.0931
29099W        W46623  13.694   1.905   0.438  0.1104 -0.1793 -0.2006
29100W        W46624   1.762   7.375  13.758 -0.0259  0.1045 -0.1326
29101W        W46625   5.142   6.769   3.746  0.1527 -0.1820  0.0277
29102W        W46626  12.749  12.191   4.929 -0.1365  0.3113 -0.4195
29103W        W46627   5.071   5.525   4.668  0.0703 -0.1736  0.0164
29104W        W46628  16.404  15.148   1.779 -0.1358  0.0442 -0.1020
29105W        W46629  14.690   3.876  14.250 -0.0931  0.1800  0.1981
29106W        W46630  12.070   9.515  17.349 -0.0734 -0.0439 -0.0448
29107W        W46631   8.099  14.745  12.887  0.1079  0.2273 -0.0060
29108W        W46632  11.821  15.027  14.565  0.2265  0.2933 -0.0695
29109W        W46633   1.299   8.553  14.194  0.1933  0.2285 -0.0155
29110W        W46634   8.577   6.350   0.740 -0.4133  0.0495  0.1646
29111W        W46635   3.099  13.375   4.627 -0.0526  0.5218  0.0851
29112W        W46636   1.569   4.924   2.039 -0.3874 -0.1678  0.2188
29113W        W46637  12.798   4.411  13.486  0.1562  0.0996 -0.1231
29114W        W46638  15.116  10.076  16.644  0.0719  0.1416 -0.1475
29115W        W46639  12.897   2.175  15.626  0.3005 -0.4088 -0.0601
29116W        W46640   3.052   9.087   0.254  0.0019  0.2243 -0.1102
29117W        W46641  12.212  12.705   0.524 -0.1006  0.0859 -0.1628
29118W        W46642  11.404   5.212   2.209 -0.1073 -0.2263  0.0775
29119W        W46643   8.921  15.386   1.348  0.0134 -0.0951  0.1672
29120W        W46644   3.407   2.075  12.989  0.0966  0.0750 -0.1512
29121W        W46645   1.357   6.617   1.203  0.0591 -0.1500 -0.2672
29122W        W46646  10.490  11.103   0.368  0.0183  0.1079  0.1485
29123W        W46647   1.672  14.244  17.324  0.4324  0.0840 -0.4098
29124W        W46648   9.814  16.679  12.897  0.3193 -0.0515 -0.1046
29125W        W46649   8.622  16.638   4.266  0.1184 -0.0109 -0.1305
29126W        W46650   3.835  13.062  12.148  0.1762  0.2143 -0.0189
29127W        W46651  15.473   8.474   4.723 -0.1785 -0.1507 -0.0329
29128W        W46652  15.102   8.988  14.225  0.1792 -0.0633 -0.1030
29129W        W46653  11.295  11.391  13.681  0.1467 -0.3149  0.2170
29130W        W46654  16.668   1.510   4.304  0.4036  0.1744 -0.2872
29131W        W46655   6.733   1.697   0.035 -0.1206 -0.0512 -0.1704
29132W        W46656  15.845   1.728   0.795  0.1107 -0.1027  0.1260
29133W        W46657  15.265   9.566  15.584 -0.0605  0.1155 -0.0843
29134W        W46658   9.863  16.097  16.251 -0.0576 -0.0010  0.0315
29135W        W46659  15.679  15.901  15.741  0.2059  0.0259  0.0744
29136W        W46660   4.385  16.889   5.209  0.0988 -0.1008  0.2275
29137W        W46661   5.037  15.485  16.956  0.3739  0.3746 -0.0005
29138W        W46662  10.704  16.548   0.668 -0.0669  0.2277 -0.0571
29139W        W46663   0.389   9.704   4.522  0.0739  0.0704  0.1318
29140W        W46664  12.034   8.890   0.561 -0.1362 -0.2487  0.0208
29141W        W46665   3.888  13.183   5.112 -0.3969  0.1136  0.0437
29142W        W46666  11.767  13.780  15.794  0.0064 -0.0637 -0.2822
29143W        W46667   3.066  16.025  14.739  0.2198  0.0231  0.2464
29144W        W46668  10.132  15.507  13.155 -0.2791 -0.1601 -0.0832
29145W        W46669  11.838  13.152  16.797 -0.0574  0.1262  0.0136
29146W        W46670   1.790   2.744   2.066 -0.0669 -0.2219  0.2241
29147W        W46671   7.250   4.688   4.132  0.1004  0.1713  0.0424
29148W        W46672   6.094   1.546   1.245  0.0930 -0.0931 -0.0087
29149W        W46673   5.217   5.073  15.959  0.1022  0.1885 -0.1681
29150W        W46674   4.189   6.679  12.357  0.0249 -0.0923  0.2691
29151W        W46675  13.635  11.657   4.286  0.0453  0.0470 -0.0929
29152W        W46676  14.713  16.851  17.276 -0.1918 -0.0147  0.3930
29153W        W46677  14.183  13.810  12.506  0.0451 -0.0159  0.2599
29154W        W46678  11.520   1.217   0.352  0.1041  0.1627  0.0399
29155W        W46679   2.554  12.780  13.391 -0.0010  0.0694  0.1487
29156W        W46680  10.217  16.399  12.891  0.0871  0.0068 -0.1663
29157W        W46681   8.078   7.015   3.945 -0.0126 -0.0482 -0.2213
29158W        W46682  11.316  12.256   2.214  0.2669  0.0055 -0.1058
29159W        W46683   0.148  10.628  14.803  0.3682 -0.0622 -0.0813
29160W        W46684   2.944   8.479  14.457 -0.2021 -0.1220  0.0458
29161W        W46685  13.514  13.390   5.233 -0.2572  0.2719 -0.2382
29162W        W46686  13.475  10.155  12.769 -0.0396 -0.1388  0.2099
29163W        W46687   7.604   3.314   4.357 -0.3732 -0.0764 -0.0516
29164W        W46688   4.205  15.380  13.757 -0.1720 -0.1482  0.1790
29165W        W46689   5.063   2.180  17.011  0.2893 -0.2596 -0.3723
29166W        W46690  14.250   3.900   3.115  0.0955 -0.0471 -0.1550
29167W        W46691  16.601   0.110  13.277 -0.0595  0.0414  0.0825
29168W        W46692   5.085   3.780  12.488 -0.1478 -0.0800 -0.1776
29169W        W46693   3.786   4.366  16.404 -0.1387  0.2832 -0.2076
29170W        W46694   8.044  16.330  17.533  0.0849  0.0627  0.1099
29171W        W46695  14.741   3.718   1.092  0.2276 -0.4432  0.2741
29172W        W46696   9.288  11.866   6.743  0.0285 -0.1386  0.2300
29173W        W46697  16.251  11.596   3.897  0.2982  0.1235  0.3659
29174W        W46698  13.208  14.704   0.756  0.0547  0.1211 -0.0668
29175W        W46699   0.646   7.949   2.782 -0.1431 -0.0848  0.1205
29176W        W46700  13.449  12.147  11.073 -0.1467  0.1622 -0.3346
29177W        W46701   1.731  16.281  12.172 -0.0413 -0.0101 -0.3233
29178W        W46702   5.422  10.907   2.002 -0.1366  0.0491  0.2273
29179W        W46703   9.375   2.693  17.335 -0.3610  0.0424 -0.0637
29180W        W46704  11.853  13.812  17.011  0.2070  0.1139  0.1019
29181W        W46705  10.332  12.666   1.925 -0.1243 -0.0181  0.1886
29182W        W46706   9.323   8.424  14.243  0.1413  0.1083 -0.0669
29183W        W46707   4.997   8.273   5.884  0.2359  0.1832 -0.1937
29184W        W46708   4.335  10.096   0.851  0.2715  0.1057 -0.1105
29185W        W46709   8.206   0.816   3.225 -0.1330 -0.1699  0.0015
29186W        W46710  13.074   2.308  17.525  0.3196 -0.0735  0.0956
29187W        W46711   3.204   7.544  14.555 -0.2570  0.1398 -0.1570
29188W        W46712  16.710   3.603   4.839 -0.1411  0.1838 -0.3061
29189W        W46713   4.940  14.623   2.867 -0.0762 -0.2030 -0.2354
29190W        W46714  13.228   2.794  14.459  0.1792  0.1665  0.1103
29191W        W46715   6.664   2.574   2.620  0.0227 -0.0182  0.4056
29192W        W46716   8.497   6.793  13.967  0.1918  0.1323 -0.1253
29193W        W46717   4.288   7.561   1.400 -0.0150  0.0646 -0.0094
29194W        W46718   8.342  16.512  13.095 -0.2241 -0.0633  0.2528
29195W        W46719   4.284   2.270  16.425  0.2974 -0.1048 -0.2433
29196W        W46720   3.681   2.454  15.345 -0.0011  0.0903 -0.1266
29197W        W46721   5.236  10.541   3.329  0.3231  0.2959 -0.3022
29198W        W46722   3.984   8.398  15.093  0.1709 -0.0968  0.0862
29199W        W46723   9.772   0.327   3.937 -0.3810  0.0685  0.1112
29200W        W46724  17.126   1.194   1.009 -0.0815 -0.1008  0.1259
29201W        W46725  15.760  15.002   4.429  0.0860 -0.0574 -0.0197
29202W        W46726  12.012  13.629  16.592  0.2183  0.0190 -0.3451
29203W        W46727  15.277  15.978  12.156 -0.0307 -0.0545 -0.0962
29204W        W46728  13.768   9.262  11.862  0.3419  0.2054 -0.0468
29205W        W46729   2.340  16.630  15.420  0.0246  0.4110  0.2164
29206W        W46730   9.374   1.912  13.656 -0.1135  0.1976  0.0941
29207W        W46731  15.264   7.132  13.195 -0.0055  0.3016 -0.0095
29208W        W46732  15.735   9.322  13.192  0.0211 -0.1026 -0.0609
29209W        W46733   3.856  13.023  15.891  0.0830  0.1919  0.0678
29210W        W46734  14.266  11.045   3.253  0.1771  0.0034 -0.4735
29211W        W46735   7.769   0.054   3.360 -0.0183  0.1947  0.0131
29212W        W46736   5.760  12.023   4.950  0.1873 -0.0399 -0.1955
29213W        W46737   6.310   8.817   2.339  0.1518 -0.2918  0.0423
29214W        W46738   1.109  16.290  12.586 -0.3048 -0.1065  0.3556
29215W        W46739   0.820   9.602   0.342 -0.1414  0.0314  0.0243
29216W        W46740   3.551  14.994   3.201 -0.0863 -0.0305  0.1136
29217W        W46741   4.163  14.120  15.240 -0.2996 -0.3010 -0.2222
29218W        W46742  12.304   9.083  17.313 -0.0798  0.0552 -0.0840
29219W        W46743   4.839   7.388  14.933  0.0824  0.1383  0.2353
29220W        W46744   9.538  12.175  16.130  0.2602 -0.0371  0.1273
29221W        W46745  16.805  11.138   4.454 -0.1096 -0.4347  0.1138
29222W        W46746   9.787  15.909   2.236 -0.1164  0.0043 -0.0876
29223W        W46747   5.193   2.091   2.028 -0.2057 -0.2116  0.0850
29224W        W46748   7.598   0.862   4.657  0.1017  0.2006  0.1403
29225W        W46749   3.091  12.700  15.471  0.2655  0.1809 -0.1265
29226W        W46750  11.047   4.187  14.214  0.4239 -0.3153 -0.1343
29227W        W46751   0.796   5.275  13.808 -0.1141 -0.3693  0.1650
29228W        W46752  16.142  16.486   0.645 -0.2392  0.2732  0.2064
29229W        W46753   2.183   9.953  17.044 -0.0911  0.1336 -0.0906
29230W        W46754  11.861  10.318   1.587  0.1367 -0.0291  0.2605
29231W        W46755   7.012   6.296   3.649 -0.0637 -0.0419 -0.2191
29232W        W46756   0.361   0.900   0.383 -0.1410  0.1597  0.0131
29233W        W46757   9.356   8.170  15.038  0.0364 -0.1906  0.0569
29234W        W46758  16.179  14.514   0.051 -0.0738  0.2214  0.1367
29235W        W46759  13.235  13.735   2.225 -0.1421  0.2022  0.1065
29236W        W46760   6.115  11.322   0.262 -0.2336  0.1586  0.2759
29237W        W46761   4.381   5.592   3.912  0.0331 -0.0069 -0.1542
29238W        W46762  12.764  16.835   4.412 -0.1928  0.1908  0.0418
29239W        W46763   8.014  12.844  12.872  0.1008 -0.2669  0.0010
29240W        W46764  15.851   4.734  14.050  0.0944 -0.1456  0.3439
29241W        W46765   2.087   6.195   1.728  0.1073 -0.1971 -0.1542
29242W        W46766  16.653  16.398   3.729 -0.3157 -0.2880  0.3186
29243W        W46767   6.069   3.455  15.562 -0.0900  0.1232  0.2313
29244W        W46768   9.019  16.218  13.303 -0.4795  0.2398  0.1565
29245W        W46769   8.405  15.110   2.132  0.2413  0.0303  0.0967
29246W        W46770   8.141   7.619  14.444  0.1687  0.0022 -0.3280
29247W        W46771  15.855  14.636   2.218 -0.1974  0.0055  0.1413
29248W        W46772   3.684   2.212   1.997 -0.4489 -0.0677 -0.1310
29249W        W46773  11.265  11.293   6.276  0.0587 -0.0306  0.0117
29250W        W46774   5.847   2.459   3.880  0.0076 -0.2321 -0.0231
29251W        W46775   8.348   9.196  12.905  0.1428  0.0671 -0.1480
29252W        W46776   4.801  14.035  12.052  0.1367 -0.3879  0.0508
29253W        W46777   1.825   6.717  14.005  0.0166 -0.0544  0.0556
29254W        W46778  15.980  12.903  13.333 -0.0571 -0.1532 -0.0309
29255W        W46779   8.690  12.681  15.398 -0.1899  0.0622 -0.4201
29256W        W46780  14.833   7.960  16.861  0.1332 -0.0617  0.2080
29257W        W46781  14.348   5.685  13.777 -0.2964 -0.1647  0.0583
29258W        W46782  15.407   5.320  12.402  0.0845 -0.1179 -0.0916
29259W        W46783  15.376   5.962  16.132 -0.1975 -0.0793  0.4683
29260W        W46784  15.665   3.403   1.369 -0.1469 -0.0780  0.2967
29261W        W46785   1.933   5.616   4.111 -0.1177 -0.0762  0.2721
29262W        W46786   8.831   8.886  13.013 -0.0689  0.0138  0.1026
29263W        W46787   5.179   6.684  12.863 -0.1343  0.0561 -0.1382
29264W        W46788   5.186   4.031  15.518  0.1386 -0.3159  0.1570
29265W        W46789   2.209  13.971  16.645  0.3725  0.1049 -0.0679
29266W        W46790  15.409  13.292   5.357  0.1439 -0.2044  0.0045
29267W        W46791   7.318   8.662  16.913 -0.2420 -0.1553 -0.3494
29268W        W46792  15.190  15.223   0.458 -0.0209  0.0341  0.4029
29269W        W46793  13.140  13.825  15.634  0.0178  0.3444 -0.2144
29270W        W46794  12.238  10.210  14.592 -0.0361 -0.0924 -0.2972
29271W        W46795  12.454  13.194   4.719 -0.0443  0.0472 -0.2958
29272W        W46796   5.221   3.977  16.559  0.0466 -0.0443 -0.1625
29273W        W46797   3.118   1.900  14.941  0.0233  0.3702  0.2160
29274W        W46798   9.813   1.193   0.749 -0.0045 -0.0391  0.0505
29275W        W46799  11.317   4.323  15.576 -0.0565  0.0860  0.1922
29276W        W46800  15.183   0.209   0.919  0.0993  0.1011 -0.0550
29277W        W46801  15.275   1.717   5.309  0.0719 -0.1262 -0.0195
29278W        W46802   3.673   6.216  13.680  0.0350  0.0066  0.1920
29279W        W46803  15.117  14.881  13.916 -0.3208  0.2012  0.1622
29280W        W46804  15.162   7.507  11.981  0.0301 -0.0724  0.2064
29281W        W46805   3.616  17.108   3.284 -0.1509 -0.1133 -0.0730
29282W        W46806   4.329   8.234  13.465  0.0502 -0.3704  0.1819
29283W        W46807   7.190  10.896  13.289  0.0523  0.0250 -0.0879
29284W        W46808   3.880   3.330  15.213 -0.0751  0.0227 -0.0976
29285W        W46809  14.189  16.230   4.003  0.1002 -0.1821  0.0046
29286W        W46810  13.007  15.282   2.128  0.0427 -0.2125 -0.2442
29287W        W46811   9.038  13.181   3.858 -0.0344  0.1529 -0.2213
29288W        W46812  12.983   3.198   0.951  0.3833  0.2056 -0.3907
29289W        W46813   2.599   7.322   3.428 -0.0766 -0.1818 -0.0020
29290W        W46814   4.839   7.076   0.331 -0.1116 -0.1155  0.2707
29291W        W46815   6.462   3.111   3.574 -0.0421 -0.0152 -0.0854
29292W        W46816   2.254   5.178   5.376  0.0548 -0.0233 -0.1071
29293W        W46817  11.227  12.993   5.916 -0.1057 -0.0666  0.1904
29294W        W46818  16.963  15.854   1.911 -0.0483  0.2003 -0.0026
29295W        W46819   2.591   0.535  12.814 -0.1394 -0.2065 -0.0515
29296W        W46820   6.856   5.609   2.242 -0.0019 -0.2308 -0.1734
29297W        W46821  12.186   1.942   2.160  0.0982  0.0942 -0.3421
29298W        W46822  10.883   8.406   4.081  0.1350  0.2290 -0.3327
29299W        W46823  16.208   0.055   3.674 -0.1107  0.0518  0.0573
29300W        W46824  10.988   8.012  12.781  0.0610  0.0302  0.0636
29301W        W46825   6.142   8.215   1.514  0.0057 -0.2994 -0.4506
29302W        W46826  10.379   8.826  16.997  0.0661  0.2129 -0.0610
29303W        W46827   9.467  15.306  16.624 -0.0281  0.1375  0.3567
29304W        W46828   0.339   4.604   3.461  0.0672 -0.3934 -0.2677
29305W        W46829   0.134  17.089   3.728 -0.0461 -0.1454  0.0459
29306W        W46830   9.095   7.948  15.407 -0.3326 -0.4230  0.2733
29307W        W46831   8.648  15.401  15.333  0.3570  0.0164 -0.0865
29308W        W46832   5.051  15.644  15.018  0.0442  0.1029 -0.1000
29309W        W46833   3.226   3.862  15.065 -0.0233  0.3912 -0.2761
29310W        W46834   2.437  14.996  16.690 -0.3002  0.3615  0.0462
29311W        W46835  11.757  10.194  15.396  0.0765 -0.0196  0.0702
29312W        W46836   5.679   2.278   2.751 -0.0634  0.3133 -0.3774
29313W        W46837   7.864  14.012  13.787 -0.0512 -0.0929 -0.0459
29314W        W46838   2.779   7.222   2.373  0.0884 -0.0626 -0.2647
29315W        W46839  10.574  10.087   1.463  0.2218 -0.0297 -0.1997
29316W        W46840  16.472  15.913   3.799 -0.0974 -0.0501 -0.6910
29317W        W46841   5.758   8.733   0.506 -0.1447  0.0066  0.0965
29318W        W46842  10.100   0.410   5.147 -0.1758 -0.2626  0.2585
29319W        W46843   1.894   3.982   1.093  0.0839 -0.1604 -0.1010
29320W        W46844   2.042   1.895   2.631 -0.2651  0.0856  0.2412
29321W        W46845   2.878   6.857   6.087 -0.3442 -0.2405  0.3134
29322W        W46846   0.421  11.451   2.982  0.3969  0.1867  0.3304
29323W        W46847   1.717   5.907   1.941  0.1112 -0.0152  0.1982
29324W        W46848   0.362   7.735  11.943 -0.1305  0.1553 -0.2116
29325W        W46849  16.525   4.394   1.820 -0.3115  0.0379  0.3422
29326W        W46850  10.009   5.948  14.235  0.0678 -0.2998  0.0879
29327W        W46851   7.308  13.000  15.576  0.1262  0.0505  0.0932
29328W        W46852   6.670   4.590  17.148 -0.0706 -0.2000  0.0686
29329W        W46853  12.988   6.077   3.008  0.0288 -0.1224 -0.2221
29330W        W46854   5.822   6.452  12.911  0.2803  0.1430 -0.0483
29331W        W46855  10.725   8.746  12.683 -0.2147 -0.2658  0.1114
29332W        W46856   9.938   7.158  13.189  0.1707  0.1489  0.1767
29333W        W46857   5.724   3.268   0.914  0.0108  0.0879 -0.0720
29334W        W46858   3.893  15.171  12.477  0.2880 -0.0201 -0.1459
29335W        W46859  12.901  11.297   2.149 -0.0253  0.2189 -0.0516
29336W        W46860   9.612   8.918  14.071  0.1008  0.1497  0.0053
29337W        W46861   1.715   1.661  12.076 -0.0700 -0.0730 -0.4000
29338W        W46862   0.847  16.171  15.522  0.0002 -0.0954 -0.4829
29339W        W46863  11.813   0.513   3.042  0.0908 -0.0295 -0.0028
29340W        W46864   9.500  10.458  14.115  0.2182  0.0819 -0.2647
29341W        W46865  12.002   6.107   2.761  0.2030  0.3055  0.0563
29342W        W46866   9.899   5.055  14.547 -0.4008 -0.2006 -0.0833
29343W        W46867  13.110  13.676   0.890 -0.0551  0.3194 -0.4033
29344W        W46868  14.526  15.802  15.855 -0.1481  0.0764 -0.0767
29345W        W46869   2.662  12.921   2.552  0.1105  0.1243  0.2699
29346W        W46870  16.242  16.114  14.537 -0.2162  0.1285 -0.0048
29347W        W46871   2.489   4.674   3.083  0.1947  0.1330  0.0154
29348W        W46872   6.881   7.506  15.841  0.3989  0.0617 -0.0556
29349W        W46873   8.811   1.046  13.063 -0.1191 -0.2509  0.2969
29350W        W46874  16.720  15.383   5.311 -0.0254 -0.0678  0.0966
29351W        W46875  14.493   1.174   4.627 -0.0155 -0.0126 -0.1088
29352W        W46876  16.555   2.791  13.545 -0.0457 -0.0551 -0.1051
29353W        W46877  13.946  16.718   4.688  0.1258  0.0369 -0.0945
29354W        W46878   6.377  13.556  17.579 -0.3144  0.0432  0.0788
29355W        W46879  12.788  12.823  16.625  0.0788  0.0272  0.0840
29356W        W46880   0.206   9.414  13.495  0.1559  0.3007  0.0059
29357W        W46881   1.219  13.278  13.520 -0.0418  0.0274  0.0856
29358W        W46882   4.685   8.957  16.793  0.0863  0.0545 -0.0879
29359W        W46883   3.249   9.626   1.668 -0.0222  0.0238 -0.2972
29360W        W46884   7.130   6.319  13.174  0.5583 -0.0096 -0.0137
29361W        W46885   5.120   5.503  12.736  0.2613  0.0421  0.0548
29362W        W46886  14.195  10.470  14.362  0.2155  0.0480 -0.0915
29363W        W46887  10.415   4.854   1.932  0.3579 -0.4407 -0.0286
29364W        W46888   0.435  13.460   1.396  0.2759  0.1197  0.3688
29365W        W46889   1.018   2.923  14.890 -0.1741  0.2757  0.0934
29366W        W46890  15.088   4.974  14.700 -0.1380  0.1259 -0.0416
29367W        W46891   5.340   6.539   2.367 -0.1078  0.0792 -0.0974
29368W        W46892  12.684   2.940   4.028 -0.1673 -0.2298  0.1284
29369W        W46893   2.554   1.663  12.718  0.3296  0.3079 -0.1495
29370W        W46894  15.699   7.609  13.712  0.0491  0.0258 -0.2171
29371W        W46895   2.885   0.363  11.944 -0.0426 -0.0840  0.1694
29372W        W46896   0.518   2.789   3.659  0.1312  0.0264  0.0718
29373W        W46897   1.408   3.532   2.861 -0.0026  0.0384  0.1476
29374W        W46898  17.096  11.950  17.087  0.1687 -0.1194  0.1866
29375W        W46899   7.494   8.355  13.816  0.2325  0.1011 -0.1241
29376W        W46900   0.473  15.139   5.089 -0.0048  0.2174 -0.0212
29377W        W46901  14.210   8.942   3.706 -0.2622 -0.1133 -0.0478
29378W        W46902   7.670   8.603  17.590  0.0904  0.2286  0.2011
29379W        W46903   2.163   5.230   0.901  0.0395  0.2219 -0.2192
29380W        W46904   7.368   5.144  16.706 -0.1573 -0.1255  0.2342
29381W        W46905   1.947   7.794  12.048 -0.1134  0.4508  0.1535
29382W        W46906   5.245  16.402   2.731  0.1088  0.0967  0.1483
29383W        W46907  13.561   7.568   0.289 -0.0003 -0.1691  0.0902
29384W        W46908  16.440   5.878  13.542 -0.2542  0.2965 -0.0420
29385W        W46909  10.027   2.598   5.901  0.7424  0.2988  0.1098
29386W        W46910  11.536  14.896  16.520  0.2844  0.2564 -0.0062
29387W        W46911  13.678   2.703  15.969 -0.1476  0.0140 -0.0281
29388W        W46912  15.897   4.215   1.157 -0.1967  0.1551 -0.1208
29389W        W46913  15.384  16.508   4.591 -0.0262 -0.3189  0.1624
29390W        W46914  12.480  10.616  14.734  0.5281  0.1622  0.0606
29391W        W46915   7.210  15.079  13.373  0.0721 -0.0015  0.0624
29392W        W46916   2.471   5.962  17.179  0.2695  0.1532 -0.1741
29393W        W46917  12.372   3.894   3.785 -0.2790  0.0928 -0.0166
29394W        W46918   7.529  15.508  15.009 -0.0366  0.2033  0.1884
29395W        W46919  12.447  14.928  16.893  0.0799  0.0681  0.1527
29396W        W46920   0.433   0.625  12.404 -0.2023 -0.1320  0.0432
29397W        W46921   7.597  17.094   5.498  0.1173  0.0481  0.0434
29398W        W46922   3.713   4.497  15.819 -0.2013 -0.0919  0.0427
29399W        W46923   8.442   8.237  12.514 -0.0109  0.1541  0.0486
29400W        W46924   1.064   4.452  13.691 -0.1541  0.1753 -0.3820
29401W        W46925   6.621   3.766   4.859 -0.0512 -0.0663  0.1837
29402W        W46926   7.360  15.950   3.074 -0.2699 -0.0440  0.0876
29403W        W46927   9.859   7.092   5.498  0.0672  0.2447  0.4079
29404W        W46928   4.968   1.834  12.309 -0.1043 -0.3019 -0.0750
29405W        W46929   4.710   4.476   1.973  0.1293  0.2471  0.0233
29406W        W46930   2.544   1.743   2.175  0.2429  0.1071 -0.3389
29407W        W46931   1.325   3.085   2.631 -0.0636 -0.1460 -0.0779
29408W        W46932  14.229   4.663  12.283 -0.2652 -0.2688 -0.0310
29409W        W46933   4.276   6.860  13.914  0.2084  0.4285  0.1567
29410W        W46934   7.664  16.188   3.884 -0.2598  0.1544  0.0344
29411W        W46935   3.337   4.207  13.730 -0.0275 -0.2363 -0.5703
29412W        W46936  15.677  14.791  17.124 -0.0883  0.0319  0.0721
29413W        W46937  15.935   8.279  15.031 -0.1644  0.3153  0.1977
29414W        W46938   0.036  15.465   4.305 -0.2339 -0.0458  0.2904
29415W        W46939   4.840  14.221   4.772  0.0291 -0.4014  0.0250
29416W        W46940   4.138  16.910   1.651 -0.0979 -0.3542  0.1183
29417W        W46941  13.831  12.506  17.467  0.0774 -0.0121 -0.1652
29418W        W46942   0.636   7.487   3.881  0.1137  0.1247 -0.0998
29419W        W46943   3.373  13.768   1.641  0.0706 -0.2040 -0.1275
29420W        W46944  14.697   4.250   4.987 -0.2431  0.0510  0.0973
29421W        W46945   0.302   4.748   4.682 -0.0513 -0.0749  0.0187
29422W        W46946   8.872   5.275   0.272  0.0351 -0.0335 -0.0114
29423W        W46947   2.990  11.563  13.866  0.0635  0.1112  0.0407
29424W        W46948  14.213   6.527  13.808  0.1440 -0.1329 -0.1672
29425W        W46949  10.327   0.686  16.735  0.0375 -0.1459  0.1417
29426W        W46950   3.542  15.860  16.418 -0.1250  0.2328  0.0238
29427W        W46951   8.343  10.835  16.785  0.1335 -0.1466 -0.3895
29428W        W46952   0.890  12.567  16.511  0.1365 -0.1817 -0.0659
29429W        W46953  11.595   3.420  13.157  0.1003 -0.1023  0.1657
29430W        W46954  15.604  11.467  15.681  0.1853 -0.0911  0.1005
29431W        W46955   6.397  12.532   1.928  0.0274  0.1553  0.2594
29432W        W46956   1.226   3.287  13.434 -0.0259  0.3935 -0.1541
29433W        W46957   8.026   1.930   5.599  0.2664  0.1647  0.0655
29434W        W46958   2.401  12.806   2.167 -0.0383 -0.2982  0.0306
29435W        W46959   6.906   5.075   4.416 -0.0732  0.1495  0.0675
29436W        W46960  13.976   8.579   4.615  0.1002 -0.1855 -0.0618
29437W        W46961   0.753   3.242  14.244  0.1284  0.1326 -0.1331
29438W        W46962   8.188   8.454  16.541  0.0876 -0.1119 -0.1097
29439W        W46963   1.399  10.044  15.978 -0.0226 -0.1252  0.2609
29440W        W46964   4.898  10.643  14.428  0.2157  0.5723 -0.4468
29441W        W46965  10.641   8.865   4.408  0.1248  0.0148  0.2123
29442W        W46966  17.112   9.418   3.356 -0.0105  0.0761 -0.2319
29443W        W46967   6.044  10.470   2.238 -0.1046  0.2213  0.0834
29444W        W46968   5.713  10.066   0.323  0.0203  0.0407  0.1878
29445W        W46969  13.534   6.015  13.938 -0.2152  0.3079  0.1285
29446W        W46970  14.723   6.950   1.052 -0.1049  0.0910  0.0234
29447W        W46971  12.890  12.056   3.054  0.2510 -0.0860  0.1222
29448W        W46972  14.101  14.306  12.310 -0.1916 -0.3680 -0.1013
29449W        W46973   3.087   7.230   3.930 -0.1704  0.2781 -0.1136
29450W        W46974   2.697   1.271   2.484  0.0236 -0.1056 -0.4562
29451W        W46975   4.602  13.356   0.036 -0.1098 -0.2037  0.1945
29452W        W46976  12.633   3.295  17.131  0.1771  0.2155  0.1261
29453W        W46977   0.401  11.678  16.234 -0.1973 -0.2241 -0.2950
29454W        W46978   1.609   7.274   1.681 -0.0842  0.3055  0.0887
29455W        W46979   3.597   6.623   3.888  0.1635  0.1288 -0.0735
29456W        W46980   7.406  15.685  13.937 -0.0884 -0.1502  0.0243
29457W        W46981   2.390   3.854  13.443  0.2087  0.0216 -0.2083
29458W        W46982  11.840   1.542   4.733 -0.1252 -0.1702 -0.0534
29459W        W46983  13.301  15.384  12.100  0.2587 -0.0423  0.1315
29460W        W46984   6.969  14.852  13.031  0.0679 -0.1386  0.2014
29461W        W46985   3.379   2.474  16.763  0.2841  0.4050 -0.0390
29462W        W46986  10.453   8.327   5.498  0.5222 -0.2301 -0.0475
29463W        W46987   0.485  11.587   4.958  0.2244 -0.2274 -0.2662
29464W        W46988  11.314  17.228   0.559 -0.2445  0.0568 -0.1108
29465W        W46989   4.760   6.907  14.932 -0.0465  0.4392 -0.2296
29466W        W46990   2.004   7.361   4.717  0.0886  0.1661  0.1786
29467W        W46991   4.319  13.873  12.066  0.2515  0.0978 -0.0433
29468W        W46992  11.705   3.476  16.682 -0.1759 -0.1739 -0.1330
29469W        W46993  14.954   0.089  13.166  0.0384  0.0821 -0.0449
29470W        W46994   7.670  14.889   0.178  0.2070  0.1292 -0.2217
29471W        W46995   1.772  15.418   2.269  0.1536  0.0433 -0.1614
29472W        W46996   1.401   0.547  12.319  0.1941  0.0466  0.0412
29473W        W46997  10.959  15.002  12.299  0.3574 -0.0539  0.0684
29474W        W46998   8.128   5.457   2.255 -0.0722  0.0142 -0.2121
29475W        W46999  13.629   6.728  16.527  0.1006  0.1514  0.1096
29476W        W47000   1.580  13.922  15.025  0.0172  0.3222 -0.0606
29477W        W47001  16.985  10.316  14.592  0.0875 -0.1813 -0.1089
29478W        W47002   3.018  14.244   3.940 -0.1194 -0.0660 -0.0684
29479W        W47003   8.655  16.165   3.686 -0.1829  0.1693  0.2338
29480W        W47004   5.953  16.252  12.391 -0.2005  0.0510  0.1950
29481W        W47005   5.414   2.640  17.488 -0.0548 -0.2523  0.1841
29482W        W47006   4.519  12.918  17.507 -0.0922  0.0818 -0.1201
29483W        W47007  11.707  11.143  12.519 -0.0991 -0.2128  0.2210
29484W        W47008  11.890  11.680  16.796  0.1669  0.1333 -0.2191
29485W        W47009  11.065  13.805  17.595  0.1288 -0.0362 -0.1624
29486W        W47010  10.358   7.927   0.498 -0.2590 -0.1831 -0.0844
29487W        W47011  13.488   2.436  16.655  0.0936  0.0322 -0.3419
29488W        W47012  14.108  10.309   2.587  0.0091  0.1313  0.0649
29489W        W47013   0.280  15.664  16.094 -0.0316 -0.0667  0.0693
29490W        W47014  13.083   3.695  16.045  0.1706  0.0686  0.1349
29491W        W47015   3.356  15.853   5.820  0.0279  0.2795 -0.2041
29492W        W47016  15.249   1.505   1.648 -0.2834 -0.2292  0.1079
29493W        W47017  13.011  12.801  17.579 -0.0968 -0.1594  0.0906
29494W        W47018   6.826   9.384  16.736  0.1166 -0.0455 -0.0958
29495W        W47019   4.288  13.508   0.969  0.3509 -0.0944  0.2236
29496W        W47020   5.762  16.691   5.033 -0.1455 -0.1314  0.3359
29497W        W47021   2.901  17.211   1.980  0.1128  0.2049 -0.2941
29498W        W47022   0.852   2.777  14.415  0.0651  0.0156 -0.0278
29499W        W47023  12.772   4.917   4.554 -0.0372 -0.0554 -0.2351
29500W        W47024  15.150   4.760  15.119  0.3650  0.0536 -0.0505
29501W        W47025   3.744   1.085   1.421 -0.0874  0.0223  0.0120
29502W        W47026   5.470   7.007  14.361 -0.1735  0.0535  0.1623
29503W        W47027   9.098  15.992   5.592  0.2498 -0.0648  0.0756
29504W        W47028   2.689   3.536  16.469 -0.3135 -0.0218  0.4561
29505W        W47029  11.561   5.300  14.650  0.0317  0.1751 -0.0502
29506W        W47030  11.074   3.662  17.031 -0.4337  0.1104 -0.4138
29507W        W47031  10.625  10.841  11.565 -0.2558  0.0467 -0.0174
29508W        W47032   6.894  17.003  13.704  0.3438  0.1018 -0.1842
29509W        W47033   5.409   7.788   4.115  0.1797 -0.2199  0.0906
29510W        W47034   4.567   1.381   0.990 -0.1250  0.5047  0.0946
29511W        W47035   9.439   9.228   3.554  0.1010 -0.4880 -0.0210
29512W        W47036   0.690   7.315  12.076  0.0984 -0.0738 -0.2187
29513W        W47037  13.965  10.010  14.325  0.0580 -0.2205  0.0178
29514W        W47038   4.652  12.378  15.862  0.0345 -0.0687  0.1326
29515W        W47039   1.733   3.336  16.038 -0.0430 -0.2541  0.0038
29516W        W47040  11.945  16.404   2.114 -0.0698  0.3683 -0.1415
29517W        W47041   1.662   4.592  16.536  0.1441 -0.2415 -0.0848
29518W        W47042  14.866   9.320  13.798 -0.0408  0.0046 -0.1108
29519W        W47043  13.453   5.661  15.996  0.0092  0.1125  0.2542
29520W        W47044   9.654   9.231   0.916 -0.2598 -0.1251  0.1993
29521W        W47045   4.636  11.971  14.603 -0.2552 -0.1501  0.1435
29522W        W47046  15.789  13.200  15.178 -0.1775 -0.0535  0.1797
29523W        W47047  12.293   7.746   2.641 -0.0437  0.0624  0.0636
29524W        W47048  17.081   1.156  12.406 -0.0286  0.1844  0.1774
29525W        W47049   0.167  11.893  17.637 -0.1517  0.0085 -0.0944
29526W        W47050   2.586   1.851  16.916 -0.3894  0.2118 -0.1540
29527W        W47051  13.501   9.671  12.784 -0.0409  0.0257  0.3395
29528W        W47052  13.473   5.521  17.627  0.1056  0.0536 -0.2324
29529W        W47053  15.600   3.860  13.066 -0.1379  0.1168  0.2905
29530W        W47054   4.106  16.417  12.888 -0.1882 -0.0016  0.1434
29531W        W47055   7.057   2.327   0.743  0.0424  0.0532 -0.3364
29532W        W47056  10.138  17.001  16.656  0.0711 -0.0998 -0.2523
29533W        W47057   2.037  15.547  14.703  0.0093 -0.1627 -0.0451
29534W        W47058   4.656  15.535   2.049 -0.1693 -0.0244  0.0269
29535W        W47059   1.377   1.310   6.071 -0.0864  0.0322  0.1098
29536W        W47060  15.302   9.520  13.876 -0.0984  0.1123 -0.0035
29537W        W47061   9.309   8.111  17.511 -0.1769  0.0981  0.2317
29538W        W47062  15.225  10.636   2.407 -0.1999  0.3155  0.1786
29539W        W47063   1.871  10.893   4.107 -0.2267 -0.1057  0.0373
29540W        W47064   8.830  13.938   3.815  0.1532  0.1858  0.0889
29541W        W47065   3.377  10.791  14.207 -0.0877 -0.0927  0.0320
29542W        W47066  14.841  14.366   2.025 -0.3357  0.0255 -0.4147
29543W        W47067   3.815   3.150   2.037  0.2014 -0.1076 -0.0734
29544W        W47068   6.822   1.398   6.117 -0.2951 -0.1034  0.0831
29545W        W47069   5.437  11.788   0.711  0.0348  0.4009 -0.2454
29546W        W47070  12.570   4.011  13.251 -0.0624 -0.0014  0.0489
29547W        W47071   1.800   2.094  16.449  0.3167  0.1296  0.2579
29548W        W47072   6.402   0.206   5.092  0.0109 -0.0856  0.0975
29549W        W47073   1.104   0.048   0.434  0.0121 -0.0039 -0.3398
29550W        W47074  13.725  15.548  15.938  0.1311  0.1700 -0.0764
29551W        W47075   8.469  10.867   0.170  0.3222  0.0391 -0.1050
29552W        W47076   3.190   6.949   3.079  0.1776  0.1694  0.1029
29553W        W47077  15.264   2.962  17.080  0.0136 -0.2785  0.1189
29554W        W47078   4.011  11.526   1.951 -0.2549  0.3898 -0.3766
29555W        W47079   0.645   7.326  13.149  0.1933  0.3339 -0.3710
29556W        W47080  13.112   7.199  11.972  0.2551  0.2847 -0.2311
29557W        W47081  15.621  14.394   0.186  0.2639 -0.0065  0.1165
29558W        W47082  11.033  11.184  12.625  0.1353 -0.2331  0.0429
29559W        W47083   1.710   3.009   4.054  0.1982  0.2310 -0.0379
29560W        W47084   2.643   3.439   4.104 -0.1485 -0.1724 -0.0485
29561W        W47085   1.106  10.103   2.134  0.1762  0.0028 -0.1855
29562W        W47086  16.168   5.880   2.212 -0.2645  0.0612  0.1511
29563W        W47087   1.216  16.237   3.175  0.3112 -0.0779  0.1030
29564W        W47088  12.283   5.561  13.218  0.2609 -0.0458  0.0950
29565W        W47089   9.259  10.850  15.358 -0.0650  0.2412  0.0574
29566W        W47090  11.736   1.708   2.878  0.0499 -0.1644  0.1585
29567W        W47091   2.234   2.666   4.706  0.0101  0.1127 -0.1711
29568W        W47092  10.023  13.981   4.482  0.1843 -0.0579 -0.0377
29569W        W47093  13.137   9.730   1.471 -0.0056  0.2449  0.0438
29570W        W47094  12.110   0.913   3.220 -0.0283  0.2212 -0.0931
29571W        W47095   9.227   2.135   4.765  0.1649  0.2604 -0.0145
29572W        W47096   2.449   1.358  17.495 -0.0330 -0.1874 -0.3112
29573W        W47097   5.735  14.658   4.309 -0.3077 -0.0549  0.1428
29574W        W47098   0.549   3.110   3.242  0.1597  0.1674 -0.0989
29575W        W47099  14.620   8.197  14.513 -0.2169 -0.0981 -0.0241
29576W        W47100  16.544   9.692  13.426  0.0792 -0.0679  0.0093
29577W        W47101  12.808   2.051   4.692 -0.3042 -0.1369 -0.4621
29578W        W47102   3.320   8.968   4.227  0.2397  0.0085  0.0602
29579W        W47103   8.062   7.487  16.778 -0.0414  0.1968 -0.0585
29580W        W47104   0.034   2.457  13.583  0.0507 -0.0342 -0.0984
29581W        W47105  12.137  16.365   1.571  0.2007  0.3582  0.1366
29582W        W47106   4.673   7.539   4.366 -0.2316  0.2083 -0.2879
29583W        W47107  11.825  16.888  14.281 -0.1579  0.1474 -0.1425
29584W        W47108  10.165   9.207  12.004 -0.0877  0.0512  0.3198
29585W        W47109  11.543   4.687   0.305  0.0376 -0.0992 -0.2100
29586W        W47110  11.539  15.683  15.628  0.0464 -0.3379  0.3459
29587W        W47111  16.695  12.630   0.293  0.0742  0.2821  0.1668
29588W        W47112   2.473  16.561   2.130 -0.2223 -0.0198  0.0775
29589W        W47113  13.423  10.842  13.061  0.0763 -0.0338 -0.2946
29590W        W47114   8.824   7.391  13.021  0.0407  0.0953  0.2987
29591W        W47115  12.190  12.811   0.028 -0.0616  0.0582  0.0797
29592W        W47116   2.314   3.657  12.993 -0.1499 -0.0923  0.0974
29593W        W47117   2.528  12.811   4.443  0.1399  0.1841  0.2802
29594W        W47118  11.674  11.355  15.039  0.0728  0.1365  0.2118
29595W        W47119  15.527   1.173   2.952  0.3537  0.0150  0.0672
29596W        W47120   5.318   9.518  14.140  0.1604 -0.2466 -0.0922
29597W        W47121  11.632   5.128   0.738 -0.1470  0.1609  0.1767
29598W        W47122  14.542   3.830  13.040 -0.0188  0.4653  0.5872
29599W        W47123   5.676   9.660  12.458 -0.0124  0.0100 -0.1230
29600W        W47124   1.836  16.922   3.601 -0.0909 -0.1307  0.0311
29601W        W47125   6.718   9.919   3.646  0.1690 -0.2537 -0.2327
29602W        W47126   9.250   2.348   6.768 -0.3466  0.1434  0.0151
29603W        W47127   7.386  13.994  14.124  0.2325 -0.4689  0.1191
29604W        W47128  16.983  16.807   5.329  0.0087  0.0694  0.0939
29605W        W47129   2.226   2.741  11.954  0.1350  0.1818  0.0030
29606W        W47130   3.221   6.158  14.368 -0.1524 -0.0419 -0.1634
29607W        W47131  11.040   1.792  16.934 -0.1754  0.0654 -0.1864
29608W        W47132   7.046   6.428  15.653 -0.1382  0.2198  0.2822
29609W        W47133   0.592   4.615   2.062 -0.1721 -0.1555  0.1970
29610W        W47134  10.078  12.749   5.317  0.2990  0.0272 -0.0018
29611W        W47135   9.477  10.711   1.006  0.2124 -0.2819 -0.1437
29612W        W47136  17.050   5.404   5.286 -0.1506  0.0364 -0.0952
29613W        W47137   2.229   8.664   6.004  0.3068  0.2231 -0.0589
29614W        W47138  13.674   9.262   4.535 -0.0212  0.1951  0.4619
29615W        W47139  14.227  14.538  15.614 -0.1650  0.1082  0.1017
29616W        W47140  14.513   3.321  13.139  0.0176  0.0090  0.0954
29617W        W47141   0.215   4.217   3.760 -0.0741  0.1438  0.1164
29618W        W47142  14.945   8.579   4.484 -0.1151  0.2593 -0.1823
29619W        W47143   8.684   5.013   5.188  0.2258 -0.0364 -0.2601
29620W        W47144   8.030   2.664  17.513 -0.1548 -0.0622  0.1359
29621W        W47145   1.782   2.191   5.098 -0.0141 -0.0605  0.0047
29622W        W47146   5.297   7.941   5.075  0.0838 -0.0178  0.0198
29623W        W47147   9.629  15.800  14.291  0.0056  0.0035 -0.0504
29624W        W47148  14.244   9.163  16.307 -0.1140 -0.1791  0.2228
29625W        W47149  15.402   9.339  14.518  0.0079  0.2916 -0.1639
29626W        W47150   8.331   4.625   2.822 -0.0876 -0.1555 -0.2543
29627W        W47151  16.475  10.755   2.434  0.2871 -0.2705  0.0584
29628W        W47152   3.569   0.351  13.415 -0.0207 -0.1327 -0.1502
29629W        W47153   0.732   5.001   1.177 -0.0962 -0.2015 -0.2460
29630W        W47154  11.583   7.273  17.086 -0.0342  0.1381 -0.3633
29631W        W47155   8.695   6.944  16.298  0.1510  0.1385 -0.1220
29632W        W47156   8.333   4.018  15.629 -0.2022 -0.1508  0.0652
29633W        W47157  16.195   4.793   0.330  0.0039  0.1674  0.0262
29634W        W47158   4.532   3.894   1.182  0.2561 -0.1346 -0.2042
29635W        W47159   3.644  16.452  14.071  0.2103 -0.1369 -0.0008
29636W        W47160   4.677   1.489  13.069 -0.0597 -0.3645 -0.4277
29637W        W47161  12.130  10.214   0.306  0.1867 -0.0369  0.1199
29638W        W47162   2.010  15.881   1.472 -0.1389  0.0557  0.2080
29639W        W47163  11.195  12.125  14.251  0.0703 -0.1379  0.1928
29640W        W47164  12.445  11.865   2.880 -0.0896  0.0965 -0.1731
29641W        W47165   4.015  12.939  16.865  0.1164  0.0344  0.0306
29642W        W47166   3.675  15.561   2.052  0.1244  0.1394  0.0085
29643W        W47167  14.158   7.243   4.902  0.0850  0.1666 -0.4492
29644W        W47168   2.617  10.079  16.466 -0.1795  0.2128  0.2721
29645W        W47169   7.653   0.635  16.476  0.0562 -0.0735  0.2755
29646W        W47170   7.982   8.639  14.950 -0.0935 -0.2472  0.0822
29647W        W47171   3.681   5.539  15.005 -0.0737 -0.0501  0.0038
29648W        W47172   8.892   7.714   0.665  0.4835  0.0924 -0.1278
29649W        W47173   8.679   9.584  12.857 -0.1152  0.0261 -0.1168
29650W        W47174   4.527   7.103  12.330  0.0705 -0.0891  0.0708
29651W        W47175   7.138  13.865   1.689  0.0017 -0.2843 -0.2708
29652W        W47176  15.115   5.715  10.614 -0.1169 -0.1501 -0.1732
29653W        W47177  15.706   5.546  13.684 -0.1640  0.0341 -0.1978
29654W        W47178   6.883  10.983  16.501  0.2166 -0.0842 -0.0107
29655W        W47179  14.872  17.233   5.625  0.0519 -0.0296 -0.1656
29656W        W47180   9.232  12.662  15.624 -0.0209  0.2508 -0.1035
29657W        W47181  16.140  10.398   1.541  0.2620 -0.0866 -0.2961
29658W        W47182   5.916  16.034  16.274  0.0212 -0.2139 -0.1411
29659W        W47183   9.268  13.528   1.844  0.1013  0.1748  0.1732
29660W        W47184   6.776   5.082   0.438 -0.2074 -0.2153 -0.2808
29661W        W47185   2.702   7.430   1.937 -0.1851 -0.1886  0.3431
29662W        W47186  14.831  11.740  17.452 -0.3317 -0.4317  0.3509
29663W        W47187  12.782  13.390   0.194  0.1002  0.2069  0.1267
29664W        W47188  16.833   0.054   4.683  0.1621 -0.0458 -0.1685
29665W        W47189  11.121   3.418   5.060 -0.2308  0.0795  0.3123
29666W        W47190   4.525   8.810  14.163  0.2401  0.2380  0.0347
29667W        W47191  12.698   6.047   3.481  0.0405  0.0367 -0.2580
29668W        W47192   3.291  10.356   5.006 -0.0839  0.1963 -0.2083
29669W        W47193   0.302  12.762  13.142  0.0812 -0.1056  0.1015
29670W        W47194  13.162   0.823  12.499  0.2670  0.1474  0.1395
29671W        W47195  10.397   0.579   0.423  0.0326  0.1173 -0.0418
29672W        W47196   6.518   8.138   2.257 -0.3114  0.4098  0.0191
29673W        W47197   9.223   3.218  16.008 -0.2164 -0.1685  0.4229
29674W        W47198   1.123   9.500   2.996 -0.0806 -0.1634 -0.0431
29675W        W47199  12.727   6.293  15.754  0.1076 -0.1796 -0.1527
29676W        W47200  15.334  11.898  15.450  0.0650  0.0914 -0.0982
29677W        W47201   7.330   5.968   1.595 -0.1129 -0.0173 -0.2008
29678W        W47202  14.017   8.276  12.411  0.3698  0.0198  0.2806
29679W        W47203   7.810  10.559   6.032  0.0813  0.4023  0.0540
29680W        W47204   2.429   9.114   3.028 -0.3120  0.0462  0.2216
29681W        W47205   6.753  16.929  15.898  0.5512 -0.0697  0.1954
29682W        W47206  14.147  13.163  14.909  0.1786 -0.0848 -0.1512
29683W        W47207  14.574  11.381  14.795  0.1256  0.3580  0.1745
29684W        W47208   9.274  12.063  13.307 -0.0397  0.1497  0.1504
29685W        W47209   2.828   5.844   2.752  0.2810  0.0427  0.1278
29686W        W47210   0.776   7.437  16.341 -0.0448 -0.2282 -0.2379
29687W        W47211  12.153   6.881   2.172  0.2182  0.1693 -0.0153
29688W        W47212   0.521  12.682   0.239  0.1525 -0.1543  0.2043
29689W        W47213  11.241   9.196  14.391 -0.4989 -0.2572 -0.0153
29690W        W47214   2.081  12.243   0.809 -0.0591  0.0152 -0.0572
29691W        W47215   4.406  11.546  12.948  0.2688  0.0951 -0.2040
29692W        W47216   1.873  14.760  16.344 -0.1246 -0.2267  0.0624
29693W        W47217   4.843  11.894   1.296 -0.0077  0.2145  0.1021
29694W        W47218   5.517   3.680  16.187  0.4845  0.3629 -0.1148
29695W        W47219   1.433   8.965  13.528 -0.2292  0.1337 -0.0406
29696W        W47220  12.482   5.058  13.229 -0.0584  0.0028 -0.0356
29697W        W47221   1.947   5.207   1.958  0.0558 -0.3153 -0.0229
29698W        W47222   5.805   4.649  13.937  0.2194  0.0162 -0.0683
29699W        W47223   1.539   2.557  13.809  0.0344 -0.2028  0.0616
29700W        W47224   3.882  10.559  16.453 -0.1195 -0.0037 -0.1238
29701W        W47225   3.025  15.103  11.156 -0.0470  0.2595 -0.1497
29702W        W47226  14.244   1.676  14.654 -0.1998 -0.2151  0.0334
29703W        W47227   1.695  12.958  13.410  0.1243 -0.1363  0.0137
29704W        W47228  12.234   2.785   4.542 -0.3078  0.2309 -0.0328
29705W        W47229  10.848  12.846   3.754 -0.1782 -0.1875 -0.0493
29706W        W47230  10.887  12.465  12.429 -0.1321 -0.1721 -0.0526
29707W        W47231   8.561   8.063   0.358  0.0271 -0.1819  0.1593
29708W        W47232  15.477  16.576  14.447  0.1491  0.0576  0.0585
29709W        W47233  10.481   4.590   0.937  0.0755 -0.1709 -0.1700
29710W        W47234  17.100   5.848   3.795 -0.0207  0.0540 -0.0488
29711W        W47235   0.238  10.991  15.911  0.0057 -0.0286 -0.3362
29712W        W47236   9.220   5.182  16.892  0.1061  0.1393 -0.0026
29713W        W47237   6.395  14.906  14.642  0.0062  0.0081 -0.2440
29714W        W47238   1.824  15.020   5.210 -0.4553 -0.0895  0.0555
29715W        W47239   8.640  11.455   1.191  0.2070  0.0674  0.0355
29716W        W47240  12.569   9.219   0.731  0.2152 -0.0515 -0.1215
29717W        W47241   8.260   5.828  13.984 -0.1609 -0.1673 -0.3225
29718W        W47242  16.956   2.370  13.124  0.0091  0.5400  0.1118
29719W        W47243  15.638   1.788  13.531 -0.1475 -0.0343  0.4648
29720W        W47244   1.053  15.059  15.582  0.1042 -0.0926  0.0341
29721W        W47245  15.386   4.771  12.340  0.1274  0.1055 -0.0986
29722W        W47246  12.163   8.931  12.064  0.0602  0.2032 -0.1058
29723W        W47247  13.884   7.333  12.776  0.1782 -0.0751 -0.5239
29724W        W47248   5.974   1.572   3.914 -0.3447  0.0763  0.3811
29725W        W47249  16.596   9.904  13.902  0.4039 -0.1342  0.0429
29726W        W47250  10.936   0.076   3.326 -0.0014 -0.1186  0.0956
29727W        W47251  12.934   8.424  12.337 -0.1943  0.1611 -0.0009
29728W        W47252   6.519  13.567  13.472 -0.0795 -0.2045  0.0561
29729W        W47253   8.672   3.515  13.538 -0.0075 -0.2183 -0.0717
29730W        W47254   8.355  16.552   1.137 -0.2258 -0.2949 -0.0757
29731W        W47255   6.599  10.769   5.259  0.1480 -0.3846 -0.2049
29732W        W47256   3.972  12.439  16.775  0.1072 -0.0637  0.1756
29733W        W47257  14.866   7.886   0.197 -0.1324 -0.0625 -0.2596
29734W        W47258   1.289  17.048  12.942 -0.0313 -0.6771 -0.3130
29735W        W47259  13.199   9.194  13.303 -0.2386  0.3287 -0.2141
29736W        W47260   6.011   4.130  13.507  0.3438 -0.2852 -0.0698
29737W        W47261   7.166  14.348   1.876  0.1834  0.0549  0.1023
29738W        W47262   6.368  15.919  12.374 -0.0184 -0.1484  0.1521
29739W        W47263  15.230  14.621   3.117  0.0599 -0.1421  0.3019
29740W        W47264  10.737   5.219  15.000 -0.0376 -0.0427 -0.0826
29741W        W47265   5.860  15.029  14.663  0.0594 -0.3920  0.2396
29742W        W47266  11.075   0.101  14.482 -0.0626  0.1410 -0.1522
29743W        W47267   3.738  10.099   5.177 -0.1662 -0.1737  0.1558
29744W        W47268  13.883   4.319  16.539 -0.2794 -0.1203 -0.0283
29745W        W47269   7.437  11.660   0.251 -0.2580  0.0038  0.1117
29746W        W47270   7.543   3.855   3.457 -0.2028 -0.3665 -0.2592
29747W        W47271   7.546   3.221   1.117  0.1475  0.0240  0.0358
29748W        W47272  14.775  13.212   2.781  0.2667 -0.1075 -0.0044
29749W        W47273   1.842  12.373  17.293  0.0675 -0.2255 -0.0102
29750W        W47274   3.148  13.870   4.762  0.0551  0.4888  0.4262
29751W        W47275   6.100   5.695   1.266  0.1364 -0.0875  0.3280
29752W        W47276   2.731   3.961   5.452  0.1054  0.2829 -0.2332
29753W        W47277   2.220   6.542   0.108  0.0188  0.0410 -0.4124
29754W        W47278  15.856   6.549  13.670 -0.0509 -0.2311  0.1091
29755W        W47279   8.351  13.830  12.628 -0.2852 -0.2444  0.3568
29756W        W47280  12.696   7.124   4.063 -0.0730 -0.0604 -0.0899
29757W        W47281  15.075   6.766   1.856  0.1118  0.0753  0.0296
29758W        W47282   6.494   4.789  14.593 -0.1889  0.0354  0.2337
29759W        W47283   4.445   9.771   5.176 -0.1602  0.0103  0.0581
29760W        W47284  15.259   1.111   3.938  0.1940 -0.1185 -0.1814
29761W        W47285   5.443   8.098  17.082  0.0435  0.0212 -0.1432
29762W        W47286  11.661   0.663  12.677  0.2117  0.1343 -0.1621
29763W        W47287   0.570  13.659  13.162  0.2794 -0.1395 -0.2281
29764W        W47288  13.411   6.430   2.284  0.1542  0.2509 -0.2093
29765W        W47289   7.597   7.695  15.444  0.1478 -0.1397 -0.1345
29766W        W47290   1.237  14.449  13.919 -0.0771  0.0099  0.1422
29767W        W47291   9.037  15.991   3.262  0.2269  0.0795  0.1454
29768W        W47292   8.747  12.169   1.520  0.0998 -0.1730 -0.0386
29769W        W47293   6.102  12.458  14.926  0.0370 -0.0696  0.1821
29770W        W47294  10.066  12.862  14.581  0.1293 -0.1706  0.2684
29771W        W47295   2.754   4.044  13.056  0.1626 -0.2689  0.0284
29772W        W47296   4.659  15.176   2.934 -0.1114 -0.2463 -0.0283
29773W        W47297   4.099   8.282  12.201 -0.2034  0.1076  0.0848
29774W        W47298   5.137  16.923   0.537 -0.1773 -0.0574 -0.0341
29775W        W47299   2.314   3.203  12.795  0.1128  0.1250  0.0971
29776W        W47300   6.212   0.101  16.644 -0.3117  0.1775  0.0867
29777W        W47301  11.137   3.612  12.911 -0.1622  0.2122 -0.0609
29778W        W47302  13.342   2.391  15.757 -0.0076 -0.0952 -0.3921
29779W        W47303  10.892  12.083  15.432 -0.0077  0.1359 -0.1813
29780W        W47304   4.903   9.358  14.489 -0.0155  0.1427 -0.1700
29781W        W47305   5.650   3.877  13.266 -0.2283  0.2744 -0.1889
29782W        W47306   8.866  16.896  16.611 -0.0993 -0.1557 -0.1454
29783W        W47307   5.093   9.622  16.514  0.0286  0.1924  0.1466
29784W        W47308  16.165  16.268  14.016  0.0767  0.1964  0.0669
29785W        W47309   8.482  15.793  14.921 -0.0111 -0.1316  0.1863
29786W        W47310   7.854   5.222   0.367 -0.0808  0.1273  0.0873
29787W        W47311  14.049   0.080   1.562 -0.0686  0.1779  0.0085
29788W        W47312  11.802   3.856   3.528 -0.4364  0.0462  0.0695
29789W        W47313   0.114   4.704   4.201 -0.1794 -0.2403  0.0540
29790W        W47314  11.717   1.690  15.692 -0.4222  0.0201 -0.0099
29791W        W47315   5.329   0.181  13.603 -0.0207 -0.1194 -0.0301
29792W        W47316   1.686   2.523   5.487  0.0494  0.3750 -0.2592
29793W        W47317   0.546  11.580   1.849 -0.0017 -0.1775  0.0805
29794W        W47318   6.978  13.392  17.440 -0.0028  0.1823 -0.3515
29795W        W47319  17.047  11.554   4.231  0.1375  0.2290 -0.1978
29796W        W47320   5.468  15.355  16.908 -0.1874 -0.2124 -0.1031
29797W        W47321   0.426   4.564  17.632 -0.0792 -0.0198  0.0890
29798W        W47322  13.244   8.591  14.652  0.0021 -0.0959  0.0141
29799W        W47323   4.481   3.698  16.864  0.1888  0.2448 -0.0853
29800W        W47324   5.004  12.287   3.540 -0.0601  0.2506  0.1232
29801W        W47325  11.711  17.031   4.817  0.4266 -0.0693  0.0721
29802W        W47326   2.132  16.820   4.120 -0.0703 -0.1385  0.1184
29803W        W47327  13.701  13.102   1.673  0.0929 -0.6245  0.1106
29804W        W47328  16.889   7.331   3.392 -0.1784 -0.1025  0.2750
29805W        W47329  16.413   6.705   2.403  0.0021  0.0743  0.0352
29806W        W47330  11.124   5.534   1.355 -0.1312  0.2663 -0.1346
29807W        W47331   8.743  15.377  15.975  0.1603 -0.0747  0.1597
29808W        W47332  10.303   1.778  17.635 -0.0279  0.0335 -0.1611
29809W        W47333   0.533  10.239   0.917  0.1041 -0.2350  0.2457
29810W        W47334   3.050  10.373  14.060 -0.0276  0.1366 -0.0361
29811W        W47335  10.919  17.069  16.129 -0.1423  0.2974 -0.0496
29812W        W47336  14.535   4.493   0.442  0.1176  0.0628 -0.0127
29813W        W47337  15.264  14.630   4.521  0.0257  0.1284  0.1923
29814W        W47338   0.942  15.712   2.336 -0.2150  0.0394 -0.1403
29815W        W47339  14.763   3.425   1.548  0.3582 -0.2639 -0.0957
29816W        W47340   3.342   9.777   2.936 -0.0943  0.0346 -0.1186
29817W        W47341   3.248   2.832  11.934  0.0501  0.0655  0.2198
29818W        W47342  10.788  16.024  14.436 -0.0080 -0.0091  0.2486
29819W        W47343  10.308   4.456   1.608 -0.0688  0.3393  0.0578
29820W        W47344   6.321  12.246  14.458  0.1042  0.2638 -0.3418
29821W        W47345   2.355   4.973   1.645 -0.0491 -0.3951  0.2633
29822W        W47346  16.400   8.271   3.729  0.2213 -0.3893  0.2103
29823W        W47347   5.017   8.130   0.861  0.0872  0.2384  0.1039
29824W        W47348   2.534   1.046   4.811  0.1147  0.1043  0.0422
29825W        W47349   4.231   9.114  12.480 -0.1062  0.3615 -0.2067
29826W        W47350  13.663   7.083   1.491  0.1576  0.0226 -0.1061
29827W        W47351  12.409  15.914  15.903 -0.0715 -0.2593  0.1053
29828W        W47352   7.032   2.465  14.014  0.1161 -0.2089 -0.2887
29829W        W47353  14.112  13.349  16.547  0.0928  0.0305 -0.2362
29830W        W47354  17.137   4.980  11.817  0.2499  0.1348  0.1718
29831W        W47355   9.227   1.944  12.150  0.2474 -0.3221  0.0789
29832W        W47356  15.227  10.577   0.716 -0.1907  0.1647  0.0609
29833W        W47357   3.061  14.417   1.655 -0.2452 -0.1322  0.0897
29834W        W47358   8.270   0.148  16.838 -0.1735 -0.1505 -0.0193
29835W        W47359   0.388   6.734  17.042 -0.3889 -0.1307 -0.2692
29836W        W47360   6.040   9.139   4.236  0.0371  0.4650 -0.2660
29837W        W47361  16.769   1.406   2.902 -0.1355 -0.0249 -0.0295
29838W        W47362   0.318  11.315  16.858 -0.3032 -0.0891 -0.1178
29839W        W47363  16.152  14.444  15.514  0.1232 -0.1715  0.0380
29840W        W47364   4.115  15.447   1.520  0.1660 -0.2127 -0.0929
29841W        W47365   8.632  14.632   4.500 -0.0548 -0.1992 -0.3300
29842W        W47366   8.763   1.048   1.875  0.0509 -0.4945 -0.2262
29843W        W47367  14.370   3.029  16.872 -0.2819  0.2762  0.1622
29844W        W47368   5.900   3.646   0.198 -0.0297  0.0133 -0.2007
29845W        W47369   8.205  11.612   2.100  0.1734 -0.3810  0.2357
29846W        W47370   2.596  15.023   5.656  0.1464 -0.0923  0.1186
29847W        W47371   0.087   3.093  16.712  0.0347  0.1868 -0.1987
29848W        W47372   5.829   8.929   2.390 -0.2589  0.1389 -0.1836
29849W        W47373  16.288   5.383  15.384  0.2224 -0.0796  0.2257
29850W        W47374   3.954   6.234   5.326  0.0141  0.4374  0.2292
29851W        W47375   9.615   9.164   2.572  0.1039 -0.1895  0.0216
29852W        W47376  12.528   6.337  12.372  0.2010 -0.0854  0.1754
29853W        W47377   5.535   2.992  17.059 -0.0599  0.0511 -0.2142
29854W        W47378   0.024  13.429   5.486  0.2129 -0.0877 -0.1812
29855W        W47379   6.890  14.576   2.206  0.1610  0.4910 -0.2156
29856W        W47380  14.624  12.269   1.770 -0.0048  0.1780 -0.0485
29857W        W47381   8.559  10.133  14.396  0.2716  0.3657 -0.2849
29858W        W47382  13.462   7.625   5.007 -0.1475 -0.3732 -0.1261
29859W        W47383  12.939   0.813  14.293 -0.0958 -0.0880 -0.0428
29860W        W47384   2.674  10.101   0.242  0.1465  0.1666 -0.1633
29861W        W47385   2.517   8.603   5.073  0.2317  0.3389  0.0121
29862W        W47386  13.487  15.556   5.471 -0.0412 -0.2731 -0.2367
29863W        W47387  16.238  13.884  12.804 -0.0928  0.3432  0.0487
29864W        W47388  12.892   7.182   3.194 -0.0109  0.1237  0.0711
29865W        W47389   2.729   7.048  14.055  0.0407  0.3312 -0.3324
29866W        W47390   2.436   8.097   2.578  0.1840 -0.2244  0.1073
29867W        W47391  13.606   2.509   4.056  0.5058  0.0429 -0.0114
29868W        W47392  13.825  10.317  12.130 -0.2755 -0.2521  0.0509
29869W        W47393   3.222  13.727  14.047  0.1257  0.0535 -0.1418
29870W        W47394   7.589   9.823   0.932 -0.2854 -0.1756  0.3182
29871W        W47395  15.955  15.788  12.856  0.0316 -0.2144 -0.0826
29872W        W47396   7.116   0.560  16.607 -0.0252 -0.2430  0.0210
29873W        W47397  15.927  10.765  16.993 -0.2546  0.2771 -0.0276
29874W        W47398   0.281  15.285   1.949  0.1326 -0.0126  0.1590
29875W        W47399   2.413   8.329  17.616 -0.0541 -0.0193 -0.2024
29876W        W47400  14.509  13.888  17.653  0.4112 -0.1846 -0.2027
29877W        W47401   9.858   8.757  16.278 -0.2738  0.2173 -0.0945
29878W        W47402  15.776   2.127   0.590 -0.1903 -0.0329 -0.0315
29879W        W47403   3.736  13.543  15.714 -0.3096  0.0990 -0.0210
29880W        W47404   9.934   0.242  13.494 -0.1940  0.1421  0.0824
29881W        W47405   1.721  12.326  13.620 -0.2607 -0.0228 -0.0628
29882W        W47406  13.223   1.073   2.309  0.0114  0.3002 -0.2279
29883W        W47407  11.542  16.182  16.960 -0.2674  0.2042 -0.0755
29884W        W47408   6.587   8.866  15.279 -0.2210 -0.1112 -0.1193
29885W        W47409  16.975  10.136  14.117  0.0864  0.3841 -0.0843
29886W        W47410  16.747  12.160  13.253 -0.1370  0.0868  0.1363
29887W        W47411   6.920  10.676   4.390 -0.2446  0.1477  0.0278
29888W        W47412   2.362   4.725   0.950  0.0203 -0.2732  0.0522
29889W        W47413   2.523   1.070   2.942  0.0235  0.1414 -0.0670
29890W        W47414  17.227   8.031  11.989 -0.1678 -0.0381  0.2625
29891W        W47415  11.100  16.825   5.429  0.0743 -0.3088 -0.0532
29892W        W47416  11.456   1.787  14.322  0.0868 -0.0780 -0.0128
29893W        W47417  16.002  13.064   4.152  0.1404 -0.0289  0.0427
29894W        W47418  14.379  14.753  17.506 -0.1948  0.1223  0.0347
29895W        W47419   6.473   1.763  14.382  0.2769 -0.3580 -0.0021
29896W        W47420  11.344   1.882   5.195  0.0260 -0.1358  0.1285
29897W        W47421  11.778   6.944   2.505 -0.0085 -0.0491 -0.1144
29898W        W47422   1.667   3.560   4.767 -0.0940  0.2640 -0.0080
29899W        W47423   4.185   7.686   4.546 -0.0463  0.2148  0.1951
29900W        W47424   2.159   0.811   3.245  0.0468 -0.2648  0.1235
29901W        W47425   7.245  15.705  16.097 -0.0814  0.0708  0.0816
29902W        W47426   9.488   0.909   5.732 -0.0763  0.0940  0.0417
29903W        W47427   8.460  17.232  16.422 -0.1404  0.0946  0.0626
29904W        W47428   6.369  16.282   4.159 -0.0375 -0.0964  0.2541
29905W        W47429  15.992   5.801  12.809 -0.1678  0.3301 -0.0872
29906W        W47430  13.366   1.814   3.466 -0.1199  0.2041 -0.2561
29907W        W47431  16.471   3.469  15.229  0.0972 -0.3620  0.0735
29908W        W47432  13.965  16.011  14.123  0.0005  0.1567 -0.0235
29909W        W47433   1.883  16.186  14.134  0.0563 -0.2311 -0.1285
29910W        W47434  13.194  15.546  15.114 -0.1773 -0.3544 -0.0350
29911W        W47435   1.475  10.094  13.029  0.1678  0.0656  0.2282
29912W        W47436  16.076   1.109  16.463  0.1208  0.1307 -0.1516
29913W        W47437  11.812   8.352  16.349  0.1227 -0.0057 -0.2029
29914W        W47438  14.671   4.712   0.920 -0.4896 -0.1669  0.1306
29915W        W47439  16.164  13.372   4.633  0.1513  0.0599 -0.2448
29916W        W47440  12.168   2.688   0.992 -0.3055  0.1487  0.1431
29917W        W47441   2.563   8.044  13.122 -0.2746 -0.0399 -0.1416
29918W        W47442  15.089   4.244  16.535 -0.0327  0.1003  0.2916
29919W        W47443   9.008  11.302   4.480 -0.2124  0.0651 -0.2447
29920W        W47444   4.998   7.151  14.045 -0.0701 -0.0862 -0.2353
29921W        W47445   9.712   9.729   3.811 -0.0348 -0.1757 -0.0499
29922W        W47446  11.324  13.669  15.967  0.2956  0.0339  0.1813
29923W        W47447   5.645  16.586  14.253 -0.0915 -0.4519  0.2729
29924W        W47448  10.306  10.810  12.436  0.0968  0.1017  0.0094
29925W        W47449  13.551   0.862  15.066  0.2139 -0.1537  0.1643
29926W        W47450   3.147   6.070   5.260 -0.0172 -0.2614  0.1257
29927W        W47451  11.804   1.363   3.389  0.0932 -0.0789  0.2824
29928W        W47452  15.257  11.791   5.523  0.0046  0.2928  0.1121
29929W        W47453  15.945   7.439  15.876  0.1127  0.2257 -0.0257
29930W        W47454  12.560  11.956   0.806 -0.0534 -0.0598 -0.0328
29931W        W47455   1.480  10.634   0.701 -0.0161 -0.1159  0.0093
29932W        W47456  14.465  12.270  15.292 -0.0492 -0.0386 -0.0245
29933W        W47457   7.419  13.538  15.762 -0.0840  0.0417  0.0060
29934W        W47458   3.175  11.875  15.924  0.0221 -0.1393 -0.1775
29935W        W47459   0.263  12.811   4.811  0.0882 -0.2520  0.1923
29936W        W47460   3.021  11.758   5.800  0.1449 -0.0304 -0.1932
29937W        W47461  15.532  12.437  17.348  0.1048 -0.0792 -0.0435
29938W        W47462   7.190   7.817   3.060  0.0117  0.1645  0.2708
29939W        W47463  10.012   8.715   3.795  0.1469 -0.1815 -0.2207
29940W        W47464   3.472  10.706  14.723  0.0324  0.0517 -0.2945
29941W        W47465  14.831  14.869  14.393 -0.0702  0.1736  0.1500
29942W        W47466  16.935   0.058  12.767  0.3980 -0.1116 -0.0104
29943W        W47467   1.816   5.939   1.416 -0.1455  0.0395 -0.2657
29944W        W47468  12.670  11.633  14.631  0.0246  0.1907 -0.2212
29945W        W47469  10.150  10.395   0.952  0.1106 -0.0298 -0.2077
29946W        W47470  16.612   1.740  14.986  0.1106  0.0106 -0.2789
29947W        W47471  15.806  15.899   0.615  0.1706 -0.3090  0.2857
29948W        W47472  10.683   0.201  16.314  0.3638 -0.0361  0.0295
29949W        W47473  12.247   2.799  13.427 -0.0559 -0.0094 -0.0354
29950W        W47474   1.349  14.834  15.180  0.2826 -0.0293  0.0467
29951W        W47475  13.849   8.388   0.049  0.0785  0.1327 -0.0730
29952W        W47476   0.086   3.133  15.654 -0.0959 -0.2219 -0.0483
29953W        W47477  15.749  12.319  14.489 -0.0761 -0.0636 -0.2050
29954W        W47478   4.277   3.062   1.721  0.2859  0.0025  0.1064
29955W        W47479  14.742  10.653   2.101 -0.1277 -0.2224 -0.0163
29956W        W47480  13.609   5.129   2.356 -0.2352  0.1788 -0.0204
29957W        W47481   7.996   7.491   1.089 -0.0003 -0.2870 -0.1199
29958W        W47482   3.857   9.540  17.603  0.1646 -0.3183 -0.0054
29959W        W47483  10.622   6.383  15.348 -0.1831  0.1305  0.0116
29960W        W47484  12.501   2.432   3.857  0.2115  0.1431  0.3916
29961W        W47485   5.916  16.744  15.580 -0.0977 -0.0503 -0.2157
29962W        W47486   7.058  11.775   2.820 -0.0004 -0.0168 -0.2592
29963W        W47487   4.063  13.111  15.448  0.3901  0.0813  0.1422
29964W        W47488   4.847  13.198  14.061 -0.0130  0.0308  0.1052
29965W        W47489  16.185  14.987  17.335  0.2451 -0.1509  0.2600
29966W        W47490  14.884   3.648  12.759  0.2986  0.1329  0.1162
29967W        W47491   7.350   5.091  16.117  0.0091 -0.4777 -0.2969
29968W        W47492   1.200   5.006  13.741 -0.0514 -0.2384  0.1355
29969W        W47493   6.389   2.465   1.208  0.1792  0.0479 -0.1289
29970W        W47494   4.244   9.645   1.151  0.0633  0.0963  0.0770
29971W        W47495  15.169  11.819   2.952 -0.1024 -0.1642  0.0437
29972W        W47496   5.500   2.349   4.564  0.1517  0.2214 -0.2360
29973W        W47497  16.045   2.086   3.710  0.1015 -0.1917 -0.0836
29974W        W47498   4.878  17.168   1.235  0.0376 -0.1969  0.1411
29975W        W47499   9.832   8.945  12.928 -0.1613 -0.1044  0.1321
29976W        W47500   9.085   2.469  12.619 -0.0089 -0.1832 -0.0093
29977W        W47501   6.237   3.719  12.701 -0.0662 -0.2824 -0.0472
29978W        W47502   7.367  12.356  13.353  0.0230  0.0640 -0.1792
29979W        W47503   3.431   8.070   3.391  0.1025 -0.1339 -0.0312
29980W        W47504  11.762   7.569   2.421  0.2467 -0.2673  0.0525
29981W        W47505  11.721  17.143  15.712  0.3463 -0.0628 -0.0961
29982W        W47506  14.378   1.778  15.135 -0.0703  0.2078 -0.4490
29983W        W47507  15.988  13.961  12.368  0.0086 -0.0402  0.0465
29984W        W47508  14.043   1.618   2.956  0.2150 -0.2120  0.2660
29985W        W47509   8.201   7.065  13.601  0.1010  0.0940  0.0837
29986W        W47510  14.245   0.795   3.300  0.0641 -0.3172  0.2515
29987W        W47511   3.726  11.876   4.599 -0.0404 -0.0376  0.1477
29988W        W47512  11.103   1.493   6.439 -0.1898 -0.2931  0.1616
29989W        W47513   4.565  12.367  14.956  0.0152  0.1990 -0.0910
29990W        W47514   2.328  17.160   0.264 -0.0255  0.0089 -0.1257
29991W        W47515   2.916  10.094   4.281  0.0252  0.1351  0.0121
29992W        W47516  14.715   7.175   1.795 -0.0951  0.0441  0.0243
29993W        W47517   7.324   0.201   1.110  0.0721 -0.1532  0.0483
29994W        W47518   8.948   6.509  17.023  0.0307 -0.0391  0.0880
29995W        W47519   0.549  10.235  12.655  0.0538 -0.1833  0.1260
29996W        W47520  12.309  12.504   1.511  0.3973 -0.0949  0.0946
29997W        W47521  10.585  12.451  16.923  0.1928 -0.0241  0.2877
29998W        W47522  14.455   8.462   4.325  0.2461  0.0792 -0.0733
29999W        W47523  13.803   7.873  14.250  0.0394 -0.0542 -0.2515
30000W        W47524   1.635  14.245  13.024  0.0427 -0.0779 -0.1098
30001W        W47525  14.844   5.221  17.477  0.0154 -0.1823  0.0338
30002W        W47526   9.568   7.871   3.920 -0.1354  0.0197  0.2148
30003W        W47527   3.942   6.314  12.747 -0.2452 -0.0613 -0.2408
30004W        W47528   9.070  14.101  15.602  0.0763  0.0716  0.0711
30005W        W47529   2.685   6.636  14.619  0.0309  0.0625 -0.3933
30006W        W47530  16.669   5.013  12.914  0.0674 -0.1947 -0.2867
30007W        W47531   3.937   8.647   4.273  0.0307 -0.1301  0.2416
30008W        W47532   1.987   7.040   1.220  0.1801  0.1632  0.0623
30009W        W47533   5.331  12.947   2.145  0.2688  0.1700 -0.0091
30010W        W47534   2.973   8.457  16.855  0.1068 -0.3240  0.0557
30011W        W47535   2.934   6.672   4.582  0.1547  0.0410  0.0451
30012W        W47536   1.872   1.053   1.810 -0.1004 -0.1750  0.0138
30013W        W47537  16.829   7.872  11.705 -0.2468  0.1227  0.1881
30014W        W47538   7.127   4.479   2.821 -0.0922  0.1367 -0.1315
30015W        W47539  14.921   3.764  15.293  0.3193 -0.1091 -0.0299
30016W        W47540  12.567  13.211  13.913 -0.0538 -0.3710  0.0520
30017W        W47541   0.457  14.144  14.136 -0.1041 -0.1693  0.0547
30018W        W47542   0.503   6.815  13.688 -0.1339  0.0317  0.0624
30019W        W47543   0.996  12.346  13.561 -0.0727  0.0973 -0.1287
30020W        W47544   0.100   4.080  16.821 -0.1800 -0.1034  0.3292
30021W        W47545   0.607  11.889   0.945 -0.1409 -0.0642 -0.0073
30022W        W47546   2.155  13.080  13.234 -0.0092 -0.1485  0.0275
30023W        W47547   6.155   6.191  14.097  0.2830  0.2687 -0.2082
30024W        W47548  15.932   9.652   4.366 -0.2557  0.0221 -0.2381
30025W        W47549   8.282   1.427  16.756 -0.2379  0.0502 -0.0666
30026W        W47550   1.023  16.672  15.133 -0.1894 -0.1301 -0.2128
30027W        W47551   1.310   3.654  16.624  0.1937 -0.0385  0.2165
30028W        W47552  16.497   9.453  14.158 -0.0605 -0.0534  0.3404
30029W        W47553   0.799  11.110  17.566 -0.0895 -0.0075 -0.0804
30030W        W47554   2.987   4.501  15.807 -0.1726 -0.4959  0.2979
30031W        W47555  15.668   1.066  14.971  0.0630 -0.0688  0.0235
30032W        W47556  13.752   6.692   4.142 -0.1301 -0.1254  0.1634
30033W        W47557  10.924   0.929  13.317  0.4352  0.1815  0.0633
30034W        W47558  12.063   2.970  13.874  0.2516 -0.0106 -0.1356
30035W        W47559   3.791   4.133   2.114  0.0803 -0.2072 -0.1452
30036W        W47560  10.059  10.305  15.217  0.0659 -0.1552  0.1591
30037W        W47561  14.186   6.976   3.460 -0.3131  0.0438 -0.1602
30038W        W47562  15.160   8.272  13.144  0.1037  0.3129 -0.0384
30039W        W47563  12.805   0.925  16.435 -0.0811 -0.3019  0.0894
30040W        W47564   1.755   6.315  15.111  0.0236 -0.0125  0.0555
30041W        W47565   6.473  11.798   5.308  0.0995  0.2188 -0.2308
30042W        W47566  12.797   4.361  12.309 -0.1562 -0.1667 -0.1355
30043W        W47567   8.647   2.262  12.796  0.1198  0.1157  0.0428
30044W        W47568  15.457  13.232   4.004  0.1336  0.2035 -0.0377
30045W        W47569   5.256  12.718  15.447  0.1926 -0.1066 -0.1373
30046W        W47570  17.177   1.873   4.926  0.2180 -0.3164 -0.1900
30047W        W47571   7.561  16.130  13.883 -0.3329 -0.1864  0.0451
30048W        W47572   7.438  13.750   4.611  0.0335  0.0054  0.0276
30049W        W47573  15.051  14.096  12.191 -0.0388  0.1982 -0.0970
30050W        W47574   4.229   9.464   6.119 -0.2016  0.1078 -0.1913
30051W        W47575   2.260  16.754   4.601  0.2429  0.0831  0.0950
30052W        W47576   9.686   1.025  15.274 -0.1650 -0.2925 -0.1218
30053W        W47577   3.329  10.897   0.229  0.3237  0.2296 -0.2235
30054W        W47578   9.453   6.600   2.966  0.3139 -0.0027  0.1073
30055W        W47579   0.836  12.162  12.039 -0.0452  0.1636 -0.1205
30056W        W47580   5.971   6.143  17.448  0.0130 -0.0282  0.1330
30057W        W47581   7.579   9.501   2.524 -0.4070 -0.1563  0.1707
30058W        W47582   2.225   4.552   0.425 -0.0133 -0.0095 -0.1323
30059W        W47583  12.304   3.272   0.767  0.1269 -0.0156  0.2314
30060W        W47584   5.729  11.671   4.617  0.0419  0.2486  0.2164
30061W        W47585   0.335   8.710  16.175  0.1861  0.2875 -0.1725
30062W        W47586   1.537  15.307  12.902  0.0271  0.0347 -0.0127
30063W        W47587   5.603  15.570  13.251  0.0005 -0.1175  0.1564
30064W        W47588  15.076  14.040   2.338  0.1288  0.2210  0.2044
30065W        W47589  11.194   4.872   5.452  0.0191  0.0217  0.0363
30066W        W47590  16.386  11.996  16.823  0.2330 -0.1925  0.0899
30067W        W47591   9.682  13.047   2.595  0.2707  0.3672  0.0956
30068W        W47592  17.005   4.005  16.481  0.0907  0.1120  0.1001
30069ION     NA47593   8.195  15.972   6.671 -0.2128 -0.0682 -0.2409
30070ION     NA47594   3.631  16.909  15.425 -0.0659  0.1275 -0.0124
30071ION     NA47595   9.672   7.519   6.459  0.1550 -0.2069 -0.0536
30072ION     NA47596   7.212   4.968  11.810  0.2358 -0.0915 -0.0571
30073ION     NA47597   9.059  15.563   6.411 -0.1166 -0.0292 -0.2066
30074ION     NA47598   2.370  12.005   5.693 -0.1210 -0.1353 -0.1387
30075ION     NA47599   1.220  17.190   6.076  0.1347 -0.1956  0.0136
30076ION     NA47600   6.229  16.472   6.255 -0.0518 -0.3183 -0.2314
30077ION     NA47601   6.745  16.359  11.506 -0.0188 -0.2194 -0.0272
30078ION     NA47602   3.785   5.521  11.465 -0.0076 -0.1431 -0.2713
30079ION     NA47603  11.011   1.447  14.720  0.0546  0.1816 -0.1621
30080ION     NA47604   2.151   5.203   5.899 -0.0666  0.1240  0.1029
30081ION     NA47605   2.058  13.599  11.457 -0.1042  0.0935  0.0478
30082ION     NA47606  12.227   8.921   6.240  0.1684  0.0467 -0.0817
30083ION     NA47607   2.064   7.183  11.303 -0.1489 -0.0178 -0.0887
30084ION     NA47608   5.189   2.990  12.188  0.3325  0.3216  0.2021
30085ION     NA47609  15.284  13.800  11.027 -0.0215 -0.2579 -0.0057
30086ION     NA47610   7.027  11.994  11.852  0.1205  0.0989  0.0068
30087ION     NA47611  11.028  10.224   1.731 -0.1934  0.2286  0.1196
30088ION     NA47612   7.715   6.983  16.633  0.1482 -0.2360 -0.2422
30089ION     NA47613   3.213   9.303  11.541 -0.0819 -0.2898 -0.1113
30090ION     NA47614   8.208   0.841  12.188 -0.1911  0.2086 -0.2398
30091ION     NA47615  10.415  13.781  11.939  0.1680 -0.1113  0.0133
30092ION     NA47616   1.262  11.238  11.195  0.2330  0.3367  0.1657
30093ION     NA47617   7.778  10.214   6.374  0.0202  0.2078 -0.0058
30094ION     NA47618  11.838   0.809   6.494 -0.2126 -0.1864 -0.0311
30095ION     NA47619  14.337  10.681   3.595 -0.0679  0.1508 -0.1068
30096ION     NA47620  16.199   8.529   5.718 -0.0286 -0.0553 -0.0279
30097ION     NA47621  11.876  13.567  11.416  0.3525  0.2718  0.1244
30098ION     NA47622   2.718   8.746  11.289 -0.0698  0.0313  0.0347
30099ION     NA47623   1.506  15.797   6.261  0.1809 -0.2621 -0.2438
30100ION     NA47624   2.063   7.757  11.555 -0.0263  0.1876  0.0793
30101ION     NA47625   1.224  15.331   0.064  0.2452  0.0775  0.1786
30102ION     NA47626  11.319  16.787   6.729  0.1868 -0.1412  0.1418
30103ION     NA47627  16.798   9.119   6.048 -0.0159  0.1161 -0.1929
30104ION     NA47628  17.221  14.375   6.041 -0.0989 -0.3567  0.2386
30105ION     NA47629   6.925   3.347  15.973 -0.0796  0.2920  0.1144
30106ION     NA47630   6.349  16.463  11.288  0.1370  0.2287 -0.0683
30107ION     NA47631   0.666  16.045  11.378  0.1445  0.0326 -0.3106
30108ION     NA47632  12.116  16.253   6.334  0.0439 -0.0081  0.1591
30109ION     NA47633  13.099   4.079  11.427  0.1169 -0.2048  0.0671
30110ION     NA47634  12.141   9.704   2.164  0.0806  0.1240 -0.2778
30111ION     NA47635  14.546  15.302  11.434  0.0381 -0.2228 -0.0513
30112ION     NA47636   2.093  11.702  11.537 -0.1518  0.2443  0.0150
30113ION     NA47637  10.565  15.992  11.581 -0.1785  0.1500 -0.2308
30114ION     NA47638  16.575   0.608   5.217  0.2253 -0.0384  0.0654
30115ION     NA47639  10.843  15.745   3.556 -0.0414  0.2849 -0.3920
30116ION     NA47640   1.690   3.582   5.992  0.1904 -0.0236 -0.1019
30117ION     NA47641   1.045  13.281   6.243 -0.1175 -0.0535  0.1380
30118ION     NA47642  14.613  16.745   6.414  0.0603  0.0336  0.0441
30119ION     NA47643  14.117   0.181  11.691  0.1112  0.0724  0.0130
30120ION     NA47644   9.815   1.328  12.058 -0.1010 -0.4169  0.1043
30121ION     NA47645  15.201  14.321  14.365  0.1829  0.3421 -0.1639
30122ION     NA47646   1.147  12.025  11.083  0.0870  0.0087  0.2865
30123ION     NA47647  15.311  15.750  11.116  0.1755  0.0220  0.0388
30124ION     NA47648   1.428   7.978   6.075  0.1011 -0.0166  0.0111
30125ION     NA47649  15.310  16.452  13.943  0.0484 -0.0912 -0.0940
30126ION     NA47650  11.219   5.807   6.472 -0.1860 -0.0838  0.0195
30127ION     NA47651  13.306   1.694   2.125 -0.1834 -0.1037 -0.0946
30128ION     NA47652   1.789  15.826  11.469  0.0594 -0.0252 -0.0157
30129ION     NA47653   2.971  13.211   6.374 -0.0380  0.1995  0.2448
30130ION     NA47654   3.931   1.294   6.322  0.1361 -0.1595  0.1198
30131ION     NA47655  15.053  12.452  10.959  0.2338  0.1569 -0.1122
30132ION     NA47656   9.950  15.693   6.545 -0.1233  0.0396  0.0681
30133ION     NA47657   8.014   9.275   6.285  0.0264 -0.0598 -0.2753
30134ION     NA47658  16.713  10.667   6.041  0.2568 -0.0070  0.1450
30135ION     NA47659   1.190  16.213   6.239  0.1301 -0.0755  0.3235
30136ION     NA47660  10.131   5.616  11.753  0.2677 -0.0312 -0.1707
30137ION     NA47661   2.296   3.154  15.928 -0.0229 -0.1386  0.1861
30138ION     NA47662   5.146  11.290  17.370 -0.0804  0.1752  0.0302
30139ION     NA47663  15.822  14.789  11.181 -0.0645  0.0482 -0.0056
30140ION     NA47664   5.532   9.883   6.329  0.0360  0.2555  0.0063
30141ION     NA47665  16.430   6.126  11.092  0.3285 -0.1712  0.0737
30142ION     NA47666  13.999  13.234   3.254 -0.2020  0.2302 -0.1630
30143ION     NA47667   4.740   2.050  16.610  0.0074 -0.0765 -0.2183
30144ION     NA47668  12.476   5.437  17.242  0.1238 -0.2389  0.2892
30145ION     NA47669   9.081  13.700   6.583  0.1732  0.0146 -0.1646
30146ION     NA47670  12.017   1.049  11.725 -0.1194  0.1347 -0.3585
30147ION     NA47671   0.002  10.643  11.112 -0.0626 -0.0141 -0.2521
30148ION     NA47672  16.587  10.744  10.952 -0.0281 -0.0958 -0.2646
30149ION     NA47673   5.440   0.272  11.399 -0.2758 -0.2256  0.0283
30150ION     NA47674  12.272  13.849  15.795 -0.2021 -0.2777  0.2738
30151ION     NA47675   9.196  16.086  12.014  0.1428 -0.1024 -0.4930
30152ION     NA47676  13.418   8.866   4.784 -0.0675  0.0006 -0.0398
30153ION     NA47677   3.714  17.142   6.223 -0.0466 -0.0571  0.0026
30154ION     NA47678  16.620   2.400   6.213 -0.2187 -0.4185 -0.0576
30155ION     NA47679  14.178   8.306   5.990  0.1329  0.0267  0.2363
30156ION     NA47680  12.026   3.008  12.083  0.0371  0.0970 -0.0416
30157ION     NA47681   8.616  13.387  12.566  0.0626 -0.3201 -0.1512
30158ION     NA47682  16.817   3.815  12.179 -0.0127 -0.0638 -0.1031
30159ION     NA47683   8.103   7.849  11.451  0.0539 -0.1883 -0.0790
30160ION     NA47684   0.237   7.073   5.102  0.1294 -0.1098  0.1665
30161ION     NA47685   7.456  14.576  11.705  0.1638 -0.1581 -0.2192
30162ION     NA47686   1.063  14.557  11.227  0.1069  0.0307 -0.0590
30163ION     NA47687  10.385   0.414  11.794 -0.1649  0.1014 -0.1548
30164ION     NA47688  15.532   5.499   5.601  0.3900  0.0781 -0.1396
30165ION     NA47689  15.775  14.560   6.177 -0.0008 -0.0549  0.0867
30166ION     NA47690  11.929  10.284   5.981 -0.2336 -0.1580  0.1737
30167ION     NA47691   5.666  12.293   5.435 -0.4572  0.1618  0.1499
30168ION     NA47692   1.421  10.275  13.976  0.4204 -0.1444  0.4654
30169ION     NA47693  14.528  12.038   0.003  0.1037  0.2613  0.0069
30170ION     NA47694   5.529  10.723  12.244 -0.0479 -0.0460 -0.0060
30171ION     NA47695  12.377  11.007   6.125  0.0304 -0.2747  0.2020
30172ION     NA47696   0.628   0.755   6.125  0.0879 -0.0929 -0.1784
30173ION     NA47697  11.056  10.339  11.989  0.1357 -0.1624  0.0279
30174ION     NA47698   4.912  12.300  11.516  0.1743  0.1525 -0.0756
30175ION     NA47699   2.001   9.311   0.196 -0.0781  0.0065 -0.2839
30176ION     NA47700   0.668   5.542  10.988 -0.2602  0.1262  0.1679
30177ION     NA47701   8.249  15.992  11.476 -0.1913  0.0380 -0.2864
30178ION     NA47702   0.370   7.591   6.039  0.2341 -0.2046 -0.1713
30179ION     NA47703   0.248  13.242  11.393  0.1265  0.1728  0.1070
30180ION     NA47704  10.315  11.863   1.595 -0.0152 -0.0972  0.2233
30181ION     NA47705  16.475   1.589  11.279  0.2661 -0.2862  0.1575
30182ION     NA47706  10.910   1.957   6.743 -0.0102  0.2471  0.1225
30183ION     NA47707  13.405  13.407   6.122  0.1749 -0.0247 -0.1247
30184ION     NA47708   3.566  11.340  11.678 -0.0790  0.2731 -0.0611
30185ION     NA47709   9.425   0.561   6.611  0.1781  0.0816 -0.0800
30186ION     NA47710  13.984  14.933  16.878 -0.1039  0.1055  0.0860
30187ION     NA47711   9.825   4.698  11.617 -0.0345 -0.0384  0.0771
30188ION     NA47712   9.344   2.698   6.433  0.1203 -0.0908 -0.1012
30189ION     NA47713  14.454   4.243   4.025 -0.2399  0.1197  0.2299
30190ION     NA47714  14.688   7.806   5.948 -0.1108  0.2722 -0.2832
30191ION     NA47715   1.480   5.933   5.953 -0.0781  0.2289 -0.1753
30192ION     NA47716  13.872   7.512   5.817 -0.0502  0.2892  0.0769
30193ION     NA47717   5.273   8.266  11.380  0.0507  0.3500 -0.1761
30194ION     NA47718   3.786   3.435  11.294  0.0297  0.3793  0.0530
30195ION     NA47719   0.721  10.014  11.121 -0.1853 -0.1181  0.0166
30196ION     NA47720   5.616  14.240  14.407 -0.3433  0.0426  0.0158
30197ION     NA47721  17.001   4.279   5.963 -0.1771  0.3040  0.4247
30198ION     NA47722  12.503  13.972   5.721  0.2073 -0.2543 -0.2596
30199ION     NA47723  15.498  12.770  13.446 -0.0303 -0.1093 -0.3229
30200ION     NA47724   1.860   9.524   6.072  0.1511  0.0459  0.0974
30201ION     NA47725   2.942   2.071  11.112 -0.0112  0.2472  0.0878
30202ION     NA47726  13.714  12.090   6.197 -0.0501  0.1325  0.2305
30203ION     NA47727   1.982  11.458  17.184 -0.0596 -0.1302 -0.2522
30204ION     NA47728   9.067   9.241   6.379  0.0816  0.0502 -0.0811
30205ION     NA47729   4.389   3.313   6.314 -0.1945  0.1148  0.0688
30206ION     NA47730  11.319  14.305  12.721 -0.0059  0.0759 -0.1503
30207ION     NA47731   2.370  15.901   0.315 -0.1119 -0.0936 -0.0663
30208ION     NA47732  14.802   6.922  11.094 -0.1786 -0.1589  0.1017
30209ION     NA47733   6.418   7.503   6.098 -0.0201  0.0404  0.2511
30210ION     NA47734   1.834  14.739  11.381 -0.1804  0.0704 -0.0005
30211ION     NA47735   1.843   2.538  14.761  0.0343 -0.1445  0.0499
30212ION     NA47736  12.358  16.048  11.656  0.3111 -0.1402  0.0437
30213ION     NA47737  13.379   0.948   6.336  0.1350 -0.1773 -0.0469
30214ION     NA47738   1.562  14.037   6.211 -0.1653  0.3424  0.1259
30215ION     NA47739   6.708   5.597  11.563  0.0851  0.0554  0.1700
30216ION     NA47740  17.086  16.824   6.106 -0.2963 -0.1094  0.0922
30217ION     NA47741   9.603  15.402  13.923 -0.2184 -0.3551  0.1842
30218ION     NA47742   8.453  12.593   6.728 -0.1449 -0.0936 -0.1168
30219ION     NA47743   4.761  13.663   6.640  0.3043 -0.2955  0.1314
30220ION     NA47744   1.622   4.512   5.830 -0.5426  0.1160 -0.3574
30221ION     NA47745   2.951  15.669  14.076 -0.2564 -0.2300  0.1198
30222ION     NA47746   9.240  14.119  11.764  0.3055  0.1966  0.0577
30223ION     NA47747   5.042   3.670   3.434  0.0527 -0.1425 -0.1479
30224ION     NA47748  10.663   1.360  11.808 -0.0454 -0.2107  0.1833
30225ION     NA47749   0.935   1.612  11.474 -0.1521 -0.2935 -0.0608
30226ION     NA47750  14.382  11.835  10.960 -0.2822 -0.2923  0.0972
30227ION     NA47751  13.579  14.092  11.401 -0.3766 -0.3376  0.2053
30228ION     NA47752  14.761   5.884   5.990 -0.0307 -0.0761 -0.0741
30229ION     NA47753  16.286  11.606  13.773  0.1269  0.3403  0.1730
30230ION     NA47754   2.082  16.891  11.321 -0.2914  0.1844  0.0302
30231ION     NA47755   4.063   9.226  11.533 -0.1858 -0.0437 -0.3026
30232ION     NA47756   7.964   1.298  11.747  0.0531 -0.0360 -0.0352
30233ION     NA47757  10.352  11.355  11.507  0.0487 -0.3074  0.2398
30234ION     NA47758   1.633   7.610  14.837 -0.1053  0.3363 -0.0684
30235ION     NA47759   3.456   9.879   6.315 -0.0759 -0.1200 -0.0830
30236ION     NA47760   8.614  11.068   4.816 -0.0184 -0.0849  0.1211
30237ION     NA47761   2.433   5.136  11.039  0.2790 -0.0800 -0.2049
30238ION     NA47762  13.407  15.113   5.586 -0.0258 -0.0136  0.1534
30239ION     NA47763  14.617   1.738  11.318  0.0875 -0.1990  0.3471
30240ION     NA47764   7.146  10.842  17.605 -0.1284  0.2192 -0.2318
30241ION     NA47765  16.741   6.296  14.231 -0.1113  0.0055 -0.1663
30242ION     NA47766  11.595  10.107  11.234  0.1703 -0.2006 -0.2299
30243ION     NA47767  16.084   5.809  11.129  0.0585  0.0457  0.5557
30244ION     NA47768  14.439   2.386   1.986  0.2123 -0.1844 -0.0101
30245ION     NA47769  11.097  10.489   6.214  0.1451 -0.3686 -0.0146
30246ION     NA47770  11.772  12.216  11.367  0.0536 -0.3046 -0.2112
30247ION     NA47771   1.499   2.705  16.837 -0.0366 -0.4604 -0.1017
30248ION     NA47772   2.519  10.331   6.191  0.3560 -0.0843  0.0051
30249ION     NA47773  16.376   8.747  10.989 -0.0196  0.0088  0.3867
30250ION     NA47774  13.839   9.964   5.868  0.1609  0.1620 -0.1084
30251ION     NA47775   9.683  16.314   6.647  0.0857  0.2253 -0.2714
30252ION     NA47776   8.409   8.130  16.221 -0.0287 -0.0381 -0.3796
30253ION     NA47777  10.681   9.207   6.178 -0.2611 -0.0951  0.1120
30254ION     NA47778  13.436   5.665   0.469  0.0598  0.1351  0.1171
30255ION     NA47779  11.032  11.827   6.236  0.1694  0.0975  0.0225
30256ION     NA47780  13.689   9.319  10.893  0.1606 -0.1457  0.0556
30257ION     NA47781  14.136  12.613  11.206  0.1191 -0.2052 -0.0538
30258ION     NA47782   2.484  10.159  11.638 -0.2436 -0.2939  0.2013
30259ION     NA47783  13.237  12.876   2.485  0.2908 -0.0080  0.0101
30260ION     NA47784  15.183   4.563   6.030 -0.0115  0.0907  0.1818
30261ION     NA47785  13.003  12.635   5.904 -0.2831  0.2188  0.2543
30262ION     NA47786   2.727   8.409   5.962 -0.1641  0.1562 -0.1980
30263ION     NA47787  17.245  10.334  11.764 -0.2839 -0.1161 -0.2346
30264ION     NA47788   6.327  14.409   1.198 -0.0845  0.4067  0.3467
30265ION     NA47789   2.017  15.379   6.370 -0.1214 -0.1532 -0.1953
30266ION     NA47790   7.658  16.157  11.414 -0.1910  0.1957 -0.1441
30267ION     NA47791   3.559   0.449  11.176 -0.0142  0.1124  0.1660
30268ION     NA47792  12.964  14.799  11.449  0.2435  0.0744  0.1230
30269ION     NA47793  14.775   7.961  10.722  0.1282 -0.2980 -0.2685
30270ION     NA47794   4.377   8.409  11.296 -0.0965 -0.0670  0.1317
30271ION     NA47795  11.162   1.219  11.787  0.0991  0.0380 -0.0897
30272ION     NA47796  13.783  16.921  15.038  0.1980  0.0893  0.0337
30273ION     NA47797  10.847  12.587   4.896  0.2388 -0.0080 -0.1726
30274ION     NA47798   8.648  13.275   3.576  0.0814 -0.0021  0.2750
30275ION     NA47799   5.302  15.293  11.862  0.1405  0.1006 -0.2035
30276ION     NA47800  11.097   6.702  11.449 -0.1466  0.1045 -0.0720
30277ION     NA47801  14.524   3.846   6.178  0.2525  0.3200 -0.0087
30278ION     NA47802  15.288   4.291  11.164 -0.1143  0.3553  0.5052
30279ION     NA47803   2.439   3.839   4.941  0.0751 -0.0864 -0.0588
30280ION     NA47804   0.105   2.197   5.717  0.0901  0.1756  0.0470
30281ION     NA47805   6.183  15.045  11.450 -0.1973  0.0053  0.0464
30282ION     NA47806   2.696  14.169  11.361  0.0754 -0.0086  0.0018
30283ION     NA47807  12.490   4.455  17.604  0.0579 -0.0531  0.3416
30284ION     NA47808   9.296   6.024  15.344 -0.2436 -0.1069 -0.0669
30285ION     NA47809  16.004  13.940  11.253  0.0848 -0.3322  0.0260
30286ION     NA47810   7.834  10.856  11.780 -0.0027  0.0465 -0.1553
30287ION     NA47811   9.718   5.020  16.076 -0.2195  0.1400 -0.5171
30288ION     NA47812   6.614   3.974   6.536  0.0706  0.1802 -0.0860
30289ION     NA47813   7.891   4.487  11.994  0.0522  0.1318  0.0574
30290ION     NA47814   6.752  13.955  11.602  0.1978 -0.3241 -0.1929
30291ION     NA47815  13.672  16.548  11.463  0.1089  0.0738 -0.0966
30292ION     NA47816   5.281  12.263   6.551  0.2092 -0.3826  0.1903
30293ION     NA47817   8.994   4.314   2.103 -0.1134 -0.1831  0.2943
30294ION     NA47818   6.045  10.662   6.081  0.1182 -0.1061  0.0656
30295ION     NA47819   1.975  10.924   5.771  0.0885  0.1154  0.0628
30296ION     NA47820  11.335   0.554  11.662  0.1027  0.2437  0.2398
30297ION     NA47821   0.743   4.136  11.130  0.2531 -0.1314  0.3084
30298ION     NA47822   4.592  12.878   6.680 -0.0822 -0.1106  0.1675
30299ION     NA47823   1.886  13.869   0.843 -0.0455  0.1273  0.3125
30300ION     NA47824  15.218  12.524   6.149 -0.1814  0.0217 -0.1892
30301ION     NA47825  12.287   4.603  11.385 -0.1404  0.2546 -0.1696
30302ION     NA47826   2.387   4.127   5.823  0.1470 -0.1998 -0.2391
30303ION     NA47827  15.552  10.933   6.105 -0.2752  0.2103  0.1561
30304ION     NA47828  17.158   9.543   4.533 -0.0166 -0.2712 -0.2584
30305ION     NA47829  16.663   7.043  11.205  0.4495  0.0652  0.0133
30306ION     NA47830   4.276  12.203   6.251  0.2625 -0.1565 -0.2078
30307ION     NA47831  10.111  11.824  11.648  0.2993 -0.2116 -0.4026
30308ION     NA47832  12.131   7.450  11.266 -0.0274  0.0969  0.2962
30309ION     NA47833  12.936   9.730   5.550 -0.0207 -0.3888  0.2093
30310ION     NA47834  13.271   4.511  12.135 -0.2832 -0.0113  0.1210
30311ION     NA47835   4.404   5.065   6.397 -0.0480  0.0010 -0.2901
30312ION     NA47836  12.232  14.598   4.650 -0.0018  0.0634  0.1158
30313ION     NA47837   5.067  17.246   6.257  0.0385 -0.1071  0.4011
30314ION     NA47838   9.560   6.532  11.511 -0.0047 -0.0980 -0.2799
30315ION     NA47839  10.188   2.523   3.872  0.0442 -0.0548  0.0105
30316ION     NA47840   2.025   7.994   0.099  0.1731 -0.4225  0.1303
30317ION     NA47841   7.650   2.306   4.107  0.0783  0.0593  0.2385
30318ION     NA47842  13.368   0.742  17.214 -0.1303  0.0149  0.0563
30319ION     NA47843  16.357   1.686   6.163  0.0647 -0.1494  0.1872
30320ION     NA47844   6.463   0.060  11.352  0.1750  0.1000  0.0349
30321ION     NA47845  12.470   9.444  15.175 -0.2428  0.0173  0.1206
30322ION     NA47846   4.534   3.989  11.824  0.1044  0.0772  0.2645
30323ION     NA47847  14.392  14.839  11.268 -0.0848 -0.1906  0.1129
30324ION     NA47848  15.626   7.808   5.441  0.3081  0.3255  0.0494
30325ION     NA47849  15.956  10.225   5.821 -0.1513 -0.0781 -0.3622
30326ION     NA47850   5.063   2.613   6.340 -0.0491 -0.0991  0.1690
30327ION     NA47851  13.607   4.747   3.041 -0.2800 -0.1730  0.0263
30328ION     NA47852   0.238  15.759  11.157  0.1222 -0.0282 -0.0462
30329ION     NA47853  14.782  13.138  11.091  0.1984 -0.0214 -0.5248
30330ION     NA47854   2.768  16.839   6.228  0.2995  0.2424 -0.0106
30331ION     NA47855   6.083   1.014  11.525  0.0715  0.0434 -0.1797
30332ION     NA47856  10.430   7.349  11.586 -0.1191  0.1277  0.0386
30333ION     NA47857   5.374   1.596  11.479  0.1740 -0.0349 -0.1078
30334ION     NA47858   6.774   2.997   6.284  0.0188 -0.2869  0.0332
30335ION     NA47859  13.882   6.925  11.080 -0.1927 -0.1228 -0.0058
30336ION     NA47860   8.213  15.333   6.491 -0.0353 -0.0400 -0.2329
30337ION     NA47861  10.750   9.291  12.812  0.2947  0.0905 -0.0719
30338ION     NA47862   9.529   5.969   6.731 -0.2661 -0.0657 -0.1943
30339ION     NA47863   0.766   6.742   5.793 -0.1173  0.2607 -0.0824
30340ION     NA47864   6.236  12.055   6.491 -0.1054 -0.1005  0.0380
30341ION     NA47865  13.017   5.617   6.126  0.1036  0.2134  0.0439
30342ION     NA47866   1.150  16.949  11.509  0.0000 -0.1856 -0.1807
30343ION     NA47867  16.122  16.058  11.226  0.0044 -0.0997 -0.3490
30344ION     NA47868  13.412  16.554   5.316  0.1116 -0.0238 -0.2406
30345ION     NA47869   9.389  12.838   6.459  0.1368  0.0445  0.1203
30346ION     NA47870   6.001   2.396   6.353  0.3371 -0.2324  0.2378
30347ION     NA47871   6.557   8.434  11.594  0.0620  0.0358 -0.2075
30348ION     NA47872   4.626   1.306   5.858 -0.1723  0.0503 -0.0332
30349ION     NA47873   0.161   8.933   1.948  0.1688  0.1649  0.1513
30350ION     NA47874  16.321   4.850   6.181  0.4243  0.0509  0.0858
30351ION     NA47875   4.182   0.280  14.520 -0.1311  0.1066  0.0500
30352ION     NA47876   2.962   7.687  11.297  0.0699 -0.2149  0.0759
30353ION     NA47877   7.822  12.007  11.798  0.0212 -0.0853  0.2602
30354ION     NA47878  16.935  15.524  11.090 -0.1479 -0.1484 -0.1779
30355ION     NA47879  16.097  11.319   6.015  0.3949  0.0658 -0.2722
30356ION     NA47880  10.223   6.988   0.639  0.3567 -0.0941 -0.0709
30357ION     NA47881   4.438  15.025   6.521 -0.1450 -0.0057 -0.1833
30358ION     NA47882  14.075   6.913   2.997  0.2585 -0.2371  0.1122
30359ION     NA47883   2.461   9.495  11.334 -0.0695  0.3260  0.1334
30360ION     NA47884   2.925   5.925   5.803  0.0205  0.0214 -0.0237
30361ION     NA47885  12.619   4.054   6.351 -0.1596 -0.0745  0.0906
30362ION     NA47886  11.190  17.207   5.771  0.0293  0.2030  0.1717
30363ION     NA47887  15.469   1.146   6.078 -0.1616  0.1634 -0.3755
30364ION     NA47888   7.461   7.356  11.576 -0.0118  0.2592 -0.0210
30365ION     NA47889  10.495   7.494   6.487  0.1209 -0.2230  0.0126
30366ION     NA47890  12.722   1.309  16.727  0.3019  0.1038  0.3481
30367ION     NA47891   7.712   2.742   6.490  0.1698  0.1497  0.0156
30368ION     NA47892  11.235   8.630   6.423  0.4203  0.0483 -0.0211
30369ION     NA47893  15.374   8.674  10.910 -0.2825  0.0549  0.0288
30370ION     NA47894   1.185  11.281  14.919  0.1364  0.0771  0.0450
30371ION     NA47895  12.219  13.098   6.246 -0.0316 -0.0758  0.1764
30372ION     NA47896   0.079   9.739  16.360  0.1918  0.3025 -0.0760
30373ION     NA47897   7.226  15.397  11.491  0.0733  0.0250 -0.0428
30374ION     NA47898   3.971   7.947  11.823 -0.2326  0.0591 -0.2700
30375ION     NA47899  14.694  16.006   6.078 -0.1189  0.1993 -0.0702
30376ION     NA47900   8.588  14.685  15.147 -0.0776  0.1284  0.2303
30377ION     NA47901  10.867   6.674   6.636  0.0700 -0.0195 -0.2501
30378ION     NA47902   2.983  15.350   0.978 -0.0316 -0.1939 -0.0540
30379ION     NA47903  12.843  17.043  11.516  0.2262 -0.1825  0.3983
30380ION     NA47904   2.670  16.227  11.298 -0.1174  0.0109 -0.2330
30381ION     NA47905   4.358  13.025  11.558 -0.1442 -0.1418  0.0517
30382ION     NA47906   6.344  16.083   0.214 -0.2663  0.0841 -0.2206
30383ION     NA47907  12.459   2.876   6.220 -0.1382 -0.1461 -0.1540
30384ION     NA47908   3.837   6.726   6.285 -0.2045 -0.2755  0.1585
30385ION     NA47909   0.652  13.822  11.332  0.1060 -0.1711 -0.0271
30386ION     NA47910   9.353  12.464  11.508 -0.0078 -0.3766  0.1997
30387ION     NA47911   4.650   6.030  11.548  0.1055 -0.0060 -0.1204
30388ION     NA47912  15.326  16.665   6.275 -0.1350  0.3858  0.1112
30389ION     NA47913   1.368   6.717  11.156 -0.1295  0.0339  0.3957
30390ION     NA47914  12.121   6.632  11.114 -0.3353 -0.1632  0.1050
30391ION     NA47915  17.084   7.011   6.067  0.4229 -0.1503  0.0863
30392ION     NA47916  10.237   4.582  17.329 -0.0209 -0.1832  0.2637
30393ION     NA47917   4.863   2.449  11.378 -0.1442 -0.0623 -0.0432
30394ION     NA47918   5.432   2.460  11.465  0.1020 -0.1209  0.5187
30395ION     NA47919  11.544   6.043  11.442 -0.0599  0.1690 -0.3278
30396ION     NA47920  10.384  14.947   6.385 -0.1020  0.2875  0.0818
30397ION     NA47921  10.480  12.607  11.706  0.2902 -0.1085 -0.3227
30398ION     NA47922  14.476   6.759  13.358 -0.1834 -0.0260 -0.0143
30399ION     NA47923  11.177  11.640   1.359 -0.2786  0.0923 -0.0901
30400ION     NA47924   9.252   5.468  12.065 -0.2002  0.3237  0.0097
30401ION     NA47925  12.406   9.552  11.328 -0.0522  0.2538  0.1056
30402ION     NA47926  16.297   6.538   5.923 -0.3300 -0.1599  0.0286
30403ION     NA47927   8.976   2.189   0.986  0.2371  0.1685  0.1666
30404ION     NA47928  15.802   3.301   5.185  0.1521  0.1340  0.2733
30405ION     NA47929   7.427   3.542   3.104  0.0436 -0.0652  0.1003
30406ION     NA47930  11.671  15.936   1.934 -0.0847 -0.1040  0.2347
30407ION     NA47931  13.559   9.023  15.293  0.0968 -0.1318 -0.0993
30408ION     NA47932   3.893   7.572  11.412  0.1152  0.0333 -0.1112
30409ION     NA47933   0.632   3.057   5.603 -0.1085  0.0079 -0.2014
30410ION     NA47934   8.738   4.748   3.819 -0.2079  0.2897 -0.3156
30411ION     NA47935  15.158   9.942  11.001  0.1399 -0.0957  0.0382
30412ION     NA47936  11.148   8.180  11.460  0.3768 -0.1975 -0.0885
30413ION     NA47937   9.151   3.509   6.685  0.0556 -0.2301 -0.2278
30414ION     NA47938  11.986   1.990  11.697 -0.3234  0.2264  0.1520
30415ION     NA47939  14.081  12.542  12.164 -0.2816  0.1124  0.1844
30416ION     NA47940   8.907  14.578   6.450  0.0240  0.2313  0.1086
30417ION     NA47941  17.172   5.131   5.835  0.0201  0.0083 -0.0150
30418ION     NA47942   4.154  14.327   0.675  0.1828  0.0564 -0.1021
30419ION     NA47943  11.536   4.641   6.300 -0.0593  0.0960  0.4534
30420ION     NA47944   2.724   0.449  11.486  0.2448 -0.1073 -0.0470
30421ION     NA47945   8.124  15.205  11.591 -0.0396 -0.0207 -0.0665
30422ION     NA47946   6.182  13.184   5.964 -0.0333  0.0420  0.3562
30423ION     NA47947  13.686   0.064   6.279  0.1596 -0.1672  0.3184
30424ION     NA47948  10.328   8.216  11.407 -0.2164 -0.0420  0.0740
30425ION     NA47949  16.916   0.420   6.171  0.1563 -0.1192  0.3603
30426ION     NA47950   4.825   5.330   6.367 -0.0480 -0.0570 -0.2077
30427ION     NA47951  15.683   3.061  11.377 -0.0482 -0.0463  0.0867
30428ION     NA47952   7.303   4.753   3.200  0.0292 -0.1936  0.3554
30429ION     NA47953   5.177  14.582   6.426  0.2068 -0.0507  0.0609
30430ION     NA47954  15.098   3.703   5.486  0.1841 -0.2218 -0.0436
30431ION     NA47955  11.014   0.971   6.705  0.1575 -0.1782  0.0286
30432ION     NA47956   4.155   5.456  14.462  0.2931  0.0814  0.0328
30433ION     NA47957   2.679  14.408   0.374 -0.1409 -0.0827  0.0033
30434ION     NA47958  12.319   8.530  13.582 -0.1161 -0.0033 -0.2056
30435ION     NA47959   4.588  15.943   6.377  0.2548 -0.0863 -0.0600
30436ION     NA47960  15.261   3.830  11.292 -0.3757 -0.1478 -0.1711
30437ION     NA47961   9.713   7.415  11.500  0.3005 -0.0963 -0.1450
30438ION     NA47962  16.236   7.984  13.902 -0.1721 -0.3034  0.1240
30439ION     NA47963  11.514  10.913  11.508  0.2447 -0.2649  0.2244
30440ION     NA47964   5.542   4.242  11.831 -0.0435 -0.1291  0.0093
30441ION     NA47965   6.359   9.814   6.299  0.0778  0.0610 -0.1253
30442ION     NA47966   9.321   7.269   6.196 -0.1216  0.2960  0.0710
30443ION     NA47967  14.224  15.542  14.118  0.0992 -0.1208  0.1566
30444ION     NA47968  13.441  15.615  11.419 -0.1943 -0.0308 -0.2486
30445ION     NA47969   8.382   9.248   1.305  0.2526 -0.1213  0.1508
30446ION     NA47970  15.695   2.423   6.400 -0.0610 -0.1962  0.0232
30447ION     NA47971   9.117  16.951   6.554  0.0035 -0.0011 -0.1504
30448ION     NA47972   7.117   0.650   4.141 -0.1569  0.0788  0.0834
30449ION     NA47973  13.922  11.087  11.150  0.0397  0.1498  0.1028
30450ION     NA47974  13.747   3.981   6.408  0.1249  0.1468  0.1845
30451ION     NA47975  12.073   0.898   5.395 -0.1601 -0.0126  0.0262
30452ION     NA47976   0.069  14.924   5.979 -0.1279 -0.2560 -0.1510
30453ION     NA47977   0.156   8.695  11.010  0.2374  0.1306 -0.2947
30454ION     NA47978   1.202   6.175  10.979 -0.0623 -0.1397 -0.0239
30455ION     NA47979  11.118  14.251  11.423  0.0290  0.0549  0.2921
30456ION     NA47980   6.259   6.547   5.380  0.2207 -0.0618 -0.1217
30457ION     NA47981   1.869   8.690  11.103 -0.1092  0.1648 -0.1706
30458ION     NA47982   4.458   2.057   2.898  0.1096 -0.4283 -0.1886
30459ION     NA47983   5.625  11.500   6.217  0.3614 -0.0474 -0.6105
30460ION     NA47984   0.105   6.334  10.974 -0.0946  0.1902  0.2399
30461ION     NA47985   6.404   9.115  12.254  0.1237 -0.1386  0.2290
30462ION     NA47986   5.913  15.365   6.221 -0.0914 -0.4955 -0.0181
30463ION     NA47987  11.610  15.175  11.696  0.3416 -0.0618  0.2732
30464ION     NA47988  14.307   8.719  14.172  0.2113  0.0691 -0.0441
30465ION     NA47989   0.911  17.124   5.218  0.0675  0.0644 -0.4421
30466ION     NA47990   4.348   0.504   6.330  0.1098 -0.2219 -0.0441
30467ION     NA47991   1.005   8.386  11.160 -0.0682  0.3129  0.1555
30468ION     NA47992   9.556  15.545  15.764 -0.0337  0.2262 -0.0434
30469ION     NA47993   9.034   9.236  12.654  0.0167 -0.0515 -0.1855
30470ION     NA47994   7.471   7.433   6.325  0.0749  0.0376 -0.2843
30471ION     NA47995   9.675  15.014  11.997 -0.0537  0.2397  0.2245
30472ION     NA47996   0.169   8.220  11.016 -0.0973 -0.1102  0.2034
30473ION     NA47997   0.402   7.635  13.991  0.0890  0.0307 -0.1551
30474ION     NA47998   2.370   4.179  11.279 -0.2599 -0.1153  0.0931
30475ION     NA47999  15.798   8.132  10.898 -0.0592 -0.2349 -0.2241
30476ION     NA48000   0.173   1.298  11.512 -0.0548  0.1286  0.0684
30477ION     NA48001  13.943  12.921   6.093  0.2654  0.2687  0.0796
30478ION     NA48002   4.384   6.042   6.513 -0.1961 -0.1865 -0.2772
30479ION     NA48003   7.413  15.536   6.265 -0.0686  0.1215  0.2135
30480ION     NA48004  11.406   7.796   6.541 -0.5931  0.0945 -0.2057
30481ION     NA48005   3.104   1.770   6.341  0.3113  0.1365 -0.0367
30482ION     NA48006   3.141  15.070   6.354 -0.2258  0.0525 -0.1998
30483ION     NA48007   2.872   3.602  11.065  0.1184 -0.0867  0.1978
30484ION     NA48008  10.697  13.129   6.719  0.2335 -0.1802  0.1632
30485ION     NA48009   4.941   8.939   4.205 -0.1369 -0.0613  0.0577
30486ION     NA48010   1.473  15.149   5.573  0.1208  0.0799  0.0777
30487ION     NA48011  10.775  15.136  11.822 -0.4337 -0.2869 -0.0151
30488ION     NA48012   2.670   9.392   6.050 -0.1086 -0.1283  0.1820
30489ION     NA48013  16.168   7.828  10.965 -0.1808  0.0694 -0.0672
30490ION     NA48014  11.027  17.191  11.615  0.0662  0.1583 -0.1089
30491ION     NA48015   5.755  14.232   2.657  0.0622 -0.0154 -0.2438
30492ION     NA48016   2.542   2.693  11.487  0.1171 -0.0773  0.1560
30493ION     NA48017   9.695  12.352   3.029 -0.3162  0.2825 -0.1024
30494ION     NA48018  16.535  14.635  11.102  0.1053  0.1585 -0.3263
30495ION     NA48019   4.230   9.131   6.516  0.2781 -0.0922  0.0989
30496ION     NA48020   0.603  15.598   6.014  0.0377 -0.0087 -0.0851
30497ION     NA48021  15.958   8.308   4.021 -0.1716 -0.1391  0.2822
30498ION     NA48022   1.427   0.824   6.149  0.0284 -0.1515 -0.1123
30499ION     NA48023  11.128   9.981  11.361  0.0683  0.0292  0.0251
30500ION     NA48024   5.415  14.432  11.667  0.0623 -0.0092 -0.0284
30501ION     NA48025   7.233   9.555   6.114  0.0576 -0.0045 -0.1480
30502ION     NA48026   9.599   4.910  17.083  0.0779 -0.2402 -0.2923
30503ION     NA48027   6.189  16.953   0.583  0.0630 -0.0445 -0.0507
30504ION     NA48028   6.425   8.241   5.581 -0.0354  0.1361  0.1612
30505ION     NA48029  15.586  12.968  10.988 -0.1035 -0.0276  0.1863
30506ION     NA48030  15.415  15.435   6.057  0.2246 -0.2528  0.0946
30507ION     NA48031   5.839   2.887   6.373 -0.0859  0.1898  0.2310
30508ION     NA48032   5.111   3.457   6.286  0.2559 -0.1791  0.1322
30509ION     NA48033   0.130  16.689  11.774  0.2957 -0.1128  0.2330
30510ION     NA48034  12.605   1.693   5.571  0.0697  0.0779 -0.1921
30511ION     NA48035   5.284  16.263   6.306 -0.0939 -0.3511  0.1544
30512ION     NA48036   7.352   6.679  13.445  0.1102 -0.1785  0.2646
30513ION     NA48037   2.978   3.651   6.347 -0.0392  0.1348  0.0835
30514ION     NA48038   9.937   9.643   6.270 -0.2432  0.2448 -0.0639
30515ION     NA48039  11.416  11.132   5.800  0.1592 -0.0795 -0.0624
30516ION     NA48040  12.965   0.985  11.553  0.2354  0.1292  0.0708
30517ION     NA48041   0.445   4.502   5.070 -0.0656 -0.2057 -0.1106
30518ION     NA48042  13.612  11.123  17.589 -0.0035  0.2295 -0.1051
30519ION     NA48043   4.565  13.915  11.597 -0.0355 -0.2706  0.1268
30520ION     NA48044  14.324   0.007   6.360  0.1064  0.0514 -0.0165
30521ION     NA48045   3.531  12.449   6.518 -0.2610 -0.2630 -0.0043
30522ION     NA48046   7.884   9.802  11.661 -0.1907  0.2223  0.3430
30523ION     NA48047   9.776  13.295  11.910 -0.0529  0.1409 -0.3451
30524ION     NA48048   5.562  12.641   2.825  0.3820 -0.1663  0.0817
30525ION     NA48049   5.586   7.894   6.365 -0.0179  0.0681 -0.0120
30526ION     NA48050   2.058   4.970  14.082  0.0524 -0.2515 -0.0504
30527ION     NA48051   8.621  11.430  11.769  0.1305 -0.1330  0.3697
30528ION     NA48052   0.103   8.068  11.496 -0.1912  0.3118 -0.1569
30529ION     NA48053   9.217  10.731  11.445  0.1868 -0.0255 -0.0079
30530ION     NA48054  16.876   9.934   4.941  0.1418  0.1047 -0.2716
30531ION     NA48055  13.243  10.046  11.232  0.1207  0.0091 -0.2827
30532ION     NA48056  12.570  12.151  11.264 -0.0351 -0.0384 -0.2586
30533ION     NA48057  10.828  13.004  11.678 -0.2036  0.1765 -0.2254
30534ION     NA48058   9.718  16.788  11.728  0.2283 -0.0454  0.2550
30535ION     NA48059   6.197  16.539   4.882  0.0015  0.2885 -0.2188
30536ION     NA48060  14.332  10.306  11.245 -0.0104  0.0283  0.0253
30537ION     NA48061  10.830  12.035   2.243  0.1332  0.0435 -0.1063
30538ION     NA48062   3.487   8.998   6.510 -0.1160  0.1844 -0.1538
30539ION     NA48063   4.741  11.504   6.647 -0.2286 -0.2612  0.0418
30540ION     NA48064  10.284   0.908   6.861 -0.0523 -0.0067  0.0426
30541ION     NA48065   7.327  16.845  11.135 -0.3865  0.0889 -0.0483
30542ION     NA48066   6.186  11.938  11.675 -0.4293  0.0929 -0.2160
30543ION     NA48067   4.321  11.918   6.650  0.2411 -0.3290  0.0861
30544ION     NA48068  12.639  12.671   1.871 -0.2685  0.1096  0.4110
30545ION     NA48069  17.140   6.099   5.968  0.0940  0.0305  0.2329
30546ION     NA48070  11.786   7.371  11.616  0.2217 -0.3147 -0.3706
30547ION     NA48071  13.911   2.528  11.524  0.2390  0.0805  0.1117
30548ION     NA48072   0.953   6.334   6.052  0.1656  0.1714 -0.2543
30549ION     NA48073  11.877   5.175  11.402  0.3336 -0.1249  0.1809
30550ION     NA48074  15.517   1.603   6.358  0.0758  0.0952 -0.0156
30551ION     NA48075   3.654   1.340  11.379 -0.0338  0.2983 -0.0359
30552ION     NA48076   7.425   6.293  16.012 -0.0480  0.1828  0.1809
30553ION     NA48077   8.197   6.931   6.471 -0.0355  0.1149 -0.0665
30554ION     NA48078   5.695  11.162   4.729 -0.2350  0.0046 -0.1533
30555ION     NA48079  13.130   7.133   6.243 -0.0461  0.1533 -0.1494
30556ION     NA48080  12.851   9.175   0.263 -0.3768 -0.0207  0.1349
30557ION     NA48081   8.262  13.899   6.256 -0.1312 -0.3685 -0.3687
30558ION     NA48082   8.648  14.789  12.068 -0.1922  0.4900  0.0228
30559ION     NA48083   6.924   2.767  11.608  0.0417  0.0590  0.2800
30560ION     NA48084  16.192  12.786   5.652 -0.1541  0.1322  0.1366
30561ION     NA48085  10.213   4.383   6.758  0.0033 -0.3711  0.1390
30562ION     NA48086  14.350   4.248  11.436  0.3058  0.3317  0.0322
30563ION     NA48087   1.704   5.000   6.186  0.0778  0.2366  0.2499
30564ION     NA48088   4.027   2.201  13.616  0.2911 -0.0389  0.1272
30565ION     NA48089   3.521   6.935   5.150  0.0954 -0.0602  0.0485
30566ION     NA48090   1.763  16.741   6.444  0.1332 -0.0303 -0.0370
30567ION     NA48091  14.053   7.335  12.230 -0.0010  0.0175 -0.1097
30568ION     NA48092   8.604  13.069  11.691  0.0930 -0.2792 -0.0102
30569ION     NA48093   9.707   3.427  11.791  0.1119 -0.1619 -0.2054
30570ION     NA48094   9.762   8.793   2.330  0.1184 -0.0206 -0.0810
30571ION     NA48095  12.714   0.342   6.271  0.1039 -0.3062 -0.0097
30572ION     NA48096  10.724   3.510  11.814 -0.1480 -0.0450  0.4325
30573ION     NA48097  16.109   9.924  11.168 -0.0264 -0.2929 -0.1133
30574ION     NA48098  14.182  11.167   6.159  0.1549 -0.0681  0.0284
30575ION     NA48099  11.240   2.048  11.998 -0.4451 -0.0933  0.4036
30576ION     NA48100  15.083   3.747  15.887  0.1461 -0.1519  0.2835
30577ION     NA48101  12.010  11.877   6.130  0.1349  0.0585 -0.0758
30578ION     NA48102   5.571   1.271  14.115 -0.1870 -0.0121  0.1611
30579ION     NA48103   1.863  11.933   3.610  0.2061 -0.0721 -0.1389
30580ION     NA48104  15.146   7.318   0.909 -0.1076  0.2229 -0.0063
30581ION     NA48105  11.552   4.137  12.409 -0.3457 -0.1051  0.0955
30582ION     NA48106   7.490  13.605  11.724 -0.0405 -0.0265 -0.0608
30583ION     NA48107   3.488   2.735   6.396 -0.1750 -0.1159  0.0590
30584ION     NA48108   9.686   5.103   6.675 -0.0449 -0.1762  0.1439
30585ION     NA48109  13.982   5.792   2.219 -0.2762 -0.0594 -0.0357
30586ION     NA48110   9.699  14.225  12.040  0.1010  0.0649 -0.2780
30587ION     NA48111  10.101  17.012  12.634 -0.0883  0.0953 -0.0128
30588ION     NA48112   8.221  11.731   6.790  0.1642  0.0720  0.1282
30589ION     NA48113   7.553  16.118   6.446 -0.0503  0.3626  0.0810
30590ION     NA48114   8.213   6.361  11.619 -0.4167  0.2810 -0.0923
30591ION     NA48115   9.501  10.914   6.483  0.3224 -0.0129 -0.2737
30592ION     NA48116   1.727  14.140  13.995 -0.1711  0.1151 -0.1505
30593ION     NA48117  11.522  12.700   6.321  0.0544  0.0370 -0.0612
30594ION     NA48118  10.609  16.641  11.607 -0.3640 -0.2079 -0.0543
30595ION     NA48119  10.783  12.366   6.364  0.0531 -0.2093  0.2585
30596ION     NA48120  13.928   8.537  10.917 -0.1921  0.0823 -0.0493
30597ION     NA48121  11.688  16.854  11.528 -0.0275 -0.2527 -0.0335
30598ION     NA48122   7.014   0.521   6.490 -0.1897 -0.0777 -0.1757
30599ION     NA48123   0.515   1.298   5.939  0.1006  0.0344 -0.1754
30600ION     NA48124   1.592   1.131   0.879 -0.2085  0.3926 -0.1978
30601ION     NA48125   0.997  10.517  11.191 -0.3708  0.0213 -0.0943
30602ION     NA48126  16.719   7.353   6.015 -0.4220  0.1124  0.3016
30603ION     NA48127  10.482   9.629   5.386  0.1218  0.2859 -0.3867
30604ION     NA48128  14.015  16.529  15.802  0.1587  0.1174  0.0762
30605ION     NA48129   8.576   5.024  11.757  0.0708  0.2657  0.0927
30606ION     NA48130  17.117   9.825  10.912  0.2808 -0.0457 -0.2285
30607ION     NA48131  16.445  16.423   4.332  0.2120 -0.0941 -0.1533
30608ION     NA48132  11.103  11.743  11.477  0.0040 -0.0789 -0.1626
30609ION     NA48133  14.838  15.191   6.089 -0.2307 -0.0186 -0.0241
30610ION     NA48134   2.216   2.995   6.350 -0.2578  0.1773 -0.4666
30611ION     NA48135  13.025  11.419  11.347 -0.2782 -0.2312 -0.2210
30612ION     NA48136  15.895  11.290  11.284 -0.0755 -0.0622  0.1798
30613ION     NA48137  15.624   9.368  11.619  0.1868  0.3307  0.2084
30614ION     NA48138  10.253  11.386   6.260 -0.1442  0.3139 -0.0014
30615ION     NA48139   5.307   5.344  17.468  0.0471 -0.0931 -0.0551
30616ION     NA48140  15.531   0.326  12.390 -0.1896 -0.2096 -0.3005
30617ION     NA48141   0.046   9.288   5.852  0.0923  0.0354  0.1265
30618ION     NA48142  15.106   8.564   5.475  0.0882 -0.0681  0.2985
30619ION     NA48143   0.231  12.748   6.138  0.0281 -0.1952 -0.1084
30620ION     NA48144   4.827   5.250  16.234 -0.0056 -0.0047  0.0657
30621ION     NA48145  16.932  15.812   6.228 -0.2293  0.0766  0.2565
30622ION     NA48146   6.327   4.859  11.775 -0.1305  0.0281 -0.3339
30623ION     NA48147  12.004   7.083   6.362  0.1361  0.0642  0.0803
30624ION     NA48148   6.961   8.117  16.269 -0.1528 -0.0770 -0.2533
30625ION     NA48149  12.608   0.996   6.559  0.0969 -0.3132  0.1631
30626ION     NA48150   4.144  11.036   6.672 -0.0759 -0.2783  0.3070
30627ION     NA48151  10.458   4.128  11.907  0.0729  0.0910 -0.1426
30628ION     NA48152  17.234  11.958   6.058 -0.1926  0.0589 -0.0816
30629ION     NA48153  10.503   3.407   6.486 -0.3527  0.1607  0.0295
30630ION     NA48154   2.713  14.408  15.517 -0.2383  0.1953  0.2728
30631ION     NA48155  13.514   7.503   1.268  0.0430 -0.2004 -0.2582
30632ION     NA48156  11.716   2.430   6.523  0.1145 -0.2306  0.1088
30633ION     NA48157  14.736   1.095   6.094 -0.1220 -0.1689 -0.1749
30634ION     NA48158   8.720   7.758   6.387 -0.1874 -0.0300  0.3399
30635ION     NA48159   8.161   4.978   2.016  0.3609 -0.0600 -0.1379
30636ION     NA48160   5.239   1.154   4.942 -0.1631  0.2545  0.0477
30637ION     NA48161   5.496  13.325   6.761 -0.1254 -0.1261 -0.1863
30638ION     NA48162   0.996   8.973   6.003  0.1805  0.2622 -0.2484
30639ION     NA48163   3.518   0.003  12.996  0.1370  0.0961 -0.2084
30640ION     NA48164  15.376  16.602  15.046  0.1946  0.2536  0.1168
30641ION     NA48165   1.771  12.964  16.554  0.1032 -0.1870 -0.4429
30642ION     NA48166   5.905   6.388  17.034  0.3312 -0.2509  0.1852
30643ION     NA48167   2.929   7.085  11.627  0.1382 -0.0554  0.1044
30644ION     NA48168  11.787  17.245   0.887  0.1211  0.1741 -0.0959
30645ION     NA48169   6.505   5.759  12.007  0.1951 -0.2621  0.2313
30646ION     NA48170   1.073   2.550  11.365  0.3677  0.2395 -0.1197
30647ION     NA48171   6.304   7.142  16.527  0.1235  0.1896 -0.0877
30648ION     NA48172  11.503  13.624   6.449  0.0665 -0.3757  0.0714
30649ION     NA48173   9.763   5.568  14.456  0.1368 -0.0992 -0.1924
30650ION     NA48174  15.898   0.105   6.262 -0.1526 -0.1195 -0.0670
30651ION     NA48175   6.537  15.874   6.243 -0.1130 -0.0720 -0.0657
30652ION     NA48176   2.237   4.821  17.647  0.0461 -0.1255  0.1095
30653ION     NA48177   8.039   0.559   0.753 -0.0006 -0.3143 -0.2076
30654ION     NA48178   4.982   8.739   6.542 -0.0116 -0.0596  0.0953
30655ION     NA48179  13.286  12.891  13.423 -0.2164 -0.0288  0.0449
30656ION     NA48180  12.057   8.293  11.413 -0.2973 -0.2766  0.1711
30657ION     NA48181   6.683   1.540   6.584  0.0933  0.1153  0.2378
30658ION     NA48182   3.523   4.730   6.345  0.2409  0.2073 -0.4879
30659ION     NA48183  12.467  11.177  11.436  0.0392  0.2558  0.0074
30660ION     NA48184  15.351   0.749   0.835 -0.0928  0.0573 -0.3128
30661ION     NA48185   1.457   5.298  10.953 -0.0884 -0.0978 -0.1130
30662ION     NA48186  10.028   9.920  15.560 -0.1566  0.2147  0.0207
30663ION     NA48187   8.968  15.595  11.762 -0.3111 -0.2211 -0.1343
30664ION     NA48188   7.363  11.235  11.862  0.1285  0.0324 -0.0371
30665ION     NA48189   7.122   0.918  11.471 -0.0120 -0.1451 -0.0798
30666ION     NA48190   6.015   6.281  11.581 -0.1105 -0.0082 -0.1543
30667ION     NA48191  11.028   5.734  11.764  0.1644 -0.0432  0.2083
30668ION     NA48192  14.901  13.422   5.524  0.3724 -0.0779  0.1238
30669ION     NA48193   8.988   3.519   2.516 -0.1204 -0.0113  0.0207
30670ION     NA48194   5.512   5.660  11.871  0.0403  0.1489 -0.3812
30671ION     NA48195   6.762  13.026  11.571 -0.0006 -0.0936  0.2061
30672ION     NA48196  11.697  14.214  11.493 -0.1870 -0.5768 -0.3866
30673ION     NA48197  14.319   6.113  11.045  0.0848 -0.0974  0.1323
30674ION     NA48198  15.425   8.175  15.368  0.0025  0.2175  0.2092
30675ION     NA48199   3.522   8.921  17.238 -0.0936 -0.1602  0.1373
30676ION     NA48200   1.481   3.858  10.966  0.1296 -0.1797  0.0868
30677ION     NA48201  13.816  16.168   6.222  0.0866  0.0438  0.3679
30678ION     NA48202  16.721   2.630  17.235  0.0003 -0.0181 -0.0370
30679ION     NA48203  16.000  11.897   6.089  0.1508 -0.3237  0.0819
30680ION     NA48204  10.521  13.116  12.906  0.0073  0.2095  0.0828
30681ION     NA48205   5.209   8.311  14.542  0.1743 -0.2193  0.0294
30682ION     NA48206   8.525   6.193   6.599  0.0163  0.0335  0.0799
30683ION     NA48207   1.810  14.979   0.544 -0.0359  0.0298 -0.3482
30684ION     NA48208   1.329  14.945   6.058 -0.3287 -0.1619 -0.0226
30685ION     NA48209   4.906  14.987  12.809  0.1506 -0.0613 -0.0608
30686ION     NA48210  11.370   7.756   0.068 -0.0519 -0.2538 -0.2722
30687ION     NA48211  15.933   1.438  14.398  0.1350 -0.1764  0.1657
30688ION     NA48212   2.977   5.644  11.272  0.0129 -0.1463 -0.2635
30689ION     NA48213   4.257   8.272   6.554 -0.2947 -0.2609 -0.1286
30690ION     NA48214   2.918   5.868  16.813  0.0595 -0.1096  0.4235
30691ION     NA48215  15.620   0.679  11.291  0.0639  0.2289 -0.3461
30692ION     NA48216   3.563   6.369  11.356  0.0282  0.3271  0.2922
30693ION     NA48217  12.899   2.413  16.067  0.0598  0.1323  0.0421
30694ION     NA48218  13.937   1.156  11.485 -0.0480 -0.1455  0.1119
30695ION     NA48219  16.610  11.141   6.080  0.1820 -0.0510  0.0923
30696ION     NA48220   2.298  13.499   6.285 -0.0955  0.2386 -0.4139
30697ION     NA48221  14.735   5.401   6.153  0.1657 -0.1128 -0.1517
30698ION     NA48222   2.270   1.754   6.508 -0.0603  0.0337  0.2152
30699ION     NA48223   5.077   6.810  11.503  0.0912  0.2526  0.1020
30700ION     NA48224   8.129  16.878   6.687 -0.0182  0.1024  0.4537
30701ION     NA48225  11.944  12.723   2.511  0.0314 -0.0043  0.0437
30702ION     NA48226   8.444   4.309   6.526 -0.0610 -0.0643 -0.1951
30703ION     NA48227   6.585   6.949  11.619 -0.2770  0.0341 -0.4556
30704ION     NA48228  15.477   9.192  11.083  0.3583  0.0231 -0.1531
30705ION     NA48229   8.552   5.159   6.532  0.0745 -0.3513 -0.1559
30706ION     NA48230   7.602  15.003   1.185  0.1286  0.0692 -0.1378
30707ION     NA48231   7.679   3.764   6.616 -0.0479 -0.0098  0.0499
30708ION     NA48232   3.065  10.495  11.553  0.3154  0.0628 -0.0986
30709ION     NA48233   4.936   9.143  11.407 -0.1530  0.1430 -0.0108
30710ION     NA48234   1.703   1.463   2.090 -0.0303 -0.2265 -0.0461
30711ION     NA48235  15.495   2.105  11.285  0.0563  0.3539  0.3239
30712ION     NA48236  11.415   3.681   6.377 -0.2587  0.0219 -0.1656
30713ION     NA48237   8.301   0.701   5.929 -0.1584 -0.2974  0.3575
30714ION     NA48238   1.013  15.824   1.808 -0.1284  0.0055 -0.0027
30715ION     NA48239  13.138   1.873  11.719  0.2584  0.0580  0.2421
30716ION     NA48240  10.423   5.722   6.719  0.1195  0.2835  0.0050
30717ION     NA48241  16.273   3.111   6.321 -0.0295  0.1818  0.1991
30718ION     NA48242  16.553   3.740   5.300 -0.1769 -0.0185  0.2425
30719ION     NA48243   4.054  16.800  11.434 -0.4202  0.0344  0.0227
30720ION     NA48244  11.445   2.998   2.376 -0.0509 -0.1582 -0.0049
30721ION     NA48245   7.030   3.231  11.543  0.3043 -0.0529 -0.0642
30722ION     NA48246  16.403   2.890   4.597  0.0718  0.0860 -0.1471
30723ION     NA48247  13.925   3.512  11.451 -0.3051  0.0989 -0.1193
30724ION     NA48248  16.429   2.543  11.425 -0.1325  0.1212 -0.2636
30725ION     NA48249   0.564   8.064   6.009  0.1224  0.2683  0.1770
30726ION     NA48250  14.250   9.222   3.260  0.2851 -0.2058 -0.0461
30727ION     NA48251  11.890   5.674  12.815  0.2013 -0.0459  0.0853
30728ION     NA48252  14.480  13.128  13.728  0.0418  0.0865 -0.1066
30729ION     NA48253   7.425   0.698   6.023 -0.3904 -0.1736  0.0619
30730ION     NA48254  13.407   2.527   6.473  0.1225 -0.0027 -0.6917
30731ION     NA48255   2.326  10.143  17.557 -0.2752 -0.0878  0.1611
30732ION     NA48256  13.618   3.845   4.206 -0.0679 -0.2909 -0.2315
30733ION     NA48257  14.643   9.496   6.001 -0.0048  0.0908  0.1443
30734ION     NA48258  10.003  15.892  11.716 -0.2985  0.3084  0.1628
30735ION     NA48259   0.856   7.474  11.001  0.1847  0.2017  0.2765
30736ION     NA48260   4.645  10.508  11.507 -0.0963 -0.2599 -0.3140
30737ION     NA48261  11.773   9.210  11.143  0.2291 -0.1295  0.1367
30738ION     NA48262   8.264   1.712  11.757 -0.0210  0.3636 -0.1362
30739ION     NA48263  16.846   1.477   6.186  0.0050 -0.0007 -0.0534
30740ION     NA48264  12.092  12.050   5.190  0.1223 -0.0514 -0.0938
30741ION     NA48265   6.704   5.031   6.257  0.3872 -0.0800 -0.1986
30742ION     NA48266   9.416   0.681  11.721  0.2637  0.1266  0.3507
30743ION     NA48267   3.384  16.296   6.286  0.2979  0.0293  0.2099
30744ION     NA48268   8.582   1.708   6.632  0.0586  0.2912 -0.0727
30745ION     NA48269   3.289  17.094   0.324  0.2678 -0.1373  0.2587
30746ION     NA48270   6.855  16.822   6.246  0.3386  0.0639 -0.0047
30747ION     NA48271  10.750   4.820  11.620 -0.0912 -0.1012  0.1336
30748ION     NA48272  10.815   0.127   6.929 -0.1623 -0.0092  0.1397
30749ION     NA48273  14.407  12.129   6.000 -0.1109  0.2695 -0.2327
30750ION     NA48274  16.559   0.555  11.317 -0.3956 -0.3510 -0.1572
30751ION     NA48275   9.635   9.719   1.087  0.1874 -0.1515 -0.1515
30752ION     NA48276   3.875  10.159   6.548 -0.0636  0.2248 -0.2334
30753ION     NA48277   4.349   6.314  14.686  0.2124 -0.3552 -0.0765
30754ION     NA48278   2.374  14.557   6.415 -0.1361 -0.2509 -0.0281
30755ION     NA48279   3.214   7.401  15.387  0.3543  0.1234 -0.1069
30756ION     NA48280  12.252   0.251  11.470  0.1957 -0.0306  0.0751
30757ION     NA48281  16.950   2.276   3.120 -0.3827  0.0046  0.1091
30758ION     NA48282   4.299  16.739   6.160 -0.0489 -0.0585 -0.2940
30759ION     NA48283  11.785  12.752  11.575  0.0710 -0.0494  0.2228
30760ION     NA48284  12.407  15.365   1.676  0.0639 -0.0234 -0.1016
30761ION     NA48285  13.824   0.833   6.143 -0.0558 -0.2421  0.1218
30762ION     NA48286   4.812  15.389   6.454 -0.0746 -0.0771 -0.1652
30763ION     NA48287  12.244   9.802  13.932 -0.0510  0.1160  0.2789
30764ION     NA48288   2.504  13.621   1.866  0.0521  0.4193  0.1096
30765ION     NA48289  13.023   1.030   0.317 -0.1015  0.2992  0.0060
30766ION     NA48290  12.144   5.655   6.216 -0.2173  0.2734 -0.0235
30767ION     NA48291  10.013  14.019   6.398  0.1536 -0.0185 -0.2628
30768ION     NA48292  17.042   5.500  10.856  0.0881 -0.0005  0.0827
30769ION     NA48293  14.526   6.026   1.257 -0.0190 -0.1174 -0.3190
30770ION     NA48294   8.464  13.966  11.912 -0.1786  0.1474  0.2567
30771ION     NA48295   9.169   6.725   6.508 -0.0000 -0.0394 -0.1081
30772ION     NA48296  11.847   8.053   6.479  0.2159 -0.1061  0.0329
30773ION     NA48297   7.343   0.467  11.644  0.1365 -0.2115 -0.2484
30774ION     NA48298  12.480   5.791  11.152  0.0764 -0.1130  0.0234
30775ION     NA48299   4.097   1.438   1.352 -0.1931 -0.1386  0.0495
30776ION     NA48300   8.120   3.404   6.732 -0.2178  0.4000  0.0782
30777ION     NA48301   4.552   3.185  11.448  0.1004 -0.0830 -0.0011
30778ION     NA48302   5.780   3.789   6.469  0.1938 -0.0370 -0.3277
30779ION     NA48303   0.671   6.833   2.372  0.1372 -0.2606 -0.0880
30780ION     NA48304  14.632   6.446   6.025  0.2117  0.1855  0.1091
30781ION     NA48305  13.386   5.787  11.332 -0.0720 -0.0957  0.4958
30782ION     NA48306  15.390   5.299  10.958  0.1260  0.0121  0.0704
30783ION     NA48307  10.237   2.106  11.868 -0.1922 -0.0514 -0.0531
30784ION     NA48308  12.395  14.834   6.227 -0.0384 -0.0876  0.1611
30785ION     NA48309   2.273  11.232   6.109 -0.0750  0.0745 -0.0596
30786ION     NA48310   3.122   3.025  11.462 -0.4267  0.0722  0.0675
30787ION     NA48311   8.877  12.149   0.740 -0.0945 -0.1973  0.1368
30788ION     NA48312   9.806   9.233  11.556  0.0087 -0.2277 -0.0359
30789ION     NA48313  11.732   6.418   6.508  0.0670  0.0464  0.0140
30790ION     NA48314   6.543   5.922   6.315  0.0441 -0.1558 -0.1010
30791ION     NA48315  11.383   7.177  11.416  0.4083  0.1398  0.1328
30792ION     NA48316   5.102  13.154  11.685 -0.1308 -0.1935  0.3347
30793ION     NA48317   5.409   9.912  11.472 -0.0481 -0.3773 -0.0634
30794ION     NA48318   7.797  13.110   6.630 -0.0920  0.2461 -0.0451
30795ION     NA48319   4.865  16.884   4.839 -0.1963  0.1736 -0.1713
30796ION     NA48320   4.456   0.368  11.475  0.1344  0.0411 -0.1886
30797ION     NA48321  10.014  12.490   6.456  0.0742 -0.1000 -0.1513
30798ION     NA48322   1.082   3.126   3.987  0.2191  0.2596  0.0624
30799ION     NA48323   4.762   6.526   6.476  0.0801  0.2963  0.1342
30800ION     NA48324   7.090   4.167  11.702 -0.0285  0.0546  0.0614
30801ION     NA48325  14.759   2.580  11.391  0.1461  0.2705  0.1901
30802ION     NA48326   4.536   8.773  16.165  0.0658 -0.1578 -0.0734
30803ION     NA48327  14.541   8.770  11.095 -0.0005 -0.2207 -0.2232
30804ION     NA48328   1.868   2.625   6.272  0.1010 -0.0789  0.2798
30805ION     NA48329   4.809   7.567  16.544 -0.2585  0.0044  0.0011
30806ION     NA48330   2.323   0.142   6.400 -0.4204  0.2871 -0.1050
30807ION     NA48331  14.296  13.778  11.087 -0.2320 -0.2102  0.0762
30808ION     NA48332   2.642   8.855  16.845 -0.2108  0.0624  0.1482
30809ION     NA48333   2.233  16.397   6.353  0.1361  0.1406 -0.1910
30810ION     NA48334  16.817  11.703  11.103  0.0168  0.0141 -0.2029
30811ION     NA48335   9.459   8.911   6.252 -0.0068 -0.0605 -0.0212
30812ION     NA48336   5.998  13.673  11.599 -0.0129  0.1002 -0.0542
30813ION     NA48337  12.713   4.897   5.058 -0.0199  0.0147 -0.3064
30814ION     NA48338  13.506   6.293   5.730 -0.0336 -0.3461 -0.0184
30815ION     NA48339   2.663  12.479   6.395  0.3113  0.1675 -0.0833
30816ION     NA48340   2.620  15.768   1.684  0.1455 -0.0044 -0.0979
30817ION     NA48341   1.281   1.392   4.973 -0.1012 -0.0585  0.3089
30818ION     NA48342   3.960  13.332   6.333  0.2084 -0.1907 -0.2899
30819ION     NA48343  11.151  13.396  11.547  0.0480 -0.1325 -0.0002
30820ION     NA48344  12.933   7.064  11.159  0.1190  0.1688 -0.1380
30821ION     NA48345  10.253   5.513   2.968  0.0777 -0.0153 -0.0479
30822ION     NA48346   9.299   0.521   3.655 -0.1664 -0.2182 -0.1860
30823ION     NA48347   5.846   5.455   6.344  0.2262 -0.0315  0.1170
30824ION     NA48348  13.529   6.471  10.970 -0.3896 -0.0950  0.0873
30825ION     NA48349   4.618   1.244  11.154 -0.0457  0.0827 -0.0019
30826ION     NA48350   8.984   9.874   0.389  0.0837  0.2041  0.0222
30827ION     NA48351  15.401   9.413   6.050  0.0505 -0.3941  0.2202
30828ION     NA48352   3.107  15.956   6.529 -0.1659 -0.1222  0.1894
30829ION     NA48353   0.254   0.288  11.504  0.2152 -0.0447  0.1516
30830ION     NA48354  11.605   1.166  12.636 -0.2355  0.0492 -0.0629
30831ION     NA48355   8.068  14.835   6.440  0.0629  0.2278 -0.1445
30832ION     NA48356  11.174  10.139  15.439 -0.0441  0.2537  0.1141
30833ION     NA48357   9.287   2.812  13.920  0.1255 -0.2015  0.0500
30834ION     NA48358  15.371   4.440  14.090 -0.2179  0.2130 -0.0705
30835ION     NA48359   1.607  13.180   6.258  0.3605  0.0466 -0.0960
30836ION     NA48360  12.445   4.883   6.319  0.0872 -0.0117  0.0105
30837ION     NA48361  12.513  15.322  11.497 -0.1144  0.1526 -0.0135
30838ION     NA48362  15.219  11.805  11.012  0.3402  0.1277  0.2430
30839ION     NA48363   7.211  11.495   6.743 -0.1967 -0.1032 -0.1234
30840ION     NA48364   3.056  17.000  11.247  0.2266  0.1951  0.0994
30841ION     NA48365   3.134  16.851  15.809 -0.2425  0.4431  0.2801
30842ION     NA48366   2.529   2.541  16.382 -0.2651  0.0010  0.0166
30843ION     NA48367   8.047   2.842  16.591 -0.0296  0.1007 -0.1105
30844ION     NA48368   2.594  17.014  13.566  0.0834  0.0974 -0.0657
30845ION     NA48369   5.206   7.819   2.713 -0.1017  0.1188 -0.1480
30846ION     NA48370   2.999   5.457   6.384  0.1738 -0.0825 -0.0481
30847ION     NA48371  11.236   2.847  11.797  0.1364  0.2410  0.2639
30848ION     NA48372  12.680  16.777  16.459 -0.1369 -0.1164 -0.1188
30849ION     NA48373  10.885  14.857   4.683  0.0534  0.5229  0.1916
30850ION     NA48374  13.018   9.047   6.170 -0.0497  0.0068  0.0887
30851ION     NA48375  13.073  11.762   6.150 -0.3801  0.1070  0.0253
30852ION     NA48376   9.443   9.898   6.274 -0.0994  0.0275 -0.2405
30853ION     NA48377   2.053   1.128  11.363  0.3244 -0.2148 -0.0468
30854ION     NA48378   2.930  10.999  11.431  0.1752  0.0577  0.1090
30855ION     NA48379   5.974  11.106  11.514 -0.0946  0.0964  0.0337
30856ION     NA48380   6.014   8.783   6.390  0.0376  0.0214 -0.0305
30857ION     NA48381   0.387   4.079  12.940  0.3549 -0.0007  0.1557
30858ION     NA48382  14.860  13.297   6.020  0.0811 -0.0369 -0.0076
30859ION     NA48383  14.242   4.672   6.319  0.1917  0.0183  0.0113
30860ION     NA48384   4.525  15.957  17.377 -0.0222 -0.0814 -0.2156
30861ION     NA48385   6.788  12.170   6.484 -0.1868 -0.0828  0.1415
30862ION     NA48386  14.261   5.323  11.433  0.0308 -0.1932  0.0087
30863ION     NA48387   8.155   0.089   0.091  0.3791 -0.0619  0.1610
30864ION     NA48388  14.012   3.147   6.254 -0.4013  0.0142  0.1975
30865ION     NA48389   8.725   3.446  11.852  0.1994 -0.1324 -0.0382
30866ION     NA48390   7.032   9.320  11.823 -0.4146 -0.1211 -0.1365
30867ION     NA48391  12.658   5.616  16.272  0.1617 -0.2281  0.2543
30868ION     NA48392   4.930  16.244  11.401  0.3165  0.1706  0.0909
30869ION     NA48393   7.044   5.148   3.971 -0.1725  0.1263  0.0459
30870ION     NA48394   3.899   5.490   6.028 -0.0515 -0.2462  0.2491
30871ION     NA48395  10.781   2.430   6.366  0.1754 -0.2115  0.1224
30872ION     NA48396   4.883   4.982  11.803 -0.2344 -0.0048  0.0451
30873ION     NA48397   2.754  15.063  11.600 -0.1417  0.3389 -0.4049
30874ION     NA48398   0.193   8.487   5.868  0.1508  0.0945 -0.3875
30875ION     NA48399   8.888   3.932   6.554 -0.0799  0.0892 -0.3125
30876ION     NA48400  13.000  16.653   6.251  0.1055  0.0035 -0.2690
30877ION     NA48401  17.069   4.365  11.251  0.0824  0.1919  0.0473
30878ION     NA48402  12.336   3.677  11.524 -0.2102  0.1835  0.0999
30879ION     NA48403  12.064  15.308   6.208 -0.0364  0.1682  0.0489
30880ION     NA48404   9.635   3.577   6.825 -0.1024  0.1478 -0.1138
30881ION     NA48405  15.695  10.221  14.809  0.1915  0.1821  0.0828
30882ION     NA48406   2.959   1.129   6.435  0.0139 -0.1404 -0.2397
30883ION     NA48407   7.617   2.696  12.181 -0.1423  0.0373  0.0443
30884ION     NA48408   1.332   7.401   6.075 -0.0882 -0.1267  0.0040
30885ION     NA48409  15.023  10.848  11.015  0.1036 -0.1324  0.0707
30886ION     NA48410   5.936  16.919   6.520 -0.2962  0.0433  0.1398
30887ION     NA48411  13.100   7.557  12.397  0.2085 -0.1185 -0.0064
30888ION     NA48412   8.858  16.476   6.539 -0.0843  0.1403  0.1006
30889ION     NA48413   7.142  10.181  11.737 -0.0598 -0.0326 -0.3223
30890ION     NA48414  10.245   2.647   6.830 -0.2343 -0.1646 -0.0625
30891ION     NA48415   6.964  10.569   6.379  0.1415  0.1493 -0.0755
30892ION     NA48416  15.249  16.488  11.400 -0.1211  0.1261 -0.2215
30893ION     NA48417  11.000   1.545   3.701 -0.2588  0.2505 -0.1282
30894ION     NA48418   3.439   2.287  11.220  0.1652  0.0964  0.1261
30895ION     NA48419  13.379  10.900   5.874 -0.0691 -0.1699  0.2583
30896ION     NA48420   9.440  11.596  11.407 -0.4655 -0.0610  0.1706
30897ION     NA48421  16.888   4.967  14.752 -0.1745 -0.2318  0.2155
30898ION     NA48422   4.630   7.550   6.460  0.1048 -0.2587 -0.0087
30899ION     NA48423   9.011   8.104  11.455  0.1318 -0.1693 -0.1400
30900ION     NA48424   6.916   8.374   2.831  0.0055  0.0982  0.0529
30901ION     NA48425   6.423   4.422  12.033  0.1059  0.0264 -0.3983
30902ION     NA48426   1.893  12.685  11.401  0.2576  0.1603  0.2031
30903ION     NA48427   6.425   2.230  11.709  0.2283 -0.0716 -0.2004
30904ION     NA48428   3.831   7.206   2.445 -0.1307 -0.3310 -0.1084
30905ION     NA48429   2.078  15.457  11.580  0.1857 -0.0280  0.1859
30906ION     NA48430   4.575   9.963  11.424 -0.2730 -0.0252  0.3662
30907ION     NA48431   6.334   2.681  11.497 -0.0314  0.3055 -0.0476
30908ION     NA48432   6.285  10.183  11.635  0.2071  0.1346 -0.1299
30909ION     NA48433  15.475   8.108   5.786  0.1962 -0.3535 -0.0731
30910ION     NA48434  10.302   6.924   4.662  0.2318  0.2371  0.2259
30911ION     NA48435   5.808  16.653  11.459 -0.0466 -0.2666  0.3159
30912ION     NA48436   0.512  10.496  16.729 -0.0706 -0.2837 -0.0319
30913ION     NA48437  15.236  10.733  14.974  0.2344 -0.0600 -0.0270
30914ION     NA48438   1.699  10.097  11.332 -0.3172 -0.1956  0.0271
30915ION     NA48439   3.652  16.031  11.580  0.2682 -0.2103 -0.1808
30916ION     NA48440   5.866   6.282   3.071 -0.2590 -0.2524  0.0021
30917ION     NA48441   1.839   0.457  11.491  0.0175 -0.4297  0.3506
30918ION     NA48442  16.219   3.887  11.288 -0.1127 -0.0910 -0.1995
30919ION     NA48443   2.282   9.906   1.628 -0.0053 -0.1317  0.0535
30920ION     NA48444  12.791   2.857  11.659  0.1982  0.0756  0.1660
30921ION     NA48445   0.028   5.237   4.837  0.2991 -0.0861 -0.2921
30922ION     NA48446   7.859  14.363   6.460 -0.1158  0.2927  0.3437
30923ION     NA48447   4.166  15.197  11.680 -0.0424 -0.2437 -0.2746
30924ION     NA48448   6.771   0.291  12.446 -0.1551  0.1989  0.2166
30925ION     NA48449  12.327  17.058   1.455 -0.1262 -0.2136  0.1490
30926ION     NA48450   7.457   6.401   6.250  0.0261 -0.1648 -0.2824
30927ION     NA48451   4.513   2.063  11.471  0.3776  0.1513 -0.2307
30928ION     NA48452   1.560  15.967   2.949  0.0101 -0.1826 -0.0123
30929ION     NA48453   5.757   9.050  11.428 -0.2593 -0.0322  0.0870
30930ION     NA48454   1.094  15.280  11.260  0.0492  0.2027  0.1855
30931ION     NA48455   5.708   6.353   6.323  0.1682 -0.2233 -0.0420
30932ION     NA48456  11.608  10.316  13.382 -0.0518 -0.1593 -0.0263
30933ION     NA48457  16.801   7.623   2.052 -0.0745  0.2534 -0.0086
30934ION     NA48458   0.175   7.142  11.171 -0.2138 -0.5536  0.0400
30935ION     NA48459  11.143   6.830  14.660  0.1523  0.1899  0.1898
30936ION     NA48460  15.543   2.328  11.736  0.1223  0.1267 -0.1929
30937ION     NA48461   5.809   1.383   6.263  0.1102  0.1350 -0.2241
30938ION     NA48462  15.831   7.502   5.871 -0.0843 -0.1746  0.1730
30939ION     NA48463  13.190   3.387   6.413 -0.0419  0.1226 -0.1558
30940ION     NA48464  10.079   6.559  11.853  0.3619 -0.1245  0.0245
30941ION     NA48465   0.851   1.360   3.428 -0.0157 -0.0645  0.1476
30942ION     NA48466  14.238  10.972   5.650 -0.2607 -0.0595  0.2275
30943ION     NA48467  10.510  16.666   6.904  0.1825 -0.0194 -0.0794
30944ION     NA48468  12.596   5.039  12.689  0.0078  0.1131 -0.0680
30945ION     NA48469   1.297  13.543  11.386 -0.0735  0.0414 -0.0207
30946ION     NA48470  14.384  13.709   6.206  0.3012  0.0350  0.2762
30947ION     NA48471   5.003   9.840  14.559 -0.1324  0.0443 -0.0157
30948ION     NA48472   7.811   4.810   6.573 -0.1179 -0.3799 -0.0011
30949ION     NA48473  16.647  15.204   4.015  0.0114  0.0724  0.0307
30950ION     NA48474  10.132   8.165   5.944  0.0547 -0.3211 -0.1157
30951ION     NA48475   1.210   9.239  11.362  0.2588 -0.0596  0.0601
30952ION     NA48476   0.473  12.307  11.486  0.0646  0.1216 -0.0564
30953ION     NA48477  16.757  12.121   6.238  0.0253 -0.1388  0.0052
30954ION     NA48478   9.254  11.357   6.622 -0.0479  0.1226  0.2177
30955ION     NA48479   8.421   2.320   6.580 -0.1419  0.0827  0.1196
30956ION     NA48480   6.516  11.345   6.177  0.0526  0.0123 -0.0106
30957ION     NA48481  14.789  14.201   6.150 -0.2019 -0.2731 -0.0343
30958ION     NA48482   4.420   3.473  11.895 -0.0529 -0.1415  0.2078
30959ION     NA48483   1.680  12.127   6.266 -0.3132 -0.0721 -0.1277
30960ION     NA48484   1.888   2.061  11.162 -0.1900 -0.0439 -0.3515
30961ION     NA48485   4.359  13.737  12.992 -0.0346 -0.1595 -0.2898
30962ION     NA48486   4.301   6.986  15.324  0.3238  0.1289 -0.1040
30963ION     NA48487  10.903  15.772   6.103  0.2111  0.0453  0.1316
30964ION     NA48488  16.469  14.138   5.851  0.0473 -0.1741  0.0266
30965ION     NA48489   8.527  12.234  11.572 -0.1028 -0.3578 -0.0756
30966ION     NA48490   7.901   0.154  11.637  0.0005 -0.1393  0.0505
30967ION     NA48491  14.050   6.946   5.898  0.2394  0.0469  0.1907
30968ION     NA48492   4.118   8.942   2.258 -0.0715  0.0003  0.0579
30969ION     NA48493  14.932  17.173  11.479  0.0657 -0.0691  0.2380
30970ION     NA48494   1.941  12.190  11.366 -0.3163  0.0700  0.3358
30971ION     NA48495   6.687   6.645   6.312  0.0052  0.0286  0.0789
30972ION     NA48496   0.782  15.380  12.746 -0.0477  0.1061 -0.0141
30973ION     NA48497   7.705   5.627  11.645  0.0893  0.2305  0.0292
30974ION     NA48498   3.754  10.019  11.448 -0.1472  0.2028 -0.1364
30975ION     NA48499  14.428   2.794   6.445  0.2584 -0.2068 -0.0718
30976ION     NA48500  11.729   7.677  14.347  0.0602  0.0225 -0.0064
30977ION     NA48501  17.035   3.879  11.154 -0.1978  0.3895  0.2155
30978ION     NA48502   3.259   2.989   2.515 -0.1401 -0.0844 -0.0290
30979ION     NA48503  12.977  14.289   6.124  0.0125 -0.1215 -0.1133
30980ION     NA48504   4.860  10.552   6.447  0.1316  0.0651 -0.2559
30981ION     NA48505   7.920   8.187   5.388  0.0580 -0.0573  0.3367
30982ION     NA48506   3.675  13.894  11.508 -0.0307  0.0313 -0.4654
30983ION     NA48507   7.858   2.559  11.755  0.0732  0.0673  0.0961
30984ION     NA48508  11.492   4.159  11.676 -0.1029 -0.1831  0.1075
30985ION     NA48509   7.454   1.891   5.374 -0.2724  0.1614  0.1018
30986ION     NA48510   4.958  15.384   1.623 -0.1851  0.1168  0.1668
30987ION     NA48511  10.759   9.006  11.351  0.0895 -0.1046 -0.1592
30988ION     NA48512   0.846   2.763  11.774  0.0377  0.2873  0.0099
30989ION     NA48513  15.202  10.223   5.969 -0.1181 -0.1015 -0.2886
30990ION     NA48514   9.323  13.026   4.762  0.1041 -0.1003 -0.3546
30991ION     NA48515   7.799   5.733   6.550 -0.0788  0.0301 -0.1877
30992ION     NA48516  15.468   2.124   1.607  0.2361  0.1686  0.0712
30993ION     NA48517  17.014   7.584  12.131 -0.1646 -0.0902 -0.1446
30994ION     NA48518   2.956  11.634   6.361 -0.0005 -0.1816 -0.0129
30995ION     NA48519   0.137   3.847   5.821 -0.0131  0.1710  0.1412
30996ION     NA48520   7.253   2.585  15.338  0.4257  0.0364  0.0249
30997ION     NA48521  13.655   8.603   5.952  0.1332 -0.0783 -0.2842
30998ION     NA48522  15.232   0.317   6.407 -0.0809  0.1695  0.3130
30999ION     NA48523  11.402  14.540   6.377  0.0239 -0.1734 -0.1548
31000ION     NA48524  10.729   9.479  14.334  0.1530 -0.0620 -0.1347
31001ION     NA48525   9.377  14.365   5.014  0.0439 -0.0389  0.1012
31002ION     NA48526  13.912   1.731   6.389 -0.0520  0.0389 -0.1372
31003ION     NA48527   8.856   9.019  11.513 -0.1457  0.1330  0.0222
31004ION     NA48528  15.379   3.213   6.429 -0.2692  0.1736 -0.1337
31005ION     NA48529   1.714   8.890   6.088  0.0858  0.0845  0.2997
31006ION     NA48530  13.378  13.276  11.545 -0.0114  0.2743  0.0338
31007ION     NA48531  16.650   2.997  11.315 -0.2327  0.0297 -0.1357
31008ION     NA48532   3.181  14.117   6.563 -0.0931 -0.0180 -0.1998
31009ION     NA48533   4.973   9.626   3.488 -0.1548 -0.3458 -0.1088
31010ION     NA48534   8.964  16.328  15.967  0.1770 -0.2990 -0.1627
31011ION     NA48535   3.210  13.568  17.566 -0.1552 -0.0927  0.0195
31012ION     NA48536  15.240  14.169  13.129  0.0671 -0.0712  0.3593
31013ION     NA48537  13.757  14.335   5.972 -0.0203 -0.0678 -0.1408
31014ION     NA48538  14.291   3.516  13.584  0.0433 -0.0426  0.0571
31015ION     NA48539   1.509  16.776   3.296 -0.0994 -0.0394 -0.1370
31016ION     NA48540  16.006   4.823  11.145 -0.0786 -0.2882  0.0253
31017ION     NA48541  14.959  12.982   1.572 -0.0036  0.0527 -0.1315
31018ION     NA48542   1.242   9.871   6.082 -0.0121  0.4282  0.2771
31019ION     NA48543   7.251   1.784  11.773  0.0323 -0.0841 -0.1787
31020ION     NA48544   4.012   4.620  11.423 -0.0377  0.2609  0.2270
31021ION     NA48545  13.858   5.436   6.177 -0.0080  0.0265  0.0784
31022ION     NA48546   0.829   0.637  11.485 -0.3291 -0.2645 -0.2360
31023ION     NA48547   0.574   3.332  11.061  0.0185  0.2398 -0.0443
31024ION     NA48548   0.568   4.639   5.886  0.0432  0.1321  0.0830
31025ION     NA48549   7.451   8.401   6.313  0.0141  0.1737  0.0150
31026ION     NA48550   7.606   0.129   6.477  0.0351  0.2135 -0.3598
31027ION     NA48551   6.723  11.244   4.606 -0.2458 -0.1025  0.4179
31028ION     NA48552  14.518  16.282  11.510 -0.0784  0.0647 -0.0469
31029ION     NA48553   2.175   7.422   6.472 -0.1937  0.1465 -0.3421
31030ION     NA48554   5.568  12.832   6.639  0.1029 -0.2829  0.1959
31031ION     NA48555   5.605   0.645   2.180 -0.0229 -0.2373 -0.2541
31032ION     NA48556   0.147  14.706  11.266  0.0791 -0.0211 -0.0674
31033ION     NA48557  16.843   9.406  11.038 -0.4842  0.1511  0.0536
31034ION     NA48558  16.276   3.891   6.203  0.2922 -0.3625  0.2900
31035ION     NA48559  17.184   2.199  11.265 -0.0844 -0.0318  0.1374
31036ION     NA48560  15.709  15.494   1.494 -0.0642  0.1017  0.2794
31037ION     NA48561   7.610  12.243   6.574  0.2864 -0.0153  0.1212
31038ION     NA48562   1.468   2.737   5.886 -0.0980  0.1403  0.2416
31039ION     NA48563  10.901   8.850   0.695 -0.2243  0.0391 -0.1055
31040ION     NA48564   5.244   4.671   6.267  0.0581 -0.2717  0.1066
31041ION     NA48565  12.143   1.810   6.593  0.1696  0.1400  0.0767
31042ION     NA48566  13.313   4.725   6.179 -0.2500 -0.1081 -0.0774
31043ION     NA48567   4.461   4.196   6.254  0.2032 -0.0864  0.0299
31044ION     NA48568   7.912   8.046   6.425 -0.0527 -0.2054  0.0658
31045ION     NA48569   9.178   9.828  11.559  0.2510 -0.1484 -0.0022
31046ION     NA48570   7.055  14.587   6.456 -0.1190 -0.2306 -0.2555
31047ION     NA48571  13.175   8.124  16.305 -0.3145  0.3265  0.0683
31048ION     NA48572  10.235  13.233  17.418  0.1621  0.2423  0.2094
31049ION     NA48573   7.532   1.993   6.534 -0.2240  0.2937  0.1539
31050ION     NA48574   4.936  11.363  11.336 -0.1322 -0.1023 -0.2960
31051ION     NA48575   4.965  16.816  11.458 -0.0749  0.2306  0.0317
31052ION     NA48576   7.757   8.824  11.634  0.1638 -0.3696 -0.1935
31053ION     NA48577   7.287  13.808   6.365  0.1518  0.0120 -0.1563
31054ION     NA48578   6.835  10.420  14.699 -0.0860 -0.2065  0.0711
31055ION     NA48579   8.986  10.168   6.373 -0.1092  0.2487  0.1409
31056ION     NA48580  12.763   8.001   6.315  0.0038 -0.1281 -0.0513
31057ION     NA48581   0.698   5.838  17.458  0.3201 -0.1894  0.1481
31058ION     NA48582   4.313   2.379   6.451 -0.0706 -0.0578 -0.1043
31059ION     NA48583  17.169  10.259   3.349 -0.0472 -0.1919 -0.1282
31060ION     NA48584  11.739   9.203   6.223  0.0997  0.1384  0.2427
31061ION     NA48585   8.770   7.178  11.697 -0.0634  0.3353 -0.1466
31062ION     NA48586  10.885   4.617  16.102  0.1927 -0.1307  0.1251
31063ION     NA48587   6.958  13.370  12.328  0.1568 -0.2032  0.1080
31064ION     NA48588  16.607   8.407  11.246  0.3754  0.2023 -0.0815
31065ION     NA48589   3.834  10.933  11.482  0.0684  0.3599 -0.0685
31066ION     NA48590  15.470   6.508  10.913 -0.1555 -0.1172 -0.4023
31067ION     NA48591   0.199  10.071   5.992 -0.2608  0.0501 -0.1133
31068ION     NA48592  10.670  14.062   6.645  0.2359  0.1362 -0.1413
31069ION     NA48593   6.683  16.563  15.005  0.0986 -0.0108  0.2021
31070ION     NA48594   9.175  14.918  13.281 -0.1528 -0.2116 -0.3554
31071ION     NA48595  15.999   3.031   3.203 -0.0907  0.0554  0.0295
31072ION     NA48596   7.664  12.719  11.548  0.1786  0.0726 -0.0928
31073ION     NA48597   8.347   9.619  11.609 -0.2716 -0.2362 -0.0548
31074ION     NA48598   6.047  14.485   6.255  0.0483  0.1640 -0.2247
31075ION     NA48599   4.808  15.809  14.451 -0.1702 -0.2697 -0.1491
31076ION     NA48600   2.371  11.490  12.310 -0.1537  0.1312  0.0332
31077ION     NA48601   4.739   7.607  11.741  0.5129  0.2535 -0.1838
31078ION     NA48602  15.053  14.273  11.265  0.0531  0.2019  0.1309
31079ION     NA48603   4.891  12.015   4.507  0.0128 -0.1395 -0.0666
31080ION     NA48604  13.174   6.526  16.746 -0.0465 -0.0555  0.2626
31081ION     NA48605  17.018   1.111  17.375  0.1722  0.0475  0.2513
31082ION     NA48606  16.571  16.234   6.142  0.0342 -0.0380 -0.0538
31083ION     NA48607   8.481   8.682   6.432  0.1766 -0.1916  0.0281
31084ION     NA48608   4.463  14.148   6.130  0.0531  0.1539 -0.0456
31085ION     NA48609   3.867  12.275  11.495  0.0005  0.1162  0.2408
31086ION     NA48610  12.486   8.023   2.114 -0.1333  0.0212  0.3758
31087ION     NA48611  16.572  13.117  11.135  0.1886 -0.0031 -0.0667
31088ION     NA48612  13.994   9.472  12.863  0.1351  0.0885  0.4299
31089ION     NA48613   8.254   2.911   2.388 -0.0666 -0.0730 -0.0193
31090ION     NA48614   1.156  10.522  12.038 -0.3164 -0.1429 -0.1142
31091ION     NA48615   2.127   6.036  11.211 -0.0344  0.1855  0.1731
31092ION     NA48616  15.510   1.234  11.222 -0.0160 -0.1114  0.1059
31093ION     NA48617   7.664   3.506  11.796 -0.2225  0.1236 -0.0885
31094ION     NA48618  16.944  11.927  11.636 -0.0148  0.0936  0.0760
31095ION     NA48619   4.460   1.384   2.131 -0.0709  0.0714 -0.0396
31096ION     NA48620   0.499  14.032   6.063  0.0691  0.0519  0.4034
31097ION     NA48621   2.765   6.038  13.073  0.1729  0.2443  0.3469
31098ION     NA48622  13.690   7.741  10.879  0.1231  0.3308  0.1785
31099ION     NA48623  11.554  15.499  13.065 -0.1297  0.0274 -0.2085
31100ION     NA48624  12.949  15.813   6.175  0.1134 -0.2400  0.1506
31101ION     NA48625  12.592   6.376   6.119  0.0835 -0.1570 -0.1459
31102ION     NA48626   8.216  12.648  12.384 -0.0527  0.0183  0.1100
31103ION     NA48627  16.324  17.087   6.286  0.1228  0.0089 -0.1639
31104ION     NA48628  16.092   9.771   5.985 -0.0276 -0.2054  0.1426
31105ION     NA48629  15.122   1.593   4.056 -0.0483 -0.0806  0.2317
31106ION     NA48630  14.240   9.273   5.308  0.0614  0.2467 -0.1727
31107ION     NA48631   3.827   7.865  16.761 -0.0245 -0.1138 -0.1086
31108ION     NA48632   0.650  11.260   5.741 -0.2323  0.0314  0.0657
31109ION     NA48633   8.091   2.607  13.997  0.1808  0.2208  0.0613
31110ION     NA48634   7.468   6.943   5.239  0.2810 -0.1482  0.2399
31111ION     NA48635   2.840  13.288  11.462  0.2034  0.2545  0.1299
31112ION     NA48636  16.298  15.179   6.135  0.3741 -0.1211  0.2124
31113ION     NA48637   2.377  14.528  11.548  0.0584 -0.1601 -0.2553
31114ION     NA48638   8.772   0.086  11.612  0.0197 -0.2409  0.1919
31115ION     NA48639  15.033   3.571   3.169 -0.1276 -0.0900 -0.1434
31116ION     NA48640   8.556   0.301   6.519 -0.0219  0.0822 -0.0876
31117ION     NA48641   3.147   4.799  11.355 -0.0047 -0.1141 -0.0962
31118ION     NA48642  14.736   0.757  11.405  0.0352  0.1349  0.0828
31119ION     NA48643   5.385   0.021   2.945  0.2110  0.1113  0.0403
31120ION     NA48644  17.004  13.861  11.000  0.1238 -0.0307 -0.3236
31121ION     NA48645   7.903  15.326  17.599 -0.0974  0.0226 -0.0575
31122ION     NA48646   5.811   4.253   3.593  0.0878 -0.1255 -0.0964
31123ION     NA48647   9.108   1.567  11.752 -0.2159  0.0144  0.0717
31124ION     NA48648  12.633   1.712  11.615  0.2268 -0.1333 -0.0825
31125ION     NA48649   6.978  12.704  15.385 -0.1995  0.3375 -0.0221
31126ION     NA48650   5.646  12.930  11.672  0.1103  0.2594 -0.2674
31127ION     NA48651  15.902  15.588   5.950  0.1908 -0.0929 -0.0513
31128ION     NA48652  14.705  10.352   6.047  0.4883 -0.0935 -0.2400
31129ION     NA48653  10.478   2.620  11.713  0.0541  0.0986 -0.2603
31130ION     NA48654   9.515   2.553  11.679 -0.1601  0.2507  0.0166
31131ION     NA48655   9.430   1.479   6.955 -0.1121  0.1692 -0.2491
31132ION     NA48656  12.642  13.029  11.624 -0.1333 -0.2186 -0.1027
31133ION     NA48657  16.262   9.561  14.614  0.0639  0.1642  0.3333
31134ION     NA48658   5.572  12.196  11.539  0.0819 -0.5253  0.2599
31135ION     NA48659   8.349   9.163  14.335 -0.1858 -0.1107  0.0161
31136ION     NA48660   8.296  10.644  11.748 -0.1374  0.1565 -0.1046
31137ION     NA48661  15.481   6.582   5.965  0.0312 -0.0553  0.1035
31138ION     NA48662   2.129   6.662   6.024  0.0032 -0.2836  0.2945
31139ION     NA48663   7.389   0.484   1.561  0.2562  0.5065 -0.1244
31140ION     NA48664   8.541  10.875   6.498 -0.3932 -0.2180 -0.0486
31141ION     NA48665   4.140   6.989   5.945 -0.1778 -0.1407  0.1252
31142ION     NA48666  11.876   4.407   2.256  0.1475  0.0880  0.0508
31143ION     NA48667   0.253  13.210   5.086 -0.1273  0.0888  0.0708
31144ION     NA48668   7.716  11.185   6.637 -0.0685 -0.1485 -0.1663
31145ION     NA48669  15.050  15.098  11.878 -0.1551 -0.0382  0.0501
31146ION     NA48670   7.234   6.393  11.787  0.1832 -0.0966 -0.0663
  17.24850  17.24850  17.65867
